<?xml version="1.0" encoding="UTF-8"?>

<!-- generated on 2023-08-23 16:04:10 by Eclipse SUMO libsumo Version 1.18.0
<configuration xmlns:xsi="http://www.w3.org/2001/XMLSchema-instance" xsi:noNamespaceSchemaLocation="http://sumo.dlr.de/xsd/libsumoConfiguration.xsd">

    <input>
        <net-file value="/home/stefan/RESCO/./environments/arterial4x4/arterial4x4.net.xml"/>
        <route-files value="/home/stefan/RESCO/./environments/arterial4x4/arterial4x4_18.rou.xml"/>
    </input>

    <output>
        <tripinfo-output value="/home/stefan/results/IDDQN-tr0-arterial4x4-0-drq_norm-wait_norm/tripinfo_18.xml"/>
        <tripinfo-output.write-unfinished value="true"/>
    </output>

    <processing>
        <time-to-teleport value="-1"/>
    </processing>

    <report>
        <no-warnings value="True"/>
        <no-step-log value="True"/>
    </report>

    <random_number>
        <random value="true"/>
    </random_number>

</configuration>
-->

<tripinfos xmlns:xsi="http://www.w3.org/2001/XMLSchema-instance" xsi:noNamespaceSchemaLocation="http://sumo.dlr.de/xsd/tripinfo_file.xsd">
    <tripinfo id="f_0_3.0" depart="0.00" departLane="np3_nt3_0" departPos="42.82" departSpeed="0.00" departDelay="0.00" arrival="138.00" arrivalLane="nt14_np11_0" arrivalPos="75.00" arrivalSpeed="8.52" duration="138.00" routeLength="908.27" waitingTime="38.00" waitingCount="3" stopTime="0.00" timeLoss="58.12" rerouteNo="0" devices="tripinfo_f_0_3.0" vType="type1" speedFactor="0.95" vaporized=""/>
    <tripinfo id="f_0_3.1" depart="9.00" departLane="np3_nt3_0" departPos="2.23" departSpeed="0.00" departDelay="0.82" arrival="140.00" arrivalLane="nt14_np11_0" arrivalPos="75.00" arrivalSpeed="10.86" duration="131.00" routeLength="948.86" waitingTime="28.00" waitingCount="4" stopTime="0.00" timeLoss="50.54" rerouteNo="0" devices="tripinfo_f_0_3.1" vType="type1" speedFactor="0.99" vaporized=""/>
    <tripinfo id="f_0_2.0" depart="0.00" departLane="np2_nt2_0" departPos="46.50" departSpeed="0.00" departDelay="0.00" arrival="157.00" arrivalLane="nt15_np10_0" arrivalPos="75.00" arrivalSpeed="9.93" duration="157.00" routeLength="904.58" waitingTime="59.00" waitingCount="4" stopTime="0.00" timeLoss="81.28" rerouteNo="0" devices="tripinfo_f_0_2.0" vType="type1" speedFactor="0.99" vaporized=""/>
    <tripinfo id="f_0_0.0" depart="0.00" departLane="np13_nt13_0" departPos="27.96" departSpeed="0.00" departDelay="0.00" arrival="158.00" arrivalLane="nt4_np5_0" arrivalPos="75.00" arrivalSpeed="16.99" duration="158.00" routeLength="1319.93" waitingTime="34.00" waitingCount="3" stopTime="0.00" timeLoss="60.64" rerouteNo="0" devices="tripinfo_f_0_0.0" vType="type1" speedFactor="0.94" vaporized=""/>
    <tripinfo id="f_0_0.1" depart="14.00" departLane="np13_nt13_0" departPos="32.67" departSpeed="0.00" departDelay="0.36" arrival="160.00" arrivalLane="nt4_np5_0" arrivalPos="75.00" arrivalSpeed="20.06" duration="146.00" routeLength="1315.22" waitingTime="18.00" waitingCount="6" stopTime="0.00" timeLoss="55.79" rerouteNo="0" devices="tripinfo_f_0_0.1" vType="type1" speedFactor="1.02" vaporized=""/>
    <tripinfo id="f_0_3.2" depart="17.00" departLane="np3_nt3_0" departPos="12.90" departSpeed="0.00" departDelay="0.64" arrival="188.00" arrivalLane="nt14_np11_0" arrivalPos="75.00" arrivalSpeed="9.38" duration="171.00" routeLength="938.19" waitingTime="55.00" waitingCount="5" stopTime="0.00" timeLoss="85.33" rerouteNo="0" devices="tripinfo_f_0_3.2" vType="type1" speedFactor="0.92" vaporized=""/>
    <tripinfo id="f_0_3.3" depart="25.00" departLane="np3_nt3_0" departPos="44.94" departSpeed="0.00" departDelay="0.45" arrival="190.00" arrivalLane="nt14_np11_0" arrivalPos="75.00" arrivalSpeed="11.92" duration="165.00" routeLength="906.15" waitingTime="51.00" waitingCount="4" stopTime="0.00" timeLoss="96.45" rerouteNo="0" devices="tripinfo_f_0_3.3" vType="type1" speedFactor="1.11" vaporized=""/>
    <tripinfo id="f_0_2.1" depart="9.00" departLane="np2_nt2_0" departPos="45.85" departSpeed="0.00" departDelay="0.82" arrival="206.00" arrivalLane="nt15_np10_0" arrivalPos="75.00" arrivalSpeed="11.13" duration="197.00" routeLength="905.23" waitingTime="104.00" waitingCount="5" stopTime="0.00" timeLoss="127.84" rerouteNo="0" devices="tripinfo_f_0_2.1" vType="type1" speedFactor="1.09" vaporized=""/>
    <tripinfo id="f_0_1.0" depart="0.00" departLane="np16_nt1_0" departPos="49.18" departSpeed="0.00" departDelay="0.00" arrival="223.00" arrivalLane="nt16_np8_0" arrivalPos="75.00" arrivalSpeed="20.55" duration="223.00" routeLength="1298.70" waitingTime="104.00" waitingCount="7" stopTime="0.00" timeLoss="141.51" rerouteNo="0" devices="tripinfo_f_0_1.0" vType="type1" speedFactor="1.12" vaporized=""/>
    <tripinfo id="f_0_2.2" depart="17.00" departLane="np2_nt2_0" departPos="62.78" departSpeed="0.00" departDelay="0.64" arrival="223.00" arrivalLane="nt15_np10_0" arrivalPos="75.00" arrivalSpeed="9.14" duration="206.00" routeLength="888.30" waitingTime="89.00" waitingCount="7" stopTime="0.00" timeLoss="128.32" rerouteNo="0" devices="tripinfo_f_0_2.2" vType="type1" speedFactor="0.96" vaporized=""/>
    <tripinfo id="f_0_3.4" depart="33.00" departLane="np3_nt3_0" departPos="1.74" departSpeed="0.00" departDelay="0.27" arrival="227.00" arrivalLane="nt14_np11_0" arrivalPos="75.00" arrivalSpeed="9.07" duration="194.00" routeLength="949.35" waitingTime="90.00" waitingCount="2" stopTime="0.00" timeLoss="113.48" rerouteNo="0" devices="tripinfo_f_0_3.4" vType="type1" speedFactor="0.99" vaporized=""/>
    <tripinfo id="f_0_3.5" depart="41.00" departLane="np3_nt3_0" departPos="5.01" departSpeed="0.00" departDelay="0.09" arrival="229.00" arrivalLane="nt14_np11_0" arrivalPos="75.00" arrivalSpeed="9.05" duration="188.00" routeLength="946.08" waitingTime="80.00" waitingCount="4" stopTime="0.00" timeLoss="110.13" rerouteNo="0" devices="tripinfo_f_0_3.5" vType="type1" speedFactor="1.02" vaporized=""/>
    <tripinfo id="f_0_3.6" depart="50.00" departLane="np3_nt3_0" departPos="8.69" departSpeed="0.00" departDelay="0.91" arrival="242.00" arrivalLane="nt14_np11_0" arrivalPos="75.00" arrivalSpeed="8.72" duration="192.00" routeLength="942.40" waitingTime="79.00" waitingCount="5" stopTime="0.00" timeLoss="112.30" rerouteNo="0" devices="tripinfo_f_0_3.6" vType="type1" speedFactor="0.99" vaporized=""/>
    <tripinfo id="f_0_3.14" depart="120.00" departLane="np3_nt3_0" departPos="63.31" departSpeed="0.00" departDelay="5.45" arrival="245.00" arrivalLane="nt14_np11_0" arrivalPos="75.00" arrivalSpeed="9.34" duration="125.00" routeLength="887.78" waitingTime="16.00" waitingCount="5" stopTime="0.00" timeLoss="43.26" rerouteNo="0" devices="tripinfo_f_0_3.14" vType="type1" speedFactor="0.90" vaporized=""/>
    <tripinfo id="f_0_2.3" depart="25.00" departLane="np2_nt2_0" departPos="5.00" departSpeed="0.00" departDelay="0.45" arrival="252.00" arrivalLane="nt15_np10_0" arrivalPos="75.00" arrivalSpeed="9.12" duration="227.00" routeLength="946.08" waitingTime="101.00" waitingCount="7" stopTime="0.00" timeLoss="149.83" rerouteNo="0" devices="tripinfo_f_0_2.3" vType="type1" speedFactor="1.03" vaporized=""/>
    <tripinfo id="f_0_3.7" depart="58.00" departLane="np3_nt3_0" departPos="20.16" departSpeed="0.00" departDelay="0.73" arrival="253.00" arrivalLane="nt14_np11_0" arrivalPos="75.00" arrivalSpeed="10.50" duration="195.00" routeLength="930.93" waitingTime="70.00" waitingCount="7" stopTime="0.00" timeLoss="113.84" rerouteNo="0" devices="tripinfo_f_0_3.7" vType="type1" speedFactor="0.97" vaporized=""/>
    <tripinfo id="f_0_3.8" depart="66.00" departLane="np3_nt3_0" departPos="21.58" departSpeed="0.00" departDelay="0.54" arrival="255.00" arrivalLane="nt14_np11_0" arrivalPos="75.00" arrivalSpeed="9.19" duration="189.00" routeLength="929.51" waitingTime="68.00" waitingCount="6" stopTime="0.00" timeLoss="109.11" rerouteNo="0" devices="tripinfo_f_0_3.8" vType="type1" speedFactor="0.98" vaporized=""/>
    <tripinfo id="f_0_3.9" depart="74.00" departLane="np3_nt3_0" departPos="21.70" departSpeed="0.00" departDelay="0.36" arrival="256.00" arrivalLane="nt14_np11_0" arrivalPos="75.00" arrivalSpeed="12.29" duration="182.00" routeLength="929.39" waitingTime="61.00" waitingCount="5" stopTime="0.00" timeLoss="115.93" rerouteNo="0" devices="tripinfo_f_0_3.9" vType="type1" speedFactor="1.19" vaporized=""/>
    <tripinfo id="f_0_2.4" depart="33.00" departLane="np2_nt2_0" departPos="27.73" departSpeed="0.00" departDelay="0.27" arrival="262.00" arrivalLane="nt15_np10_0" arrivalPos="75.00" arrivalSpeed="10.58" duration="229.00" routeLength="923.35" waitingTime="89.00" waitingCount="9" stopTime="0.00" timeLoss="154.87" rerouteNo="0" devices="tripinfo_f_0_2.4" vType="type1" speedFactor="1.05" vaporized=""/>
    <tripinfo id="f_0_3.10" depart="82.00" departLane="np3_nt3_0" departPos="2.54" departSpeed="0.00" departDelay="0.18" arrival="272.00" arrivalLane="nt14_np11_0" arrivalPos="75.00" arrivalSpeed="9.68" duration="190.00" routeLength="948.55" waitingTime="66.00" waitingCount="6" stopTime="0.00" timeLoss="108.42" rerouteNo="0" devices="tripinfo_f_0_3.10" vType="type1" speedFactor="0.98" vaporized=""/>
    <tripinfo id="f_0_2.5" depart="41.00" departLane="np2_nt2_0" departPos="16.52" departSpeed="0.00" departDelay="0.09" arrival="276.00" arrivalLane="nt15_np10_0" arrivalPos="75.00" arrivalSpeed="12.76" duration="235.00" routeLength="934.56" waitingTime="90.00" waitingCount="10" stopTime="0.00" timeLoss="168.33" rerouteNo="0" devices="tripinfo_f_0_2.5" vType="type1" speedFactor="1.18" vaporized=""/>
    <tripinfo id="f_0_0.2" depart="28.00" departLane="np13_nt13_0" departPos="52.86" departSpeed="0.00" departDelay="0.73" arrival="284.00" arrivalLane="nt4_np5_0" arrivalPos="75.00" arrivalSpeed="16.45" duration="256.00" routeLength="1295.03" waitingTime="121.00" waitingCount="4" stopTime="0.00" timeLoss="152.17" rerouteNo="0" devices="tripinfo_f_0_0.2" vType="type1" speedFactor="0.88" vaporized=""/>
    <tripinfo id="f_0_0.3" depart="41.00" departLane="np13_nt13_0" departPos="34.44" departSpeed="0.00" departDelay="0.09" arrival="285.00" arrivalLane="nt4_np5_0" arrivalPos="75.00" arrivalSpeed="16.72" duration="244.00" routeLength="1313.45" waitingTime="103.00" waitingCount="3" stopTime="0.00" timeLoss="142.06" rerouteNo="0" devices="tripinfo_f_0_0.3" vType="type1" speedFactor="0.90" vaporized=""/>
    <tripinfo id="f_0_3.11" depart="90.00" departLane="np3_nt3_0" departPos="13.75" departSpeed="0.00" departDelay="0.00" arrival="286.00" arrivalLane="nt14_np11_0" arrivalPos="75.00" arrivalSpeed="11.24" duration="196.00" routeLength="937.34" waitingTime="73.00" waitingCount="7" stopTime="0.00" timeLoss="123.38" rerouteNo="0" devices="tripinfo_f_0_3.11" vType="type1" speedFactor="1.08" vaporized=""/>
    <tripinfo id="f_0_1.1" depart="14.00" departLane="np16_nt1_0" departPos="9.61" departSpeed="0.00" departDelay="0.36" arrival="289.00" arrivalLane="nt16_np8_0" arrivalPos="75.00" arrivalSpeed="19.38" duration="275.00" routeLength="1338.27" waitingTime="119.00" waitingCount="10" stopTime="0.00" timeLoss="180.00" rerouteNo="0" devices="tripinfo_f_0_1.1" vType="type1" speedFactor="0.98" vaporized=""/>
    <tripinfo id="f_0_3.12" depart="99.00" departLane="np3_nt3_0" departPos="0.00" departSpeed="0.00" departDelay="0.82" arrival="289.00" arrivalLane="nt14_np11_0" arrivalPos="75.00" arrivalSpeed="10.84" duration="190.00" routeLength="951.09" waitingTime="55.00" waitingCount="7" stopTime="0.00" timeLoss="110.37" rerouteNo="0" devices="tripinfo_f_0_3.12" vType="type1" speedFactor="1.00" vaporized=""/>
    <tripinfo id="f_0_0.4" depart="55.00" departLane="np13_nt13_0" departPos="27.38" departSpeed="0.00" departDelay="0.46" arrival="293.00" arrivalLane="nt4_np5_0" arrivalPos="75.00" arrivalSpeed="20.43" duration="238.00" routeLength="1320.51" waitingTime="113.00" waitingCount="7" stopTime="0.00" timeLoss="152.55" rerouteNo="0" devices="tripinfo_f_0_0.4" vType="type1" speedFactor="1.07" vaporized=""/>
    <tripinfo id="f_0_0.5" depart="69.00" departLane="np13_nt13_0" departPos="8.23" departSpeed="0.00" departDelay="0.82" arrival="294.00" arrivalLane="nt4_np5_0" arrivalPos="75.00" arrivalSpeed="20.29" duration="225.00" routeLength="1339.66" waitingTime="98.00" waitingCount="7" stopTime="0.00" timeLoss="142.04" rerouteNo="0" devices="tripinfo_f_0_0.5" vType="type1" speedFactor="1.11" vaporized=""/>
    <tripinfo id="f_0_0.6" depart="82.00" departLane="np13_nt13_0" departPos="34.40" departSpeed="0.00" departDelay="0.18" arrival="296.00" arrivalLane="nt4_np5_0" arrivalPos="75.00" arrivalSpeed="19.48" duration="214.00" routeLength="1313.49" waitingTime="75.00" waitingCount="6" stopTime="0.00" timeLoss="123.04" rerouteNo="0" devices="tripinfo_f_0_0.6" vType="type1" speedFactor="1.01" vaporized=""/>
    <tripinfo id="f_0_2.6" depart="50.00" departLane="np2_nt2_0" departPos="21.49" departSpeed="0.00" departDelay="0.91" arrival="298.00" arrivalLane="nt15_np10_0" arrivalPos="75.00" arrivalSpeed="7.10" duration="248.00" routeLength="929.59" waitingTime="70.00" waitingCount="7" stopTime="0.00" timeLoss="130.04" rerouteNo="0" devices="tripinfo_f_0_2.6" vType="type1" speedFactor="0.66" vaporized=""/>
    <tripinfo id="f_0_0.7" depart="96.00" departLane="np13_nt13_0" departPos="48.89" departSpeed="0.00" departDelay="0.55" arrival="303.00" arrivalLane="nt4_np5_0" arrivalPos="75.00" arrivalSpeed="16.98" duration="207.00" routeLength="1299.00" waitingTime="66.00" waitingCount="6" stopTime="0.00" timeLoss="104.63" rerouteNo="0" devices="tripinfo_f_0_0.7" vType="type1" speedFactor="0.89" vaporized=""/>
    <tripinfo id="f_0_3.13" depart="107.00" departLane="np3_nt3_0" departPos="0.00" departSpeed="0.00" departDelay="0.63" arrival="304.00" arrivalLane="nt14_np11_0" arrivalPos="75.00" arrivalSpeed="9.41" duration="197.00" routeLength="951.09" waitingTime="59.00" waitingCount="7" stopTime="0.00" timeLoss="112.49" rerouteNo="0" devices="tripinfo_f_0_3.13" vType="type1" speedFactor="0.96" vaporized=""/>
    <tripinfo id="f_0_2.7" depart="58.00" departLane="np2_nt2_0" departPos="56.88" departSpeed="0.00" departDelay="0.73" arrival="312.00" arrivalLane="nt15_np10_0" arrivalPos="75.00" arrivalSpeed="9.74" duration="254.00" routeLength="894.20" waitingTime="80.00" waitingCount="7" stopTime="0.00" timeLoss="178.68" rerouteNo="0" devices="tripinfo_f_0_2.7" vType="type1" speedFactor="0.99" vaporized=""/>
    <tripinfo id="f_0_2.8" depart="66.00" departLane="np2_nt2_0" departPos="18.75" departSpeed="0.00" departDelay="0.54" arrival="314.00" arrivalLane="nt15_np10_0" arrivalPos="75.00" arrivalSpeed="10.56" duration="248.00" routeLength="932.33" waitingTime="68.00" waitingCount="8" stopTime="0.00" timeLoss="167.43" rerouteNo="0" devices="tripinfo_f_0_2.8" vType="type1" speedFactor="0.97" vaporized=""/>
    <tripinfo id="f_0_2.9" depart="74.00" departLane="np2_nt2_0" departPos="28.30" departSpeed="0.00" departDelay="0.36" arrival="318.00" arrivalLane="nt15_np10_0" arrivalPos="75.00" arrivalSpeed="10.03" duration="244.00" routeLength="922.78" waitingTime="60.00" waitingCount="7" stopTime="0.00" timeLoss="158.75" rerouteNo="0" devices="tripinfo_f_0_2.9" vType="type1" speedFactor="0.92" vaporized=""/>
    <tripinfo id="f_0_0.8" depart="110.00" departLane="np13_nt13_0" departPos="51.12" departSpeed="0.00" departDelay="0.91" arrival="323.00" arrivalLane="nt4_np5_0" arrivalPos="75.00" arrivalSpeed="19.24" duration="213.00" routeLength="1296.77" waitingTime="70.00" waitingCount="9" stopTime="0.00" timeLoss="119.46" rerouteNo="0" devices="tripinfo_f_0_0.8" vType="type1" speedFactor="0.97" vaporized=""/>
    <tripinfo id="f_0_0.9" depart="123.00" departLane="np13_nt13_0" departPos="39.13" departSpeed="0.00" departDelay="0.28" arrival="328.00" arrivalLane="nt4_np5_0" arrivalPos="75.00" arrivalSpeed="20.41" duration="205.00" routeLength="1308.76" waitingTime="88.00" waitingCount="7" stopTime="0.00" timeLoss="123.87" rerouteNo="0" devices="tripinfo_f_0_0.9" vType="type1" speedFactor="1.12" vaporized=""/>
    <tripinfo id="f_0_1.2" depart="28.00" departLane="np16_nt1_0" departPos="18.31" departSpeed="0.00" departDelay="0.73" arrival="339.00" arrivalLane="nt16_np8_0" arrivalPos="75.00" arrivalSpeed="16.38" duration="311.00" routeLength="1329.57" waitingTime="110.00" waitingCount="12" stopTime="0.00" timeLoss="210.81" rerouteNo="0" devices="tripinfo_f_0_1.2" vType="type1" speedFactor="0.93" vaporized=""/>
    <tripinfo id="f_0_1.3" depart="41.00" departLane="np16_nt1_0" departPos="27.31" departSpeed="0.00" departDelay="0.09" arrival="340.00" arrivalLane="nt16_np8_0" arrivalPos="75.00" arrivalSpeed="20.08" duration="299.00" routeLength="1320.57" waitingTime="102.00" waitingCount="11" stopTime="0.00" timeLoss="212.54" rerouteNo="0" devices="tripinfo_f_0_1.3" vType="type1" speedFactor="1.07" vaporized=""/>
    <tripinfo id="f_0_1.4" depart="55.00" departLane="np16_nt1_0" departPos="20.71" departSpeed="0.00" departDelay="0.46" arrival="342.00" arrivalLane="nt16_np8_0" arrivalPos="75.00" arrivalSpeed="18.70" duration="287.00" routeLength="1327.17" waitingTime="100.00" waitingCount="10" stopTime="0.00" timeLoss="194.40" rerouteNo="0" devices="tripinfo_f_0_1.4" vType="type1" speedFactor="1.00" vaporized=""/>
    <tripinfo id="f_0_1.5" depart="69.00" departLane="np16_nt1_0" departPos="8.59" departSpeed="0.00" departDelay="0.82" arrival="345.00" arrivalLane="nt16_np8_0" arrivalPos="75.00" arrivalSpeed="16.41" duration="276.00" routeLength="1339.29" waitingTime="87.00" waitingCount="9" stopTime="0.00" timeLoss="168.54" rerouteNo="0" devices="tripinfo_f_0_1.5" vType="type1" speedFactor="0.87" vaporized=""/>
    <tripinfo id="f_0_1.6" depart="82.00" departLane="np16_nt1_0" departPos="30.72" departSpeed="0.00" departDelay="0.18" arrival="363.00" arrivalLane="nt16_np8_0" arrivalPos="75.00" arrivalSpeed="18.68" duration="281.00" routeLength="1317.16" waitingTime="95.00" waitingCount="9" stopTime="0.00" timeLoss="186.45" rerouteNo="0" devices="tripinfo_f_0_1.6" vType="type1" speedFactor="0.97" vaporized=""/>
    <tripinfo id="f_0_2.10" depart="82.00" departLane="np2_nt2_0" departPos="23.10" departSpeed="0.00" departDelay="0.18" arrival="368.00" arrivalLane="nt15_np10_0" arrivalPos="75.00" arrivalSpeed="8.96" duration="286.00" routeLength="927.98" waitingTime="112.00" waitingCount="11" stopTime="0.00" timeLoss="201.64" rerouteNo="0" devices="tripinfo_f_0_2.10" vType="type1" speedFactor="0.93" vaporized=""/>
    <tripinfo id="f_0_0.10" depart="137.00" departLane="np13_nt13_0" departPos="18.39" departSpeed="0.00" departDelay="0.64" arrival="369.00" arrivalLane="nt4_np5_0" arrivalPos="75.00" arrivalSpeed="15.66" duration="232.00" routeLength="1329.50" waitingTime="82.00" waitingCount="6" stopTime="0.00" timeLoss="122.33" rerouteNo="0" devices="tripinfo_f_0_0.10" vType="type1" speedFactor="0.84" vaporized=""/>
    <tripinfo id="f_0_0.11" depart="150.00" departLane="np13_nt13_0" departPos="26.41" departSpeed="0.00" departDelay="0.00" arrival="370.00" arrivalLane="nt4_np5_0" arrivalPos="75.00" arrivalSpeed="18.53" duration="220.00" routeLength="1321.48" waitingTime="69.00" waitingCount="7" stopTime="0.00" timeLoss="128.99" rerouteNo="0" devices="tripinfo_f_0_0.11" vType="type1" speedFactor="1.01" vaporized=""/>
    <tripinfo id="f_0_2.11" depart="90.00" departLane="np2_nt2_0" departPos="19.07" departSpeed="0.00" departDelay="0.00" arrival="371.00" arrivalLane="nt15_np10_0" arrivalPos="75.00" arrivalSpeed="9.39" duration="281.00" routeLength="932.01" waitingTime="114.00" waitingCount="12" stopTime="0.00" timeLoss="190.87" rerouteNo="0" devices="tripinfo_f_0_2.11" vType="type1" speedFactor="0.87" vaporized=""/>
    <tripinfo id="f_0_2.12" depart="99.00" departLane="np2_nt2_0" departPos="37.10" departSpeed="0.00" departDelay="0.82" arrival="373.00" arrivalLane="nt15_np10_0" arrivalPos="75.00" arrivalSpeed="9.85" duration="274.00" routeLength="913.98" waitingTime="110.00" waitingCount="13" stopTime="0.00" timeLoss="202.83" rerouteNo="0" devices="tripinfo_f_0_2.12" vType="type1" speedFactor="1.08" vaporized=""/>
    <tripinfo id="f_0_2.13" depart="107.00" departLane="np2_nt2_0" departPos="16.98" departSpeed="0.00" departDelay="0.63" arrival="375.00" arrivalLane="nt15_np10_0" arrivalPos="75.00" arrivalSpeed="10.30" duration="268.00" routeLength="934.10" waitingTime="112.00" waitingCount="11" stopTime="0.00" timeLoss="194.86" rerouteNo="0" devices="tripinfo_f_0_2.13" vType="type1" speedFactor="1.07" vaporized=""/>
    <tripinfo id="f_0_0.12" depart="164.00" departLane="np13_nt13_0" departPos="23.90" departSpeed="0.00" departDelay="0.37" arrival="375.00" arrivalLane="nt4_np5_0" arrivalPos="75.00" arrivalSpeed="15.46" duration="211.00" routeLength="1323.99" waitingTime="47.00" waitingCount="6" stopTime="0.00" timeLoss="96.56" rerouteNo="0" devices="tripinfo_f_0_0.12" vType="type1" speedFactor="0.81" vaporized=""/>
    <tripinfo id="f_0_3.15" depart="128.00" departLane="np3_nt3_0" departPos="0.00" departSpeed="0.00" departDelay="5.27" arrival="377.00" arrivalLane="nt14_np11_0" arrivalPos="75.00" arrivalSpeed="9.28" duration="249.00" routeLength="951.09" waitingTime="118.00" waitingCount="5" stopTime="0.00" timeLoss="164.19" rerouteNo="0" devices="tripinfo_f_0_3.15" vType="type1" speedFactor="0.94" vaporized=""/>
    <tripinfo id="f_0_3.16" depart="133.00" departLane="np3_nt3_0" departPos="0.00" departSpeed="0.00" departDelay="2.09" arrival="380.00" arrivalLane="nt14_np11_0" arrivalPos="75.00" arrivalSpeed="9.66" duration="247.00" routeLength="951.09" waitingTime="112.00" waitingCount="7" stopTime="0.00" timeLoss="158.91" rerouteNo="0" devices="tripinfo_f_0_3.16" vType="type1" speedFactor="0.91" vaporized=""/>
    <tripinfo id="f_0_2.14" depart="115.00" departLane="np2_nt2_0" departPos="24.43" departSpeed="0.00" departDelay="0.45" arrival="392.00" arrivalLane="nt15_np10_0" arrivalPos="75.00" arrivalSpeed="10.76" duration="277.00" routeLength="926.65" waitingTime="117.00" waitingCount="13" stopTime="0.00" timeLoss="200.49" rerouteNo="0" devices="tripinfo_f_0_2.14" vType="type1" speedFactor="1.01" vaporized=""/>
    <tripinfo id="f_0_2.15" depart="123.00" departLane="np2_nt2_0" departPos="3.15" departSpeed="0.00" departDelay="0.27" arrival="394.00" arrivalLane="nt15_np10_0" arrivalPos="75.00" arrivalSpeed="11.45" duration="271.00" routeLength="947.93" waitingTime="109.00" waitingCount="12" stopTime="0.00" timeLoss="205.57" rerouteNo="0" devices="tripinfo_f_0_2.15" vType="type1" speedFactor="1.22" vaporized=""/>
    <tripinfo id="f_0_3.17" depart="143.00" departLane="np3_nt3_0" departPos="0.00" departSpeed="0.00" departDelay="3.91" arrival="401.00" arrivalLane="nt14_np11_0" arrivalPos="75.00" arrivalSpeed="12.13" duration="258.00" routeLength="951.09" waitingTime="133.00" waitingCount="8" stopTime="0.00" timeLoss="187.31" rerouteNo="0" devices="tripinfo_f_0_3.17" vType="type1" speedFactor="1.12" vaporized=""/>
    <tripinfo id="f_0_2.16" depart="131.00" departLane="np2_nt2_0" departPos="30.45" departSpeed="0.00" departDelay="0.09" arrival="408.00" arrivalLane="nt15_np10_0" arrivalPos="75.00" arrivalSpeed="5.07" duration="277.00" routeLength="920.63" waitingTime="95.00" waitingCount="10" stopTime="0.00" timeLoss="160.48" rerouteNo="0" devices="tripinfo_f_0_2.16" vType="type1" speedFactor="0.66" vaporized=""/>
    <tripinfo id="f_0_0.13" depart="178.00" departLane="np13_nt13_0" departPos="36.90" departSpeed="0.00" departDelay="0.73" arrival="414.00" arrivalLane="nt4_np5_0" arrivalPos="75.00" arrivalSpeed="12.59" duration="236.00" routeLength="1310.99" waitingTime="67.00" waitingCount="9" stopTime="0.00" timeLoss="114.32" rerouteNo="0" devices="tripinfo_f_0_0.13" vType="type1" speedFactor="0.75" vaporized=""/>
    <tripinfo id="f_0_0.14" depart="191.00" departLane="np13_nt13_0" departPos="21.55" departSpeed="0.00" departDelay="0.10" arrival="416.00" arrivalLane="nt4_np5_0" arrivalPos="75.00" arrivalSpeed="18.04" duration="225.00" routeLength="1326.34" waitingTime="68.00" waitingCount="7" stopTime="0.00" timeLoss="130.46" rerouteNo="0" devices="tripinfo_f_0_0.14" vType="type1" speedFactor="0.98" vaporized=""/>
    <tripinfo id="f_0_0.15" depart="205.00" departLane="np13_nt13_0" departPos="6.31" departSpeed="0.00" departDelay="0.46" arrival="417.00" arrivalLane="nt4_np5_0" arrivalPos="75.00" arrivalSpeed="17.36" duration="212.00" routeLength="1341.58" waitingTime="55.00" waitingCount="7" stopTime="0.00" timeLoss="114.88" rerouteNo="0" devices="tripinfo_f_0_0.15" vType="type1" speedFactor="0.96" vaporized=""/>
    <tripinfo id="f_0_1.7" depart="96.00" departLane="np16_nt1_0" departPos="34.83" departSpeed="0.00" departDelay="0.55" arrival="418.00" arrivalLane="nt16_np8_0" arrivalPos="75.00" arrivalSpeed="14.13" duration="322.00" routeLength="1313.05" waitingTime="111.00" waitingCount="11" stopTime="0.00" timeLoss="209.97" rerouteNo="0" devices="tripinfo_f_0_1.7" vType="type1" speedFactor="0.82" vaporized=""/>
    <tripinfo id="f_0_2.17" depart="140.00" departLane="np2_nt2_0" departPos="44.90" departSpeed="0.00" departDelay="0.91" arrival="418.00" arrivalLane="nt15_np10_0" arrivalPos="75.00" arrivalSpeed="7.82" duration="278.00" routeLength="906.18" waitingTime="115.00" waitingCount="13" stopTime="0.00" timeLoss="196.71" rerouteNo="0" devices="tripinfo_f_0_2.17" vType="type1" speedFactor="0.93" vaporized=""/>
    <tripinfo id="f_0_0.16" depart="219.00" departLane="np13_nt13_0" departPos="51.52" departSpeed="0.00" departDelay="0.82" arrival="419.00" arrivalLane="nt4_np5_0" arrivalPos="75.00" arrivalSpeed="20.23" duration="200.00" routeLength="1296.37" waitingTime="52.00" waitingCount="8" stopTime="0.00" timeLoss="111.22" rerouteNo="0" devices="tripinfo_f_0_0.16" vType="type1" speedFactor="1.02" vaporized=""/>
    <tripinfo id="f_0_0.17" depart="232.00" departLane="np13_nt13_0" departPos="42.08" departSpeed="0.00" departDelay="0.19" arrival="420.00" arrivalLane="nt4_np5_0" arrivalPos="75.00" arrivalSpeed="20.54" duration="188.00" routeLength="1305.81" waitingTime="51.00" waitingCount="8" stopTime="0.00" timeLoss="103.86" rerouteNo="0" devices="tripinfo_f_0_0.17" vType="type1" speedFactor="1.08" vaporized=""/>
    <tripinfo id="f_0_0.18" depart="246.00" departLane="np13_nt13_0" departPos="18.48" departSpeed="0.00" departDelay="0.55" arrival="423.00" arrivalLane="nt4_np5_0" arrivalPos="75.00" arrivalSpeed="15.78" duration="177.00" routeLength="1329.41" waitingTime="29.00" waitingCount="5" stopTime="0.00" timeLoss="72.07" rerouteNo="0" devices="tripinfo_f_0_0.18" vType="type1" speedFactor="0.88" vaporized=""/>
    <tripinfo id="f_0_2.18" depart="148.00" departLane="np2_nt2_0" departPos="24.57" departSpeed="0.00" departDelay="0.72" arrival="427.00" arrivalLane="nt15_np10_0" arrivalPos="75.00" arrivalSpeed="11.25" duration="279.00" routeLength="926.51" waitingTime="110.00" waitingCount="11" stopTime="0.00" timeLoss="203.85" rerouteNo="0" devices="tripinfo_f_0_2.18" vType="type1" speedFactor="1.04" vaporized=""/>
    <tripinfo id="f_0_3.18" depart="163.00" departLane="np3_nt3_0" departPos="0.00" departSpeed="0.00" departDelay="15.72" arrival="443.00" arrivalLane="nt14_np11_0" arrivalPos="75.00" arrivalSpeed="7.74" duration="280.00" routeLength="951.09" waitingTime="154.00" waitingCount="7" stopTime="0.00" timeLoss="193.56" rerouteNo="0" devices="tripinfo_f_0_3.18" vType="type1" speedFactor="0.93" vaporized=""/>
    <tripinfo id="f_0_3.20" depart="167.00" departLane="np3_nt3_0" departPos="13.11" departSpeed="0.00" departDelay="3.36" arrival="445.00" arrivalLane="nt14_np11_0" arrivalPos="75.00" arrivalSpeed="7.83" duration="278.00" routeLength="937.98" waitingTime="151.00" waitingCount="7" stopTime="0.00" timeLoss="192.22" rerouteNo="0" devices="tripinfo_f_0_3.20" vType="type1" speedFactor="0.93" vaporized=""/>
    <tripinfo id="f_0_3.19" depart="166.00" departLane="np3_nt3_0" departPos="0.00" departSpeed="0.00" departDelay="10.54" arrival="447.00" arrivalLane="nt14_np11_0" arrivalPos="75.00" arrivalSpeed="9.11" duration="281.00" routeLength="951.09" waitingTime="149.00" waitingCount="9" stopTime="0.00" timeLoss="200.61" rerouteNo="0" devices="tripinfo_f_0_3.19" vType="type1" speedFactor="0.99" vaporized=""/>
    <tripinfo id="f_0_1.8" depart="110.00" departLane="np16_nt1_0" departPos="22.00" departSpeed="0.00" departDelay="0.91" arrival="448.00" arrivalLane="nt16_np8_0" arrivalPos="75.00" arrivalSpeed="22.60" duration="338.00" routeLength="1325.88" waitingTime="140.00" waitingCount="16" stopTime="0.00" timeLoss="258.44" rerouteNo="0" devices="tripinfo_f_0_1.8" vType="type1" speedFactor="1.16" vaporized=""/>
    <tripinfo id="f_0_1.9" depart="123.00" departLane="np16_nt1_0" departPos="22.11" departSpeed="0.00" departDelay="0.28" arrival="450.00" arrivalLane="nt16_np8_0" arrivalPos="75.00" arrivalSpeed="16.22" duration="327.00" routeLength="1325.77" waitingTime="117.00" waitingCount="14" stopTime="0.00" timeLoss="219.12" rerouteNo="0" devices="tripinfo_f_0_1.9" vType="type1" speedFactor="0.85" vaporized=""/>
    <tripinfo id="f_0_1.10" depart="137.00" departLane="np16_nt1_0" departPos="32.16" departSpeed="0.00" departDelay="0.64" arrival="452.00" arrivalLane="nt16_np8_0" arrivalPos="75.00" arrivalSpeed="19.13" duration="315.00" routeLength="1315.72" waitingTime="107.00" waitingCount="14" stopTime="0.00" timeLoss="222.10" rerouteNo="0" devices="tripinfo_f_0_1.10" vType="type1" speedFactor="0.99" vaporized=""/>
    <tripinfo id="f_0_2.19" depart="156.00" departLane="np2_nt2_0" departPos="41.67" departSpeed="0.00" departDelay="0.54" arrival="462.00" arrivalLane="nt15_np10_0" arrivalPos="75.00" arrivalSpeed="11.25" duration="306.00" routeLength="909.41" waitingTime="130.00" waitingCount="14" stopTime="0.00" timeLoss="232.37" rerouteNo="0" devices="tripinfo_f_0_2.19" vType="type1" speedFactor="1.03" vaporized=""/>