<?xml version="1.0" encoding="UTF-8"?>

<!-- generated on 2023-08-23 16:41:39 by Eclipse SUMO libsumo Version 1.18.0
<configuration xmlns:xsi="http://www.w3.org/2001/XMLSchema-instance" xsi:noNamespaceSchemaLocation="http://sumo.dlr.de/xsd/libsumoConfiguration.xsd">

    <input>
        <net-file value="/home/stefan/RESCO/./environments/arterial4x4/arterial4x4.net.xml"/>
        <route-files value="/home/stefan/RESCO/./environments/arterial4x4/arterial4x4_63.rou.xml"/>
    </input>

    <output>
        <tripinfo-output value="/home/stefan/results/IDDQN-tr0-arterial4x4-0-drq_norm-wait_norm/tripinfo_63.xml"/>
        <tripinfo-output.write-unfinished value="true"/>
    </output>

    <processing>
        <time-to-teleport value="-1"/>
    </processing>

    <report>
        <no-warnings value="True"/>
        <no-step-log value="True"/>
    </report>

    <random_number>
        <random value="true"/>
    </random_number>

</configuration>
-->

<tripinfos xmlns:xsi="http://www.w3.org/2001/XMLSchema-instance" xsi:noNamespaceSchemaLocation="http://sumo.dlr.de/xsd/tripinfo_file.xsd">
    <tripinfo id="f_0_3.0" depart="0.00" departLane="np3_nt3_0" departPos="27.49" departSpeed="0.00" departDelay="0.00" arrival="156.00" arrivalLane="nt14_np11_0" arrivalPos="75.00" arrivalSpeed="9.56" duration="156.00" routeLength="923.60" waitingTime="52.00" waitingCount="3" stopTime="0.00" timeLoss="70.04" rerouteNo="0" devices="tripinfo_f_0_3.0" vType="type1" speedFactor="0.91" vaporized=""/>
    <tripinfo id="f_0_3.1" depart="9.00" departLane="np3_nt3_0" departPos="20.46" departSpeed="0.00" departDelay="0.82" arrival="158.00" arrivalLane="nt14_np11_0" arrivalPos="75.00" arrivalSpeed="10.50" duration="149.00" routeLength="930.63" waitingTime="39.00" waitingCount="4" stopTime="0.00" timeLoss="67.07" rerouteNo="0" devices="tripinfo_f_0_3.1" vType="type1" speedFactor="0.96" vaporized=""/>
    <tripinfo id="f_0_3.2" depart="17.00" departLane="np3_nt3_0" departPos="17.51" departSpeed="0.00" departDelay="0.64" arrival="168.00" arrivalLane="nt14_np11_0" arrivalPos="75.00" arrivalSpeed="7.84" duration="151.00" routeLength="933.58" waitingTime="33.00" waitingCount="4" stopTime="0.00" timeLoss="64.96" rerouteNo="0" devices="tripinfo_f_0_3.2" vType="type1" speedFactor="0.92" vaporized=""/>
    <tripinfo id="f_0_3.3" depart="25.00" departLane="np3_nt3_0" departPos="41.02" departSpeed="0.00" departDelay="0.45" arrival="170.00" arrivalLane="nt14_np11_0" arrivalPos="75.00" arrivalSpeed="11.21" duration="145.00" routeLength="910.07" waitingTime="34.00" waitingCount="6" stopTime="0.00" timeLoss="78.19" rerouteNo="0" devices="tripinfo_f_0_3.3" vType="type1" speedFactor="1.15" vaporized=""/>
    <tripinfo id="f_0_3.4" depart="33.00" departLane="np3_nt3_0" departPos="15.25" departSpeed="0.00" departDelay="0.27" arrival="172.00" arrivalLane="nt14_np11_0" arrivalPos="75.00" arrivalSpeed="9.49" duration="139.00" routeLength="935.84" waitingTime="26.00" waitingCount="6" stopTime="0.00" timeLoss="66.82" rerouteNo="0" devices="tripinfo_f_0_3.4" vType="type1" speedFactor="1.09" vaporized=""/>
    <tripinfo id="f_0_0.0" depart="0.00" departLane="np13_nt13_0" departPos="40.53" departSpeed="0.00" departDelay="0.00" arrival="173.00" arrivalLane="nt4_np5_0" arrivalPos="75.00" arrivalSpeed="20.31" duration="173.00" routeLength="1307.36" waitingTime="54.00" waitingCount="5" stopTime="0.00" timeLoss="84.38" rerouteNo="0" devices="tripinfo_f_0_0.0" vType="type1" speedFactor="1.03" vaporized=""/>
    <tripinfo id="f_0_3.5" depart="41.00" departLane="np3_nt3_0" departPos="16.95" departSpeed="0.00" departDelay="0.09" arrival="174.00" arrivalLane="nt14_np11_0" arrivalPos="75.00" arrivalSpeed="11.12" duration="133.00" routeLength="934.14" waitingTime="18.00" waitingCount="5" stopTime="0.00" timeLoss="60.48" rerouteNo="0" devices="tripinfo_f_0_3.5" vType="type1" speedFactor="1.08" vaporized=""/>
    <tripinfo id="f_0_0.1" depart="14.00" departLane="np13_nt13_0" departPos="20.84" departSpeed="0.00" departDelay="0.36" arrival="175.00" arrivalLane="nt4_np5_0" arrivalPos="75.00" arrivalSpeed="18.77" duration="161.00" routeLength="1327.05" waitingTime="35.00" waitingCount="3" stopTime="0.00" timeLoss="71.32" rerouteNo="0" devices="tripinfo_f_0_0.1" vType="type1" speedFactor="1.03" vaporized=""/>
    <tripinfo id="f_0_2.0" depart="0.00" departLane="np2_nt2_0" departPos="10.27" departSpeed="0.00" departDelay="0.00" arrival="178.00" arrivalLane="nt15_np10_0" arrivalPos="75.00" arrivalSpeed="7.89" duration="178.00" routeLength="940.81" waitingTime="65.00" waitingCount="5" stopTime="0.00" timeLoss="92.54" rerouteNo="0" devices="tripinfo_f_0_2.0" vType="type1" speedFactor="0.92" vaporized=""/>
    <tripinfo id="f_0_2.1" depart="9.00" departLane="np2_nt2_0" departPos="8.51" departSpeed="0.00" departDelay="0.82" arrival="180.00" arrivalLane="nt15_np10_0" arrivalPos="75.00" arrivalSpeed="9.59" duration="171.00" routeLength="942.57" waitingTime="60.00" waitingCount="4" stopTime="0.00" timeLoss="95.44" rerouteNo="0" devices="tripinfo_f_0_2.1" vType="type1" speedFactor="1.05" vaporized=""/>
    <tripinfo id="f_0_2.2" depart="17.00" departLane="np2_nt2_0" departPos="40.86" departSpeed="0.00" departDelay="0.64" arrival="182.00" arrivalLane="nt15_np10_0" arrivalPos="75.00" arrivalSpeed="11.45" duration="165.00" routeLength="910.22" waitingTime="56.00" waitingCount="5" stopTime="0.00" timeLoss="94.03" rerouteNo="0" devices="tripinfo_f_0_2.2" vType="type1" speedFactor="1.07" vaporized=""/>
    <tripinfo id="f_0_2.3" depart="25.00" departLane="np2_nt2_0" departPos="8.35" departSpeed="0.00" departDelay="0.45" arrival="185.00" arrivalLane="nt15_np10_0" arrivalPos="75.00" arrivalSpeed="9.13" duration="160.00" routeLength="942.73" waitingTime="46.00" waitingCount="3" stopTime="0.00" timeLoss="74.43" rerouteNo="0" devices="tripinfo_f_0_2.3" vType="type1" speedFactor="0.94" vaporized=""/>
    <tripinfo id="f_0_2.4" depart="33.00" departLane="np2_nt2_0" departPos="46.98" departSpeed="0.00" departDelay="0.27" arrival="187.00" arrivalLane="nt15_np10_0" arrivalPos="75.00" arrivalSpeed="11.32" duration="154.00" routeLength="904.10" waitingTime="57.00" waitingCount="3" stopTime="0.00" timeLoss="82.36" rerouteNo="0" devices="tripinfo_f_0_2.4" vType="type1" speedFactor="1.06" vaporized=""/>
    <tripinfo id="f_0_0.2" depart="28.00" departLane="np13_nt13_0" departPos="7.89" departSpeed="0.00" departDelay="0.73" arrival="198.00" arrivalLane="nt4_np5_0" arrivalPos="75.00" arrivalSpeed="19.88" duration="170.00" routeLength="1340.00" waitingTime="40.00" waitingCount="5" stopTime="0.00" timeLoss="78.32" rerouteNo="0" devices="tripinfo_f_0_0.2" vType="type1" speedFactor="1.01" vaporized=""/>
    <tripinfo id="f_0_1.0" depart="0.00" departLane="np16_nt1_0" departPos="10.71" departSpeed="0.00" departDelay="0.00" arrival="209.00" arrivalLane="nt16_np8_0" arrivalPos="75.00" arrivalSpeed="17.22" duration="209.00" routeLength="1337.17" waitingTime="74.00" waitingCount="5" stopTime="0.00" timeLoss="104.20" rerouteNo="0" devices="tripinfo_f_0_1.0" vType="type1" speedFactor="0.88" vaporized=""/>
    <tripinfo id="f_0_0.3" depart="41.00" departLane="np13_nt13_0" departPos="1.96" departSpeed="0.00" departDelay="0.09" arrival="223.00" arrivalLane="nt4_np5_0" arrivalPos="75.00" arrivalSpeed="20.86" duration="182.00" routeLength="1345.93" waitingTime="51.00" waitingCount="6" stopTime="0.00" timeLoss="95.14" rerouteNo="0" devices="tripinfo_f_0_0.3" vType="type1" speedFactor="1.07" vaporized=""/>
    <tripinfo id="f_0_0.4" depart="55.00" departLane="np13_nt13_0" departPos="53.61" departSpeed="0.00" departDelay="0.46" arrival="225.00" arrivalLane="nt4_np5_0" arrivalPos="75.00" arrivalSpeed="18.12" duration="170.00" routeLength="1294.28" waitingTime="41.00" waitingCount="6" stopTime="0.00" timeLoss="75.02" rerouteNo="0" devices="tripinfo_f_0_0.4" vType="type1" speedFactor="0.95" vaporized=""/>
    <tripinfo id="f_0_2.5" depart="41.00" departLane="np2_nt2_0" departPos="21.87" departSpeed="0.00" departDelay="0.09" arrival="241.00" arrivalLane="nt15_np10_0" arrivalPos="75.00" arrivalSpeed="10.79" duration="200.00" routeLength="929.21" waitingTime="86.00" waitingCount="7" stopTime="0.00" timeLoss="131.49" rerouteNo="0" devices="tripinfo_f_0_2.5" vType="type1" speedFactor="1.14" vaporized=""/>
    <tripinfo id="f_0_2.6" depart="50.00" departLane="np2_nt2_0" departPos="11.17" departSpeed="0.00" departDelay="0.91" arrival="243.00" arrivalLane="nt15_np10_0" arrivalPos="75.00" arrivalSpeed="10.37" duration="193.00" routeLength="939.91" waitingTime="82.00" waitingCount="7" stopTime="0.00" timeLoss="121.85" rerouteNo="0" devices="tripinfo_f_0_2.6" vType="type1" speedFactor="1.11" vaporized=""/>
    <tripinfo id="f_0_0.5" depart="69.00" departLane="np13_nt13_0" departPos="13.79" departSpeed="0.00" departDelay="0.82" arrival="243.00" arrivalLane="nt4_np5_0" arrivalPos="75.00" arrivalSpeed="20.33" duration="174.00" routeLength="1334.10" waitingTime="52.00" waitingCount="6" stopTime="0.00" timeLoss="90.54" rerouteNo="0" devices="tripinfo_f_0_0.5" vType="type1" speedFactor="1.11" vaporized=""/>
    <tripinfo id="f_0_3.6" depart="50.00" departLane="np3_nt3_0" departPos="49.37" departSpeed="0.00" departDelay="0.91" arrival="249.00" arrivalLane="nt14_np11_0" arrivalPos="75.00" arrivalSpeed="7.12" duration="199.00" routeLength="901.72" waitingTime="68.00" waitingCount="5" stopTime="0.00" timeLoss="111.12" rerouteNo="0" devices="tripinfo_f_0_3.6" vType="type1" speedFactor="0.86" vaporized=""/>
    <tripinfo id="f_0_2.7" depart="58.00" departLane="np2_nt2_0" departPos="8.55" departSpeed="0.00" departDelay="0.73" arrival="251.00" arrivalLane="nt15_np10_0" arrivalPos="75.00" arrivalSpeed="8.87" duration="193.00" routeLength="942.53" waitingTime="56.00" waitingCount="6" stopTime="0.00" timeLoss="97.70" rerouteNo="0" devices="tripinfo_f_0_2.7" vType="type1" speedFactor="0.83" vaporized=""/>
    <tripinfo id="f_0_3.7" depart="58.00" departLane="np3_nt3_0" departPos="38.39" departSpeed="0.00" departDelay="0.73" arrival="251.00" arrivalLane="nt14_np11_0" arrivalPos="75.00" arrivalSpeed="7.48" duration="193.00" routeLength="912.70" waitingTime="69.00" waitingCount="5" stopTime="0.00" timeLoss="105.14" rerouteNo="0" devices="tripinfo_f_0_3.7" vType="type1" speedFactor="0.87" vaporized=""/>
    <tripinfo id="f_0_3.8" depart="66.00" departLane="np3_nt3_0" departPos="43.26" departSpeed="0.00" departDelay="0.54" arrival="253.00" arrivalLane="nt14_np11_0" arrivalPos="75.00" arrivalSpeed="8.14" duration="187.00" routeLength="907.83" waitingTime="68.00" waitingCount="5" stopTime="0.00" timeLoss="107.98" rerouteNo="0" devices="tripinfo_f_0_3.8" vType="type1" speedFactor="0.96" vaporized=""/>
    <tripinfo id="f_0_3.9" depart="74.00" departLane="np3_nt3_0" departPos="37.59" departSpeed="0.00" departDelay="0.36" arrival="255.00" arrivalLane="nt14_np11_0" arrivalPos="75.00" arrivalSpeed="9.79" duration="181.00" routeLength="913.50" waitingTime="64.00" waitingCount="5" stopTime="0.00" timeLoss="105.38" rerouteNo="0" devices="tripinfo_f_0_3.9" vType="type1" speedFactor="1.01" vaporized=""/>
    <tripinfo id="f_0_2.8" depart="66.00" departLane="np2_nt2_0" departPos="27.54" departSpeed="0.00" departDelay="0.54" arrival="257.00" arrivalLane="nt15_np10_0" arrivalPos="75.00" arrivalSpeed="11.60" duration="191.00" routeLength="923.54" waitingTime="54.00" waitingCount="7" stopTime="0.00" timeLoss="117.98" rerouteNo="0" devices="tripinfo_f_0_2.8" vType="type1" speedFactor="1.06" vaporized=""/>
    <tripinfo id="f_0_1.1" depart="14.00" departLane="np16_nt1_0" departPos="49.61" departSpeed="0.00" departDelay="0.36" arrival="258.00" arrivalLane="nt16_np8_0" arrivalPos="75.00" arrivalSpeed="16.93" duration="244.00" routeLength="1298.27" waitingTime="95.00" waitingCount="7" stopTime="0.00" timeLoss="145.70" rerouteNo="0" devices="tripinfo_f_0_1.1" vType="type1" speedFactor="0.92" vaporized=""/>
    <tripinfo id="f_0_1.2" depart="28.00" departLane="np16_nt1_0" departPos="11.90" departSpeed="0.00" departDelay="0.73" arrival="266.00" arrivalLane="nt16_np8_0" arrivalPos="75.00" arrivalSpeed="20.31" duration="238.00" routeLength="1335.98" waitingTime="80.00" waitingCount="10" stopTime="0.00" timeLoss="152.84" rerouteNo="0" devices="tripinfo_f_0_1.2" vType="type1" speedFactor="1.10" vaporized=""/>
    <tripinfo id="f_0_1.3" depart="41.00" departLane="np16_nt1_0" departPos="25.09" departSpeed="0.00" departDelay="0.09" arrival="271.00" arrivalLane="nt16_np8_0" arrivalPos="75.00" arrivalSpeed="20.70" duration="230.00" routeLength="1322.79" waitingTime="66.00" waitingCount="10" stopTime="0.00" timeLoss="149.61" rerouteNo="0" devices="tripinfo_f_0_1.3" vType="type1" speedFactor="1.14" vaporized=""/>
    <tripinfo id="f_0_0.6" depart="82.00" departLane="np13_nt13_0" departPos="56.65" departSpeed="0.00" departDelay="0.18" arrival="273.00" arrivalLane="nt4_np5_0" arrivalPos="75.00" arrivalSpeed="18.48" duration="191.00" routeLength="1291.24" waitingTime="64.00" waitingCount="8" stopTime="0.00" timeLoss="105.27" rerouteNo="0" devices="tripinfo_f_0_0.6" vType="type1" speedFactor="1.05" vaporized=""/>
    <tripinfo id="f_0_1.4" depart="55.00" departLane="np16_nt1_0" departPos="35.81" departSpeed="0.00" departDelay="0.46" arrival="280.00" arrivalLane="nt16_np8_0" arrivalPos="75.00" arrivalSpeed="19.18" duration="225.00" routeLength="1312.07" waitingTime="60.00" waitingCount="11" stopTime="0.00" timeLoss="136.07" rerouteNo="0" devices="tripinfo_f_0_1.4" vType="type1" speedFactor="1.03" vaporized=""/>
    <tripinfo id="f_0_1.5" depart="69.00" departLane="np16_nt1_0" departPos="2.57" departSpeed="0.00" departDelay="0.82" arrival="281.00" arrivalLane="nt16_np8_0" arrivalPos="75.00" arrivalSpeed="21.37" duration="212.00" routeLength="1345.31" waitingTime="56.00" waitingCount="7" stopTime="0.00" timeLoss="126.04" rerouteNo="0" devices="tripinfo_f_0_1.5" vType="type1" speedFactor="1.08" vaporized=""/>
    <tripinfo id="f_0_3.10" depart="82.00" departLane="np3_nt3_0" departPos="5.76" departSpeed="0.00" departDelay="0.18" arrival="282.00" arrivalLane="nt14_np11_0" arrivalPos="75.00" arrivalSpeed="9.21" duration="200.00" routeLength="945.33" waitingTime="87.00" waitingCount="5" stopTime="0.00" timeLoss="122.96" rerouteNo="0" devices="tripinfo_f_0_3.10" vType="type1" speedFactor="1.03" vaporized=""/>
    <tripinfo id="f_0_0.7" depart="96.00" departLane="np13_nt13_0" departPos="40.79" departSpeed="0.00" departDelay="0.55" arrival="283.00" arrivalLane="nt4_np5_0" arrivalPos="75.00" arrivalSpeed="21.27" duration="187.00" routeLength="1307.10" waitingTime="68.00" waitingCount="7" stopTime="0.00" timeLoss="107.35" rerouteNo="0" devices="tripinfo_f_0_0.7" vType="type1" speedFactor="1.15" vaporized=""/>
    <tripinfo id="f_0_3.11" depart="90.00" departLane="np3_nt3_0" departPos="49.37" departSpeed="0.00" departDelay="0.00" arrival="286.00" arrivalLane="nt14_np11_0" arrivalPos="75.00" arrivalSpeed="7.35" duration="196.00" routeLength="901.72" waitingTime="67.00" waitingCount="6" stopTime="0.00" timeLoss="108.66" rerouteNo="0" devices="tripinfo_f_0_3.11" vType="type1" speedFactor="0.86" vaporized=""/>
    <tripinfo id="f_0_0.8" depart="110.00" departLane="np13_nt13_0" departPos="18.38" departSpeed="0.00" departDelay="0.91" arrival="286.00" arrivalLane="nt4_np5_0" arrivalPos="75.00" arrivalSpeed="14.00" duration="176.00" routeLength="1329.51" waitingTime="24.00" waitingCount="3" stopTime="0.00" timeLoss="62.21" rerouteNo="0" devices="tripinfo_f_0_0.8" vType="type1" speedFactor="0.81" vaporized=""/>
    <tripinfo id="f_0_0.9" depart="123.00" departLane="np13_nt13_0" departPos="66.89" departSpeed="0.00" departDelay="0.28" arrival="287.00" arrivalLane="nt4_np5_0" arrivalPos="75.00" arrivalSpeed="17.53" duration="164.00" routeLength="1281.00" waitingTime="37.00" waitingCount="5" stopTime="0.00" timeLoss="80.25" rerouteNo="0" devices="tripinfo_f_0_0.9" vType="type1" speedFactor="1.07" vaporized=""/>
    <tripinfo id="f_0_3.12" depart="99.00" departLane="np3_nt3_0" departPos="9.60" departSpeed="0.00" departDelay="0.82" arrival="288.00" arrivalLane="nt14_np11_0" arrivalPos="75.00" arrivalSpeed="10.59" duration="189.00" routeLength="941.49" waitingTime="53.00" waitingCount="6" stopTime="0.00" timeLoss="112.23" rerouteNo="0" devices="tripinfo_f_0_3.12" vType="type1" speedFactor="1.04" vaporized=""/>
    <tripinfo id="f_0_3.13" depart="107.00" departLane="np3_nt3_0" departPos="20.88" departSpeed="0.00" departDelay="0.63" arrival="290.00" arrivalLane="nt14_np11_0" arrivalPos="75.00" arrivalSpeed="8.88" duration="183.00" routeLength="930.21" waitingTime="61.00" waitingCount="6" stopTime="0.00" timeLoss="105.50" rerouteNo="0" devices="tripinfo_f_0_3.13" vType="type1" speedFactor="1.00" vaporized=""/>
    <tripinfo id="f_0_2.9" depart="74.00" departLane="np2_nt2_0" departPos="55.18" departSpeed="0.00" departDelay="0.36" arrival="296.00" arrivalLane="nt15_np10_0" arrivalPos="75.00" arrivalSpeed="11.62" duration="222.00" routeLength="895.90" waitingTime="78.00" waitingCount="8" stopTime="0.00" timeLoss="156.34" rerouteNo="0" devices="tripinfo_f_0_2.9" vType="type1" speedFactor="1.14" vaporized=""/>
    <tripinfo id="f_0_3.14" depart="115.00" departLane="np3_nt3_0" departPos="45.21" departSpeed="0.00" departDelay="0.45" arrival="297.00" arrivalLane="nt14_np11_0" arrivalPos="75.00" arrivalSpeed="10.55" duration="182.00" routeLength="905.88" waitingTime="67.00" waitingCount="6" stopTime="0.00" timeLoss="105.10" rerouteNo="0" devices="tripinfo_f_0_3.14" vType="type1" speedFactor="0.98" vaporized=""/>
    <tripinfo id="f_0_3.15" depart="123.00" departLane="np3_nt3_0" departPos="28.92" departSpeed="0.00" departDelay="0.27" arrival="299.00" arrivalLane="nt14_np11_0" arrivalPos="75.00" arrivalSpeed="10.98" duration="176.00" routeLength="922.17" waitingTime="66.00" waitingCount="6" stopTime="0.00" timeLoss="107.31" rerouteNo="0" devices="tripinfo_f_0_3.15" vType="type1" speedFactor="1.13" vaporized=""/>
    <tripinfo id="f_0_2.10" depart="82.00" departLane="np2_nt2_0" departPos="19.24" departSpeed="0.00" departDelay="0.18" arrival="300.00" arrivalLane="nt15_np10_0" arrivalPos="75.00" arrivalSpeed="10.77" duration="218.00" routeLength="931.84" waitingTime="70.00" waitingCount="11" stopTime="0.00" timeLoss="139.11" rerouteNo="0" devices="tripinfo_f_0_2.10" vType="type1" speedFactor="1.00" vaporized=""/>
    <tripinfo id="f_0_3.16" depart="131.00" departLane="np3_nt3_0" departPos="42.43" departSpeed="0.00" departDelay="0.09" arrival="303.00" arrivalLane="nt14_np11_0" arrivalPos="75.00" arrivalSpeed="8.79" duration="172.00" routeLength="908.66" waitingTime="45.00" waitingCount="5" stopTime="0.00" timeLoss="84.59" rerouteNo="0" devices="tripinfo_f_0_3.16" vType="type1" speedFactor="0.87" vaporized=""/>
    <tripinfo id="f_0_3.17" depart="140.00" departLane="np3_nt3_0" departPos="12.55" departSpeed="0.00" departDelay="0.91" arrival="305.00" arrivalLane="nt14_np11_0" arrivalPos="75.00" arrivalSpeed="10.68" duration="165.00" routeLength="938.54" waitingTime="45.00" waitingCount="7" stopTime="0.00" timeLoss="87.25" rerouteNo="0" devices="tripinfo_f_0_3.17" vType="type1" speedFactor="1.02" vaporized=""/>
    <tripinfo id="f_0_0.10" depart="137.00" departLane="np13_nt13_0" departPos="48.70" departSpeed="0.00" departDelay="0.64" arrival="308.00" arrivalLane="nt4_np5_0" arrivalPos="75.00" arrivalSpeed="18.50" duration="171.00" routeLength="1299.19" waitingTime="50.00" waitingCount="3" stopTime="0.00" timeLoss="79.89" rerouteNo="0" devices="tripinfo_f_0_0.10" vType="type1" speedFactor="0.99" vaporized=""/>
    <tripinfo id="f_0_1.6" depart="82.00" departLane="np16_nt1_0" departPos="39.89" departSpeed="0.00" departDelay="0.18" arrival="310.00" arrivalLane="nt16_np8_0" arrivalPos="75.00" arrivalSpeed="17.66" duration="228.00" routeLength="1307.99" waitingTime="57.00" waitingCount="9" stopTime="0.00" timeLoss="136.70" rerouteNo="0" devices="tripinfo_f_0_1.6" vType="type1" speedFactor="1.01" vaporized=""/>
    <tripinfo id="f_0_2.11" depart="90.00" departLane="np2_nt2_0" departPos="36.15" departSpeed="0.00" departDelay="0.00" arrival="310.00" arrivalLane="nt15_np10_0" arrivalPos="75.00" arrivalSpeed="8.38" duration="220.00" routeLength="914.93" waitingTime="57.00" waitingCount="9" stopTime="0.00" timeLoss="129.33" rerouteNo="0" devices="tripinfo_f_0_2.11" vType="type1" speedFactor="0.85" vaporized=""/>
    <tripinfo id="f_0_0.11" depart="150.00" departLane="np13_nt13_0" departPos="9.10" departSpeed="0.00" departDelay="0.00" arrival="310.00" arrivalLane="nt4_np5_0" arrivalPos="75.00" arrivalSpeed="19.86" duration="160.00" routeLength="1338.79" waitingTime="33.00" waitingCount="3" stopTime="0.00" timeLoss="75.77" rerouteNo="0" devices="tripinfo_f_0_0.11" vType="type1" speedFactor="1.10" vaporized=""/>
    <tripinfo id="f_0_2.12" depart="99.00" departLane="np2_nt2_0" departPos="24.85" departSpeed="0.00" departDelay="0.82" arrival="312.00" arrivalLane="nt15_np10_0" arrivalPos="75.00" arrivalSpeed="9.26" duration="213.00" routeLength="926.23" waitingTime="53.00" waitingCount="8" stopTime="0.00" timeLoss="129.55" rerouteNo="0" devices="tripinfo_f_0_2.12" vType="type1" speedFactor="0.94" vaporized=""/>
    <tripinfo id="f_0_1.7" depart="96.00" departLane="np16_nt1_0" departPos="60.70" departSpeed="0.00" departDelay="0.55" arrival="313.00" arrivalLane="nt16_np8_0" arrivalPos="75.00" arrivalSpeed="18.42" duration="217.00" routeLength="1287.18" waitingTime="46.00" waitingCount="7" stopTime="0.00" timeLoss="122.62" rerouteNo="0" devices="tripinfo_f_0_1.7" vType="type1" speedFactor="0.96" vaporized=""/>
    <tripinfo id="f_0_2.13" depart="107.00" departLane="np2_nt2_0" departPos="41.35" departSpeed="0.00" departDelay="0.63" arrival="313.00" arrivalLane="nt15_np10_0" arrivalPos="75.00" arrivalSpeed="10.37" duration="206.00" routeLength="909.73" waitingTime="44.00" waitingCount="7" stopTime="0.00" timeLoss="130.77" rerouteNo="0" devices="tripinfo_f_0_2.13" vType="type1" speedFactor="1.01" vaporized=""/>
    <tripinfo id="f_0_3.18" depart="148.00" departLane="np3_nt3_0" departPos="21.72" departSpeed="0.00" departDelay="0.72" arrival="313.00" arrivalLane="nt14_np11_0" arrivalPos="75.00" arrivalSpeed="8.48" duration="165.00" routeLength="929.37" waitingTime="36.00" waitingCount="6" stopTime="0.00" timeLoss="78.96" rerouteNo="0" devices="tripinfo_f_0_3.18" vType="type1" speedFactor="0.91" vaporized=""/>
    <tripinfo id="f_0_3.19" depart="156.00" departLane="np3_nt3_0" departPos="46.00" departSpeed="0.00" departDelay="0.54" arrival="315.00" arrivalLane="nt14_np11_0" arrivalPos="75.00" arrivalSpeed="10.83" duration="159.00" routeLength="905.09" waitingTime="44.00" waitingCount="6" stopTime="0.00" timeLoss="88.75" rerouteNo="0" devices="tripinfo_f_0_3.19" vType="type1" speedFactor="1.08" vaporized=""/>
    <tripinfo id="f_0_0.12" depart="164.00" departLane="np13_nt13_0" departPos="24.55" departSpeed="0.00" departDelay="0.37" arrival="323.00" arrivalLane="nt4_np5_0" arrivalPos="75.00" arrivalSpeed="18.65" duration="159.00" routeLength="1323.34" waitingTime="33.00" waitingCount="3" stopTime="0.00" timeLoss="64.23" rerouteNo="0" devices="tripinfo_f_0_0.12" vType="type1" speedFactor="0.97" vaporized=""/>
    <tripinfo id="f_0_2.14" depart="115.00" departLane="np2_nt2_0" departPos="28.89" departSpeed="0.00" departDelay="0.45" arrival="325.00" arrivalLane="nt15_np10_0" arrivalPos="75.00" arrivalSpeed="8.52" duration="210.00" routeLength="922.19" waitingTime="44.00" waitingCount="8" stopTime="0.00" timeLoss="128.90" rerouteNo="0" devices="tripinfo_f_0_2.14" vType="type1" speedFactor="0.95" vaporized=""/>
    <tripinfo id="f_0_0.13" depart="178.00" departLane="np13_nt13_0" departPos="0.12" departSpeed="0.00" departDelay="0.73" arrival="325.00" arrivalLane="nt4_np5_0" arrivalPos="75.00" arrivalSpeed="17.53" duration="147.00" routeLength="1347.77" waitingTime="21.00" waitingCount="3" stopTime="0.00" timeLoss="46.88" rerouteNo="0" devices="tripinfo_f_0_0.13" vType="type1" speedFactor="0.93" vaporized=""/>
    <tripinfo id="f_0_2.15" depart="123.00" departLane="np2_nt2_0" departPos="29.81" departSpeed="0.00" departDelay="0.27" arrival="327.00" arrivalLane="nt15_np10_0" arrivalPos="75.00" arrivalSpeed="10.47" duration="204.00" routeLength="921.27" waitingTime="38.00" waitingCount="8" stopTime="0.00" timeLoss="127.98" rerouteNo="0" devices="tripinfo_f_0_2.15" vType="type1" speedFactor="1.02" vaporized=""/>
    <tripinfo id="f_0_1.8" depart="110.00" departLane="np16_nt1_0" departPos="42.33" departSpeed="0.00" departDelay="0.91" arrival="329.00" arrivalLane="nt16_np8_0" arrivalPos="75.00" arrivalSpeed="15.65" duration="219.00" routeLength="1305.55" waitingTime="43.00" waitingCount="8" stopTime="0.00" timeLoss="104.83" rerouteNo="0" devices="tripinfo_f_0_1.8" vType="type1" speedFactor="0.80" vaporized=""/>
    <tripinfo id="f_0_3.20" depart="164.00" departLane="np3_nt3_0" departPos="5.37" departSpeed="0.00" departDelay="0.36" arrival="333.00" arrivalLane="nt14_np11_0" arrivalPos="75.00" arrivalSpeed="8.60" duration="169.00" routeLength="945.72" waitingTime="51.00" waitingCount="6" stopTime="0.00" timeLoss="83.89" rerouteNo="0" devices="tripinfo_f_0_3.20" vType="type1" speedFactor="0.94" vaporized=""/>
    <tripinfo id="f_0_3.21" depart="172.00" departLane="np3_nt3_0" departPos="14.29" departSpeed="0.00" departDelay="0.18" arrival="335.00" arrivalLane="nt14_np11_0" arrivalPos="75.00" arrivalSpeed="10.83" duration="163.00" routeLength="936.80" waitingTime="45.00" waitingCount="5" stopTime="0.00" timeLoss="90.68" rerouteNo="0" devices="tripinfo_f_0_3.21" vType="type1" speedFactor="1.09" vaporized=""/>
    <tripinfo id="f_0_2.16" depart="131.00" departLane="np2_nt2_0" departPos="18.86" departSpeed="0.00" departDelay="0.09" arrival="337.00" arrivalLane="nt15_np10_0" arrivalPos="75.00" arrivalSpeed="11.21" duration="206.00" routeLength="932.22" waitingTime="42.00" waitingCount="8" stopTime="0.00" timeLoss="131.72" rerouteNo="0" devices="tripinfo_f_0_2.16" vType="type1" speedFactor="1.06" vaporized=""/>
    <tripinfo id="f_0_2.17" depart="140.00" departLane="np2_nt2_0" departPos="9.03" departSpeed="0.00" departDelay="0.91" arrival="338.00" arrivalLane="nt15_np10_0" arrivalPos="75.00" arrivalSpeed="11.81" duration="198.00" routeLength="942.05" waitingTime="33.00" waitingCount="9" stopTime="0.00" timeLoss="127.20" rerouteNo="0" devices="tripinfo_f_0_2.17" vType="type1" speedFactor="1.11" vaporized=""/>
    <tripinfo id="f_0_1.9" depart="123.00" departLane="np16_nt1_0" departPos="32.67" departSpeed="0.00" departDelay="0.28" arrival="339.00" arrivalLane="nt16_np8_0" arrivalPos="75.00" arrivalSpeed="15.92" duration="216.00" routeLength="1315.21" waitingTime="36.00" waitingCount="8" stopTime="0.00" timeLoss="115.95" rerouteNo="0" devices="tripinfo_f_0_1.9" vType="type1" speedFactor="0.92" vaporized=""/>
    <tripinfo id="f_0_1.10" depart="137.00" departLane="np16_nt1_0" departPos="13.34" departSpeed="0.00" departDelay="0.64" arrival="340.00" arrivalLane="nt16_np8_0" arrivalPos="75.00" arrivalSpeed="18.92" duration="203.00" routeLength="1334.54" waitingTime="22.00" waitingCount="6" stopTime="0.00" timeLoss="105.51" rerouteNo="0" devices="tripinfo_f_0_1.10" vType="type1" speedFactor="0.95" vaporized=""/>
    <tripinfo id="f_0_3.22" depart="180.00" departLane="np3_nt3_0" departPos="26.80" departSpeed="0.00" departDelay="0.00" arrival="342.00" arrivalLane="nt14_np11_0" arrivalPos="75.00" arrivalSpeed="10.32" duration="162.00" routeLength="924.29" waitingTime="43.00" waitingCount="7" stopTime="0.00" timeLoss="86.05" rerouteNo="0" devices="tripinfo_f_0_3.22" vType="type1" speedFactor="1.02" vaporized=""/>
    <tripinfo id="f_0_2.18" depart="148.00" departLane="np2_nt2_0" departPos="3.87" departSpeed="0.00" departDelay="0.72" arrival="343.00" arrivalLane="nt15_np10_0" arrivalPos="75.00" arrivalSpeed="9.38" duration="195.00" routeLength="947.21" waitingTime="26.00" waitingCount="7" stopTime="0.00" timeLoss="104.73" rerouteNo="0" devices="tripinfo_f_0_2.18" vType="type1" speedFactor="0.89" vaporized=""/>
    <tripinfo id="f_0_3.23" depart="189.00" departLane="np3_nt3_0" departPos="28.94" departSpeed="0.00" departDelay="0.81" arrival="344.00" arrivalLane="nt14_np11_0" arrivalPos="75.00" arrivalSpeed="10.51" duration="155.00" routeLength="922.15" waitingTime="55.00" waitingCount="6" stopTime="0.00" timeLoss="89.39" rerouteNo="0" devices="tripinfo_f_0_3.23" vType="type1" speedFactor="1.18" vaporized=""/>
    <tripinfo id="f_0_2.19" depart="156.00" departLane="np2_nt2_0" departPos="33.14" departSpeed="0.00" departDelay="0.54" arrival="345.00" arrivalLane="nt15_np10_0" arrivalPos="75.00" arrivalSpeed="9.56" duration="189.00" routeLength="917.94" waitingTime="28.00" waitingCount="7" stopTime="0.00" timeLoss="106.83" rerouteNo="0" devices="tripinfo_f_0_2.19" vType="type1" speedFactor="0.95" vaporized=""/>
    <tripinfo id="f_0_0.14" depart="191.00" departLane="np13_nt13_0" departPos="18.13" departSpeed="0.00" departDelay="0.10" arrival="358.00" arrivalLane="nt4_np5_0" arrivalPos="75.00" arrivalSpeed="19.28" duration="167.00" routeLength="1329.76" waitingTime="46.00" waitingCount="5" stopTime="0.00" timeLoss="77.22" rerouteNo="0" devices="tripinfo_f_0_0.14" vType="type1" speedFactor="1.02" vaporized=""/>
    <tripinfo id="f_0_2.20" depart="164.00" departLane="np2_nt2_0" departPos="44.65" departSpeed="0.00" departDelay="0.36" arrival="359.00" arrivalLane="nt15_np10_0" arrivalPos="75.00" arrivalSpeed="9.75" duration="195.00" routeLength="906.43" waitingTime="39.00" waitingCount="8" stopTime="0.00" timeLoss="109.79" rerouteNo="0" devices="tripinfo_f_0_2.20" vType="type1" speedFactor="0.90" vaporized=""/>