<?xml version="1.0" encoding="UTF-8"?>

<!-- generated on 2023-08-23 16:29:11 by Eclipse SUMO libsumo Version 1.18.0
<configuration xmlns:xsi="http://www.w3.org/2001/XMLSchema-instance" xsi:noNamespaceSchemaLocation="http://sumo.dlr.de/xsd/libsumoConfiguration.xsd">

    <input>
        <net-file value="/home/stefan/RESCO/./environments/arterial4x4/arterial4x4.net.xml"/>
        <route-files value="/home/stefan/RESCO/./environments/arterial4x4/arterial4x4_48.rou.xml"/>
    </input>

    <output>
        <tripinfo-output value="/home/stefan/results/IDDQN-tr0-arterial4x4-0-drq_norm-wait_norm/tripinfo_48.xml"/>
        <tripinfo-output.write-unfinished value="true"/>
    </output>

    <processing>
        <time-to-teleport value="-1"/>
    </processing>

    <report>
        <no-warnings value="True"/>
        <no-step-log value="True"/>
    </report>

    <random_number>
        <random value="true"/>
    </random_number>

</configuration>
-->

<tripinfos xmlns:xsi="http://www.w3.org/2001/XMLSchema-instance" xsi:noNamespaceSchemaLocation="http://sumo.dlr.de/xsd/tripinfo_file.xsd">
    <tripinfo id="f_0_0.0" depart="0.00" departLane="np13_nt13_0" departPos="23.34" departSpeed="0.00" departDelay="0.00" arrival="132.00" arrivalLane="nt4_np5_0" arrivalPos="75.00" arrivalSpeed="19.07" duration="132.00" routeLength="1324.55" waitingTime="13.00" waitingCount="3" stopTime="0.00" timeLoss="38.10" rerouteNo="0" devices="tripinfo_f_0_0.0" vType="type1" speedFactor="0.99" vaporized=""/>
    <tripinfo id="f_0_1.0" depart="0.00" departLane="np16_nt1_0" departPos="64.69" departSpeed="0.00" departDelay="0.00" arrival="139.00" arrivalLane="nt16_np8_0" arrivalPos="75.00" arrivalSpeed="17.58" duration="139.00" routeLength="1283.19" waitingTime="15.00" waitingCount="3" stopTime="0.00" timeLoss="40.00" rerouteNo="0" devices="tripinfo_f_0_1.0" vType="type1" speedFactor="0.91" vaporized=""/>
    <tripinfo id="f_0_3.0" depart="0.00" departLane="np3_nt3_0" departPos="17.21" departSpeed="0.00" departDelay="0.00" arrival="158.00" arrivalLane="nt14_np11_0" arrivalPos="75.00" arrivalSpeed="7.69" duration="158.00" routeLength="933.88" waitingTime="51.00" waitingCount="3" stopTime="0.00" timeLoss="71.03" rerouteNo="0" devices="tripinfo_f_0_3.0" vType="type1" speedFactor="0.90" vaporized=""/>
    <tripinfo id="f_0_3.1" depart="9.00" departLane="np3_nt3_0" departPos="22.18" departSpeed="0.00" departDelay="0.82" arrival="160.00" arrivalLane="nt14_np11_0" arrivalPos="75.00" arrivalSpeed="8.76" duration="151.00" routeLength="928.91" waitingTime="37.00" waitingCount="4" stopTime="0.00" timeLoss="66.55" rerouteNo="0" devices="tripinfo_f_0_3.1" vType="type1" speedFactor="0.92" vaporized=""/>
    <tripinfo id="f_0_2.0" depart="0.00" departLane="np2_nt2_0" departPos="14.86" departSpeed="0.00" departDelay="0.00" arrival="161.00" arrivalLane="nt15_np10_0" arrivalPos="75.00" arrivalSpeed="11.46" duration="161.00" routeLength="936.22" waitingTime="72.00" waitingCount="3" stopTime="0.00" timeLoss="90.07" rerouteNo="0" devices="tripinfo_f_0_2.0" vType="type1" speedFactor="1.10" vaporized=""/>
    <tripinfo id="f_0_2.1" depart="9.00" departLane="np2_nt2_0" departPos="38.08" departSpeed="0.00" departDelay="0.82" arrival="165.00" arrivalLane="nt15_np10_0" arrivalPos="75.00" arrivalSpeed="8.36" duration="156.00" routeLength="913.00" waitingTime="50.00" waitingCount="3" stopTime="0.00" timeLoss="71.18" rerouteNo="0" devices="tripinfo_f_0_2.1" vType="type1" speedFactor="0.91" vaporized=""/>
    <tripinfo id="f_0_2.2" depart="17.00" departLane="np2_nt2_0" departPos="14.59" departSpeed="0.00" departDelay="0.64" arrival="167.00" arrivalLane="nt15_np10_0" arrivalPos="75.00" arrivalSpeed="8.97" duration="150.00" routeLength="936.49" waitingTime="36.00" waitingCount="4" stopTime="0.00" timeLoss="73.18" rerouteNo="0" devices="tripinfo_f_0_2.2" vType="type1" speedFactor="1.03" vaporized=""/>
    <tripinfo id="f_0_3.2" depart="17.00" departLane="np3_nt3_0" departPos="18.01" departSpeed="0.00" departDelay="0.64" arrival="167.00" arrivalLane="nt14_np11_0" arrivalPos="75.00" arrivalSpeed="10.70" duration="150.00" routeLength="933.08" waitingTime="40.00" waitingCount="5" stopTime="0.00" timeLoss="73.45" rerouteNo="0" devices="tripinfo_f_0_3.2" vType="type1" speedFactor="1.03" vaporized=""/>
    <tripinfo id="f_0_3.3" depart="25.00" departLane="np3_nt3_0" departPos="45.91" departSpeed="0.00" departDelay="0.45" arrival="169.00" arrivalLane="nt14_np11_0" arrivalPos="75.00" arrivalSpeed="10.47" duration="144.00" routeLength="905.18" waitingTime="38.00" waitingCount="5" stopTime="0.00" timeLoss="70.78" rerouteNo="0" devices="tripinfo_f_0_3.3" vType="type1" speedFactor="1.04" vaporized=""/>
    <tripinfo id="f_0_3.4" depart="33.00" departLane="np3_nt3_0" departPos="36.21" departSpeed="0.00" departDelay="0.27" arrival="171.00" arrivalLane="nt14_np11_0" arrivalPos="75.00" arrivalSpeed="10.64" duration="138.00" routeLength="914.88" waitingTime="29.00" waitingCount="4" stopTime="0.00" timeLoss="63.53" rerouteNo="0" devices="tripinfo_f_0_3.4" vType="type1" speedFactor="1.04" vaporized=""/>
    <tripinfo id="f_0_3.5" depart="41.00" departLane="np3_nt3_0" departPos="2.46" departSpeed="0.00" departDelay="0.09" arrival="173.00" arrivalLane="nt14_np11_0" arrivalPos="75.00" arrivalSpeed="11.16" duration="132.00" routeLength="948.63" waitingTime="20.00" waitingCount="5" stopTime="0.00" timeLoss="58.02" rerouteNo="0" devices="tripinfo_f_0_3.5" vType="type1" speedFactor="1.08" vaporized=""/>
    <tripinfo id="f_0_0.1" depart="14.00" departLane="np13_nt13_0" departPos="11.44" departSpeed="0.00" departDelay="0.36" arrival="174.00" arrivalLane="nt4_np5_0" arrivalPos="75.00" arrivalSpeed="21.33" duration="160.00" routeLength="1336.45" waitingTime="49.00" waitingCount="3" stopTime="0.00" timeLoss="74.84" rerouteNo="0" devices="tripinfo_f_0_0.1" vType="type1" speedFactor="1.09" vaporized=""/>
    <tripinfo id="f_0_3.6" depart="50.00" departLane="np3_nt3_0" departPos="50.80" departSpeed="0.00" departDelay="0.91" arrival="175.00" arrivalLane="nt14_np11_0" arrivalPos="75.00" arrivalSpeed="10.55" duration="125.00" routeLength="900.29" waitingTime="19.00" waitingCount="4" stopTime="0.00" timeLoss="54.56" rerouteNo="0" devices="tripinfo_f_0_3.6" vType="type1" speedFactor="1.07" vaporized=""/>
    <tripinfo id="f_0_3.7" depart="58.00" departLane="np3_nt3_0" departPos="35.01" departSpeed="0.00" departDelay="0.73" arrival="177.00" arrivalLane="nt14_np11_0" arrivalPos="75.00" arrivalSpeed="10.61" duration="119.00" routeLength="916.08" waitingTime="10.00" waitingCount="4" stopTime="0.00" timeLoss="42.21" rerouteNo="0" devices="tripinfo_f_0_3.7" vType="type1" speedFactor="1.00" vaporized=""/>
    <tripinfo id="f_0_2.3" depart="25.00" departLane="np2_nt2_0" departPos="9.50" departSpeed="0.00" departDelay="0.45" arrival="192.00" arrivalLane="nt15_np10_0" arrivalPos="75.00" arrivalSpeed="11.43" duration="167.00" routeLength="941.58" waitingTime="34.00" waitingCount="7" stopTime="0.00" timeLoss="93.88" rerouteNo="0" devices="tripinfo_f_0_2.3" vType="type1" speedFactor="1.09" vaporized=""/>
    <tripinfo id="f_0_3.8" depart="66.00" departLane="np3_nt3_0" departPos="13.07" departSpeed="0.00" departDelay="0.54" arrival="193.00" arrivalLane="nt14_np11_0" arrivalPos="75.00" arrivalSpeed="9.66" duration="127.00" routeLength="938.02" waitingTime="22.00" waitingCount="4" stopTime="0.00" timeLoss="44.99" rerouteNo="0" devices="tripinfo_f_0_3.8" vType="type1" speedFactor="0.96" vaporized=""/>
    <tripinfo id="f_0_0.2" depart="28.00" departLane="np13_nt13_0" departPos="59.37" departSpeed="0.00" departDelay="0.73" arrival="194.00" arrivalLane="nt4_np5_0" arrivalPos="75.00" arrivalSpeed="16.88" duration="166.00" routeLength="1288.52" waitingTime="40.00" waitingCount="4" stopTime="0.00" timeLoss="67.88" rerouteNo="0" devices="tripinfo_f_0_0.2" vType="type1" speedFactor="0.92" vaporized=""/>
    <tripinfo id="f_0_2.4" depart="33.00" departLane="np2_nt2_0" departPos="14.65" departSpeed="0.00" departDelay="0.27" arrival="195.00" arrivalLane="nt15_np10_0" arrivalPos="75.00" arrivalSpeed="8.10" duration="162.00" routeLength="936.43" waitingTime="26.00" waitingCount="6" stopTime="0.00" timeLoss="78.28" rerouteNo="0" devices="tripinfo_f_0_2.4" vType="type1" speedFactor="0.94" vaporized=""/>
    <tripinfo id="f_0_0.3" depart="41.00" departLane="np13_nt13_0" departPos="42.61" departSpeed="0.00" departDelay="0.09" arrival="208.00" arrivalLane="nt4_np5_0" arrivalPos="75.00" arrivalSpeed="16.27" duration="167.00" routeLength="1305.28" waitingTime="30.00" waitingCount="6" stopTime="0.00" timeLoss="63.53" rerouteNo="0" devices="tripinfo_f_0_0.3" vType="type1" speedFactor="0.88" vaporized=""/>
    <tripinfo id="f_0_1.1" depart="14.00" departLane="np16_nt1_0" departPos="44.22" departSpeed="0.00" departDelay="0.36" arrival="209.00" arrivalLane="nt16_np8_0" arrivalPos="75.00" arrivalSpeed="15.06" duration="195.00" routeLength="1303.66" waitingTime="50.00" waitingCount="6" stopTime="0.00" timeLoss="87.80" rerouteNo="0" devices="tripinfo_f_0_1.1" vType="type1" speedFactor="0.85" vaporized=""/>
    <tripinfo id="f_0_0.4" depart="55.00" departLane="np13_nt13_0" departPos="5.18" departSpeed="0.00" departDelay="0.46" arrival="209.00" arrivalLane="nt4_np5_0" arrivalPos="75.00" arrivalSpeed="18.14" duration="154.00" routeLength="1342.71" waitingTime="28.00" waitingCount="5" stopTime="0.00" timeLoss="65.65" rerouteNo="0" devices="tripinfo_f_0_0.4" vType="type1" speedFactor="1.05" vaporized=""/>
    <tripinfo id="f_0_0.5" depart="69.00" departLane="np13_nt13_0" departPos="10.25" departSpeed="0.00" departDelay="0.82" arrival="211.00" arrivalLane="nt4_np5_0" arrivalPos="75.00" arrivalSpeed="17.76" duration="142.00" routeLength="1337.64" waitingTime="16.00" waitingCount="2" stopTime="0.00" timeLoss="45.54" rerouteNo="0" devices="tripinfo_f_0_0.5" vType="type1" speedFactor="0.96" vaporized=""/>
    <tripinfo id="f_0_2.5" depart="41.00" departLane="np2_nt2_0" departPos="35.38" departSpeed="0.00" departDelay="0.09" arrival="213.00" arrivalLane="nt15_np10_0" arrivalPos="75.00" arrivalSpeed="9.94" duration="172.00" routeLength="915.70" waitingTime="29.00" waitingCount="6" stopTime="0.00" timeLoss="95.52" rerouteNo="0" devices="tripinfo_f_0_2.5" vType="type1" speedFactor="1.01" vaporized=""/>
    <tripinfo id="f_0_2.6" depart="50.00" departLane="np2_nt2_0" departPos="37.61" departSpeed="0.00" departDelay="0.91" arrival="215.00" arrivalLane="nt15_np10_0" arrivalPos="75.00" arrivalSpeed="10.33" duration="165.00" routeLength="913.47" waitingTime="36.00" waitingCount="7" stopTime="0.00" timeLoss="85.66" rerouteNo="0" devices="tripinfo_f_0_2.6" vType="type1" speedFactor="0.97" vaporized=""/>
    <tripinfo id="f_0_2.7" depart="58.00" departLane="np2_nt2_0" departPos="17.14" departSpeed="0.00" departDelay="0.73" arrival="217.00" arrivalLane="nt15_np10_0" arrivalPos="75.00" arrivalSpeed="9.80" duration="159.00" routeLength="933.94" waitingTime="26.00" waitingCount="5" stopTime="0.00" timeLoss="84.27" rerouteNo="0" devices="tripinfo_f_0_2.7" vType="type1" speedFactor="1.05" vaporized=""/>
    <tripinfo id="f_0_1.2" depart="28.00" departLane="np16_nt1_0" departPos="41.47" departSpeed="0.00" departDelay="0.73" arrival="219.00" arrivalLane="nt16_np8_0" arrivalPos="75.00" arrivalSpeed="15.65" duration="191.00" routeLength="1306.41" waitingTime="31.00" waitingCount="6" stopTime="0.00" timeLoss="80.82" rerouteNo="0" devices="tripinfo_f_0_1.2" vType="type1" speedFactor="0.83" vaporized=""/>
    <tripinfo id="f_0_2.8" depart="66.00" departLane="np2_nt2_0" departPos="16.51" departSpeed="0.00" departDelay="0.54" arrival="219.00" arrivalLane="nt15_np10_0" arrivalPos="75.00" arrivalSpeed="9.80" duration="153.00" routeLength="934.57" waitingTime="21.00" waitingCount="5" stopTime="0.00" timeLoss="71.11" rerouteNo="0" devices="tripinfo_f_0_2.8" vType="type1" speedFactor="0.96" vaporized=""/>
    <tripinfo id="f_0_1.3" depart="41.00" departLane="np16_nt1_0" departPos="8.60" departSpeed="0.00" departDelay="0.09" arrival="220.00" arrivalLane="nt16_np8_0" arrivalPos="75.00" arrivalSpeed="17.00" duration="179.00" routeLength="1339.28" waitingTime="25.00" waitingCount="5" stopTime="0.00" timeLoss="73.03" rerouteNo="0" devices="tripinfo_f_0_1.3" vType="type1" speedFactor="0.88" vaporized=""/>
    <tripinfo id="f_0_2.9" depart="74.00" departLane="np2_nt2_0" departPos="43.20" departSpeed="0.00" departDelay="0.36" arrival="222.00" arrivalLane="nt15_np10_0" arrivalPos="75.00" arrivalSpeed="10.59" duration="148.00" routeLength="907.88" waitingTime="24.00" waitingCount="6" stopTime="0.00" timeLoss="80.12" rerouteNo="0" devices="tripinfo_f_0_2.9" vType="type1" speedFactor="1.11" vaporized=""/>
    <tripinfo id="f_0_0.6" depart="82.00" departLane="np13_nt13_0" departPos="3.67" departSpeed="0.00" departDelay="0.18" arrival="224.00" arrivalLane="nt4_np5_0" arrivalPos="75.00" arrivalSpeed="20.74" duration="142.00" routeLength="1344.22" waitingTime="18.00" waitingCount="3" stopTime="0.00" timeLoss="57.22" rerouteNo="0" devices="tripinfo_f_0_0.6" vType="type1" speedFactor="1.10" vaporized=""/>
    <tripinfo id="f_0_0.7" depart="96.00" departLane="np13_nt13_0" departPos="64.57" departSpeed="0.00" departDelay="0.55" arrival="226.00" arrivalLane="nt4_np5_0" arrivalPos="75.00" arrivalSpeed="22.00" duration="130.00" routeLength="1283.32" waitingTime="11.00" waitingCount="3" stopTime="0.00" timeLoss="49.58" rerouteNo="0" devices="tripinfo_f_0_0.7" vType="type1" speedFactor="1.12" vaporized=""/>
    <tripinfo id="f_0_2.10" depart="82.00" departLane="np2_nt2_0" departPos="24.89" departSpeed="0.00" departDelay="0.18" arrival="227.00" arrivalLane="nt15_np10_0" arrivalPos="75.00" arrivalSpeed="9.96" duration="145.00" routeLength="926.19" waitingTime="17.00" waitingCount="4" stopTime="0.00" timeLoss="58.92" rerouteNo="0" devices="tripinfo_f_0_2.10" vType="type1" speedFactor="0.91" vaporized=""/>
    <tripinfo id="f_0_3.9" depart="74.00" departLane="np3_nt3_0" departPos="8.67" departSpeed="0.00" departDelay="0.36" arrival="229.00" arrivalLane="nt14_np11_0" arrivalPos="75.00" arrivalSpeed="7.67" duration="155.00" routeLength="942.42" waitingTime="31.00" waitingCount="5" stopTime="0.00" timeLoss="64.73" rerouteNo="0" devices="tripinfo_f_0_3.9" vType="type1" speedFactor="0.88" vaporized=""/>
    <tripinfo id="f_0_0.8" depart="110.00" departLane="np13_nt13_0" departPos="44.33" departSpeed="0.00" departDelay="0.91" arrival="231.00" arrivalLane="nt4_np5_0" arrivalPos="75.00" arrivalSpeed="19.63" duration="121.00" routeLength="1303.56" waitingTime="3.00" waitingCount="2" stopTime="0.00" timeLoss="28.26" rerouteNo="0" devices="tripinfo_f_0_0.8" vType="type1" speedFactor="0.99" vaporized=""/>
    <tripinfo id="f_0_1.4" depart="55.00" departLane="np16_nt1_0" departPos="30.68" departSpeed="0.00" departDelay="0.46" arrival="234.00" arrivalLane="nt16_np8_0" arrivalPos="75.00" arrivalSpeed="19.31" duration="179.00" routeLength="1317.20" waitingTime="29.00" waitingCount="6" stopTime="0.00" timeLoss="90.88" rerouteNo="0" devices="tripinfo_f_0_1.4" vType="type1" speedFactor="1.05" vaporized=""/>
    <tripinfo id="f_0_3.10" depart="82.00" departLane="np3_nt3_0" departPos="42.16" departSpeed="0.00" departDelay="0.18" arrival="241.00" arrivalLane="nt14_np11_0" arrivalPos="75.00" arrivalSpeed="10.36" duration="159.00" routeLength="908.93" waitingTime="44.00" waitingCount="6" stopTime="0.00" timeLoss="90.94" rerouteNo="0" devices="tripinfo_f_0_3.10" vType="type1" speedFactor="1.12" vaporized=""/>
    <tripinfo id="f_0_3.11" depart="90.00" departLane="np3_nt3_0" departPos="42.30" departSpeed="0.00" departDelay="0.00" arrival="245.00" arrivalLane="nt14_np11_0" arrivalPos="75.00" arrivalSpeed="10.38" duration="155.00" routeLength="908.79" waitingTime="36.00" waitingCount="6" stopTime="0.00" timeLoss="76.14" rerouteNo="0" devices="tripinfo_f_0_3.11" vType="type1" speedFactor="0.97" vaporized=""/>
    <tripinfo id="f_0_0.9" depart="123.00" departLane="np13_nt13_0" departPos="22.76" departSpeed="0.00" departDelay="0.28" arrival="255.00" arrivalLane="nt4_np5_0" arrivalPos="75.00" arrivalSpeed="19.53" duration="132.00" routeLength="1325.13" waitingTime="20.00" waitingCount="3" stopTime="0.00" timeLoss="40.61" rerouteNo="0" devices="tripinfo_f_0_0.9" vType="type1" speedFactor="1.01" vaporized=""/>
    <tripinfo id="f_0_2.11" depart="90.00" departLane="np2_nt2_0" departPos="15.17" departSpeed="0.00" departDelay="0.00" arrival="263.00" arrivalLane="nt15_np10_0" arrivalPos="75.00" arrivalSpeed="8.75" duration="173.00" routeLength="935.91" waitingTime="36.00" waitingCount="7" stopTime="0.00" timeLoss="88.16" rerouteNo="0" devices="tripinfo_f_0_2.11" vType="type1" speedFactor="0.93" vaporized=""/>
    <tripinfo id="f_0_2.12" depart="99.00" departLane="np2_nt2_0" departPos="38.91" departSpeed="0.00" departDelay="0.82" arrival="265.00" arrivalLane="nt15_np10_0" arrivalPos="75.00" arrivalSpeed="7.96" duration="166.00" routeLength="912.17" waitingTime="33.00" waitingCount="6" stopTime="0.00" timeLoss="83.43" rerouteNo="0" devices="tripinfo_f_0_2.12" vType="type1" speedFactor="0.93" vaporized=""/>
    <tripinfo id="f_0_3.12" depart="99.00" departLane="np3_nt3_0" departPos="20.25" departSpeed="0.00" departDelay="0.82" arrival="266.00" arrivalLane="nt14_np11_0" arrivalPos="75.00" arrivalSpeed="11.81" duration="167.00" routeLength="930.84" waitingTime="40.00" waitingCount="7" stopTime="0.00" timeLoss="98.38" rerouteNo="0" devices="tripinfo_f_0_3.12" vType="type1" speedFactor="1.15" vaporized=""/>
    <tripinfo id="f_0_1.5" depart="69.00" departLane="np16_nt1_0" departPos="8.83" departSpeed="0.00" departDelay="0.82" arrival="268.00" arrivalLane="nt16_np8_0" arrivalPos="75.00" arrivalSpeed="17.00" duration="199.00" routeLength="1339.05" waitingTime="51.00" waitingCount="7" stopTime="0.00" timeLoss="102.77" rerouteNo="0" devices="tripinfo_f_0_1.5" vType="type1" speedFactor="0.96" vaporized=""/>
    <tripinfo id="f_0_1.6" depart="82.00" departLane="np16_nt1_0" departPos="61.63" departSpeed="0.00" departDelay="0.18" arrival="270.00" arrivalLane="nt16_np8_0" arrivalPos="75.00" arrivalSpeed="19.10" duration="188.00" routeLength="1286.25" waitingTime="47.00" waitingCount="8" stopTime="0.00" timeLoss="103.81" rerouteNo="0" devices="tripinfo_f_0_1.6" vType="type1" speedFactor="1.08" vaporized=""/>
    <tripinfo id="f_0_3.13" depart="107.00" departLane="np3_nt3_0" departPos="19.75" departSpeed="0.00" departDelay="0.63" arrival="270.00" arrivalLane="nt14_np11_0" arrivalPos="75.00" arrivalSpeed="10.64" duration="163.00" routeLength="931.34" waitingTime="53.00" waitingCount="5" stopTime="0.00" timeLoss="82.18" rerouteNo="0" devices="tripinfo_f_0_3.13" vType="type1" speedFactor="0.97" vaporized=""/>
    <tripinfo id="f_0_3.14" depart="115.00" departLane="np3_nt3_0" departPos="19.32" departSpeed="0.00" departDelay="0.45" arrival="287.00" arrivalLane="nt14_np11_0" arrivalPos="75.00" arrivalSpeed="10.95" duration="172.00" routeLength="931.77" waitingTime="65.00" waitingCount="6" stopTime="0.00" timeLoss="93.75" rerouteNo="0" devices="tripinfo_f_0_3.14" vType="type1" speedFactor="1.00" vaporized=""/>
    <tripinfo id="f_0_2.13" depart="107.00" departLane="np2_nt2_0" departPos="56.57" departSpeed="0.00" departDelay="0.63" arrival="308.00" arrivalLane="nt15_np10_0" arrivalPos="75.00" arrivalSpeed="9.85" duration="201.00" routeLength="894.51" waitingTime="64.00" waitingCount="6" stopTime="0.00" timeLoss="122.31" rerouteNo="0" devices="tripinfo_f_0_2.13" vType="type1" speedFactor="0.96" vaporized=""/>
    <tripinfo id="f_0_2.14" depart="115.00" departLane="np2_nt2_0" departPos="36.12" departSpeed="0.00" departDelay="0.45" arrival="313.00" arrivalLane="nt15_np10_0" arrivalPos="75.00" arrivalSpeed="10.83" duration="198.00" routeLength="914.96" waitingTime="61.00" waitingCount="6" stopTime="0.00" timeLoss="125.55" rerouteNo="0" devices="tripinfo_f_0_2.14" vType="type1" speedFactor="1.06" vaporized=""/>
    <tripinfo id="f_0_2.15" depart="123.00" departLane="np2_nt2_0" departPos="55.62" departSpeed="0.00" departDelay="0.27" arrival="315.00" arrivalLane="nt15_np10_0" arrivalPos="75.00" arrivalSpeed="10.37" duration="192.00" routeLength="895.46" waitingTime="57.00" waitingCount="6" stopTime="0.00" timeLoss="119.55" rerouteNo="0" devices="tripinfo_f_0_2.15" vType="type1" speedFactor="1.03" vaporized=""/>
    <tripinfo id="f_0_0.10" depart="137.00" departLane="np13_nt13_0" departPos="10.49" departSpeed="0.00" departDelay="0.64" arrival="318.00" arrivalLane="nt4_np5_0" arrivalPos="75.00" arrivalSpeed="14.66" duration="181.00" routeLength="1337.40" waitingTime="37.00" waitingCount="4" stopTime="0.00" timeLoss="71.38" rerouteNo="0" devices="tripinfo_f_0_0.10" vType="type1" speedFactor="0.84" vaporized=""/>
    <tripinfo id="f_0_0.11" depart="150.00" departLane="np13_nt13_0" departPos="1.16" departSpeed="0.00" departDelay="0.00" arrival="320.00" arrivalLane="nt4_np5_0" arrivalPos="75.00" arrivalSpeed="20.02" duration="170.00" routeLength="1346.73" waitingTime="27.00" waitingCount="5" stopTime="0.00" timeLoss="84.04" rerouteNo="0" devices="tripinfo_f_0_0.11" vType="type1" speedFactor="1.08" vaporized=""/>
    <tripinfo id="f_0_1.7" depart="96.00" departLane="np16_nt1_0" departPos="47.85" departSpeed="0.00" departDelay="0.55" arrival="321.00" arrivalLane="nt16_np8_0" arrivalPos="75.00" arrivalSpeed="16.18" duration="225.00" routeLength="1300.03" waitingTime="58.00" waitingCount="6" stopTime="0.00" timeLoss="115.73" rerouteNo="0" devices="tripinfo_f_0_1.7" vType="type1" speedFactor="0.83" vaporized=""/>
    <tripinfo id="f_0_3.15" depart="123.00" departLane="np3_nt3_0" departPos="14.04" departSpeed="0.00" departDelay="0.27" arrival="323.00" arrivalLane="nt14_np11_0" arrivalPos="75.00" arrivalSpeed="7.92" duration="200.00" routeLength="937.05" waitingTime="76.00" waitingCount="6" stopTime="0.00" timeLoss="114.20" rerouteNo="0" devices="tripinfo_f_0_3.15" vType="type1" speedFactor="0.92" vaporized=""/>
    <tripinfo id="f_0_2.16" depart="131.00" departLane="np2_nt2_0" departPos="32.24" departSpeed="0.00" departDelay="0.09" arrival="325.00" arrivalLane="nt15_np10_0" arrivalPos="75.00" arrivalSpeed="8.07" duration="194.00" routeLength="918.84" waitingTime="45.00" waitingCount="7" stopTime="0.00" timeLoss="108.26" rerouteNo="0" devices="tripinfo_f_0_2.16" vType="type1" speedFactor="0.90" vaporized=""/>
    <tripinfo id="f_0_3.16" depart="131.00" departLane="np3_nt3_0" departPos="24.52" departSpeed="0.00" departDelay="0.09" arrival="325.00" arrivalLane="nt14_np11_0" arrivalPos="75.00" arrivalSpeed="8.76" duration="194.00" routeLength="926.57" waitingTime="67.00" waitingCount="8" stopTime="0.00" timeLoss="110.54" rerouteNo="0" devices="tripinfo_f_0_3.16" vType="type1" speedFactor="0.93" vaporized=""/>
    <tripinfo id="f_0_3.17" depart="140.00" departLane="np3_nt3_0" departPos="2.66" departSpeed="0.00" departDelay="0.91" arrival="327.00" arrivalLane="nt14_np11_0" arrivalPos="75.00" arrivalSpeed="8.61" duration="187.00" routeLength="948.43" waitingTime="50.00" waitingCount="5" stopTime="0.00" timeLoss="97.68" rerouteNo="0" devices="tripinfo_f_0_3.17" vType="type1" speedFactor="0.89" vaporized=""/>
    <tripinfo id="f_0_1.8" depart="110.00" departLane="np16_nt1_0" departPos="12.26" departSpeed="0.00" departDelay="0.91" arrival="328.00" arrivalLane="nt16_np8_0" arrivalPos="75.00" arrivalSpeed="16.96" duration="218.00" routeLength="1335.62" waitingTime="55.00" waitingCount="7" stopTime="0.00" timeLoss="112.53" rerouteNo="0" devices="tripinfo_f_0_1.8" vType="type1" speedFactor="0.88" vaporized=""/>
    <tripinfo id="f_0_3.18" depart="148.00" departLane="np3_nt3_0" departPos="5.20" departSpeed="0.00" departDelay="0.72" arrival="329.00" arrivalLane="nt14_np11_0" arrivalPos="75.00" arrivalSpeed="9.03" duration="181.00" routeLength="945.89" waitingTime="55.00" waitingCount="6" stopTime="0.00" timeLoss="102.40" rerouteNo="0" devices="tripinfo_f_0_3.18" vType="type1" speedFactor="1.01" vaporized=""/>
    <tripinfo id="f_0_1.9" depart="123.00" departLane="np16_nt1_0" departPos="67.68" departSpeed="0.00" departDelay="0.28" arrival="332.00" arrivalLane="nt16_np8_0" arrivalPos="75.00" arrivalSpeed="15.95" duration="209.00" routeLength="1280.20" waitingTime="45.00" waitingCount="6" stopTime="0.00" timeLoss="103.62" rerouteNo="0" devices="tripinfo_f_0_1.9" vType="type1" speedFactor="0.86" vaporized=""/>
    <tripinfo id="f_0_3.19" depart="156.00" departLane="np3_nt3_0" departPos="55.64" departSpeed="0.00" departDelay="0.54" arrival="334.00" arrivalLane="nt14_np11_0" arrivalPos="75.00" arrivalSpeed="7.39" duration="178.00" routeLength="895.45" waitingTime="53.00" waitingCount="4" stopTime="0.00" timeLoss="81.38" rerouteNo="0" devices="tripinfo_f_0_3.19" vType="type1" speedFactor="0.77" vaporized=""/>
    <tripinfo id="f_0_3.20" depart="164.00" departLane="np3_nt3_0" departPos="13.41" departSpeed="0.00" departDelay="0.36" arrival="336.00" arrivalLane="nt14_np11_0" arrivalPos="75.00" arrivalSpeed="9.62" duration="172.00" routeLength="937.68" waitingTime="42.00" waitingCount="3" stopTime="0.00" timeLoss="90.57" rerouteNo="0" devices="tripinfo_f_0_3.20" vType="type1" speedFactor="0.96" vaporized=""/>
    <tripinfo id="f_0_2.17" depart="140.00" departLane="np2_nt2_0" departPos="56.56" departSpeed="0.00" departDelay="0.91" arrival="337.00" arrivalLane="nt15_np10_0" arrivalPos="75.00" arrivalSpeed="10.37" duration="197.00" routeLength="894.52" waitingTime="49.00" waitingCount="8" stopTime="0.00" timeLoss="124.92" rerouteNo="0" devices="tripinfo_f_0_2.17" vType="type1" speedFactor="1.04" vaporized=""/>
    <tripinfo id="f_0_3.21" depart="172.00" departLane="np3_nt3_0" departPos="19.54" departSpeed="0.00" departDelay="0.18" arrival="338.00" arrivalLane="nt14_np11_0" arrivalPos="75.00" arrivalSpeed="12.11" duration="166.00" routeLength="931.55" waitingTime="36.00" waitingCount="3" stopTime="0.00" timeLoss="100.20" rerouteNo="0" devices="tripinfo_f_0_3.21" vType="type1" speedFactor="1.19" vaporized=""/>
    <tripinfo id="f_0_3.22" depart="180.00" departLane="np3_nt3_0" departPos="18.63" departSpeed="0.00" departDelay="0.00" arrival="340.00" arrivalLane="nt14_np11_0" arrivalPos="75.00" arrivalSpeed="12.90" duration="160.00" routeLength="932.46" waitingTime="40.00" waitingCount="4" stopTime="0.00" timeLoss="95.35" rerouteNo="0" devices="tripinfo_f_0_3.22" vType="type1" speedFactor="1.22" vaporized=""/>
    <tripinfo id="f_0_3.23" depart="189.00" departLane="np3_nt3_0" departPos="26.61" departSpeed="0.00" departDelay="0.81" arrival="342.00" arrivalLane="nt14_np11_0" arrivalPos="75.00" arrivalSpeed="10.12" duration="153.00" routeLength="924.48" waitingTime="38.00" waitingCount="4" stopTime="0.00" timeLoss="78.58" rerouteNo="0" devices="tripinfo_f_0_3.23" vType="type1" speedFactor="1.04" vaporized=""/>
    <tripinfo id="f_0_2.18" depart="148.00" departLane="np2_nt2_0" departPos="41.25" departSpeed="0.00" departDelay="0.72" arrival="348.00" arrivalLane="nt15_np10_0" arrivalPos="75.00" arrivalSpeed="7.39" duration="200.00" routeLength="909.83" waitingTime="42.00" waitingCount="7" stopTime="0.00" timeLoss="114.21" rerouteNo="0" devices="tripinfo_f_0_2.18" vType="type1" speedFactor="0.89" vaporized=""/>
    <tripinfo id="f_0_1.10" depart="137.00" departLane="np16_nt1_0" departPos="23.10" departSpeed="0.00" departDelay="0.64" arrival="349.00" arrivalLane="nt16_np8_0" arrivalPos="75.00" arrivalSpeed="20.24" duration="212.00" routeLength="1324.78" waitingTime="53.00" waitingCount="7" stopTime="0.00" timeLoss="122.72" rerouteNo="0" devices="tripinfo_f_0_1.10" vType="type1" speedFactor="1.03" vaporized=""/>
    <tripinfo id="f_0_2.19" depart="156.00" departLane="np2_nt2_0" departPos="24.60" departSpeed="0.00" departDelay="0.54" arrival="350.00" arrivalLane="nt15_np10_0" arrivalPos="75.00" arrivalSpeed="10.78" duration="194.00" routeLength="926.48" waitingTime="38.00" waitingCount="6" stopTime="0.00" timeLoss="126.52" rerouteNo="0" devices="tripinfo_f_0_2.19" vType="type1" speedFactor="1.15" vaporized=""/>
    <tripinfo id="f_0_0.12" depart="164.00" departLane="np13_nt13_0" departPos="33.29" departSpeed="0.00" departDelay="0.37" arrival="354.00" arrivalLane="nt4_np5_0" arrivalPos="75.00" arrivalSpeed="20.56" duration="190.00" routeLength="1314.60" waitingTime="60.00" waitingCount="4" stopTime="0.00" timeLoss="102.73" rerouteNo="0" devices="tripinfo_f_0_0.12" vType="type1" speedFactor="1.06" vaporized=""/>
    <tripinfo id="f_0_2.20" depart="164.00" departLane="np2_nt2_0" departPos="25.46" departSpeed="0.00" departDelay="0.36" arrival="355.00" arrivalLane="nt15_np10_0" arrivalPos="75.00" arrivalSpeed="9.55" duration="191.00" routeLength="925.62" waitingTime="35.00" waitingCount="8" stopTime="0.00" timeLoss="101.56" rerouteNo="0" devices="tripinfo_f_0_2.20" vType="type1" speedFactor="0.87" vaporized=""/>
    <tripinfo id="f_0_0.13" depart="178.00" departLane="np13_nt13_0" departPos="54.33" departSpeed="0.00" departDelay="0.73" arrival="355.00" arrivalLane="nt4_np5_0" arrivalPos="75.00" arrivalSpeed="20.93" duration="177.00" routeLength="1293.56" waitingTime="56.00" waitingCount="6" stopTime="0.00" timeLoss="94.49" rerouteNo="0" devices="tripinfo_f_0_0.13" vType="type1" speedFactor="1.09" vaporized=""/>
    <tripinfo id="f_0_0.14" depart="191.00" departLane="np13_nt13_0" departPos="20.17" departSpeed="0.00" departDelay="0.10" arrival="357.00" arrivalLane="nt4_np5_0" arrivalPos="75.00" arrivalSpeed="18.95" duration="166.00" routeLength="1327.72" waitingTime="39.00" waitingCount="4" stopTime="0.00" timeLoss="68.97" rerouteNo="0" devices="tripinfo_f_0_0.14" vType="type1" speedFactor="0.95" vaporized=""/>