<?xml version="1.0" encoding="UTF-8"?>

<!-- generated on 2023-08-23 16:46:49 by Eclipse SUMO libsumo Version 1.18.0
<configuration xmlns:xsi="http://www.w3.org/2001/XMLSchema-instance" xsi:noNamespaceSchemaLocation="http://sumo.dlr.de/xsd/libsumoConfiguration.xsd">

    <input>
        <net-file value="/home/stefan/RESCO/./environments/arterial4x4/arterial4x4.net.xml"/>
        <route-files value="/home/stefan/RESCO/./environments/arterial4x4/arterial4x4_69.rou.xml"/>
    </input>

    <output>
        <tripinfo-output value="/home/stefan/results/IDDQN-tr0-arterial4x4-0-drq_norm-wait_norm/tripinfo_69.xml"/>
        <tripinfo-output.write-unfinished value="true"/>
    </output>

    <processing>
        <time-to-teleport value="-1"/>
    </processing>

    <report>
        <no-warnings value="True"/>
        <no-step-log value="True"/>
    </report>

    <random_number>
        <random value="true"/>
    </random_number>

</configuration>
-->

<tripinfos xmlns:xsi="http://www.w3.org/2001/XMLSchema-instance" xsi:noNamespaceSchemaLocation="http://sumo.dlr.de/xsd/tripinfo_file.xsd">
    <tripinfo id="f_0_3.0" depart="0.00" departLane="np3_nt3_0" departPos="42.79" departSpeed="0.00" departDelay="0.00" arrival="123.00" arrivalLane="nt14_np11_0" arrivalPos="75.00" arrivalSpeed="10.30" duration="123.00" routeLength="908.30" waitingTime="22.00" waitingCount="3" stopTime="0.00" timeLoss="43.10" rerouteNo="0" devices="tripinfo_f_0_3.0" vType="type1" speedFactor="0.96" vaporized=""/>
    <tripinfo id="f_0_3.1" depart="9.00" departLane="np3_nt3_0" departPos="38.55" departSpeed="0.00" departDelay="0.82" arrival="124.00" arrivalLane="nt14_np11_0" arrivalPos="75.00" arrivalSpeed="11.53" duration="115.00" routeLength="912.54" waitingTime="19.00" waitingCount="2" stopTime="0.00" timeLoss="45.49" rerouteNo="0" devices="tripinfo_f_0_3.1" vType="type1" speedFactor="1.10" vaporized=""/>
    <tripinfo id="f_0_3.2" depart="17.00" departLane="np3_nt3_0" departPos="60.41" departSpeed="0.00" departDelay="0.64" arrival="127.00" arrivalLane="nt14_np11_0" arrivalPos="75.00" arrivalSpeed="10.01" duration="110.00" routeLength="890.68" waitingTime="13.00" waitingCount="3" stopTime="0.00" timeLoss="36.77" rerouteNo="0" devices="tripinfo_f_0_3.2" vType="type1" speedFactor="1.02" vaporized=""/>
    <tripinfo id="f_0_2.0" depart="0.00" departLane="np2_nt2_0" departPos="13.28" departSpeed="0.00" departDelay="0.00" arrival="147.00" arrivalLane="nt15_np10_0" arrivalPos="75.00" arrivalSpeed="9.63" duration="147.00" routeLength="937.80" waitingTime="41.00" waitingCount="5" stopTime="0.00" timeLoss="69.65" rerouteNo="0" devices="tripinfo_f_0_2.0" vType="type1" speedFactor="1.02" vaporized=""/>
    <tripinfo id="f_0_3.3" depart="25.00" departLane="np3_nt3_0" departPos="51.37" departSpeed="0.00" departDelay="0.45" arrival="148.00" arrivalLane="nt14_np11_0" arrivalPos="75.00" arrivalSpeed="7.47" duration="123.00" routeLength="899.72" waitingTime="16.00" waitingCount="2" stopTime="0.00" timeLoss="35.06" rerouteNo="0" devices="tripinfo_f_0_3.3" vType="type1" speedFactor="0.86" vaporized=""/>
    <tripinfo id="f_0_3.4" depart="33.00" departLane="np3_nt3_0" departPos="11.06" departSpeed="0.00" departDelay="0.27" arrival="150.00" arrivalLane="nt14_np11_0" arrivalPos="75.00" arrivalSpeed="10.80" duration="117.00" routeLength="940.03" waitingTime="9.00" waitingCount="2" stopTime="0.00" timeLoss="39.06" rerouteNo="0" devices="tripinfo_f_0_3.4" vType="type1" speedFactor="1.01" vaporized=""/>
    <tripinfo id="f_0_0.0" depart="0.00" departLane="np13_nt13_0" departPos="67.13" departSpeed="0.00" departDelay="0.00" arrival="169.00" arrivalLane="nt4_np5_0" arrivalPos="75.00" arrivalSpeed="15.46" duration="169.00" routeLength="1280.76" waitingTime="37.00" waitingCount="5" stopTime="0.00" timeLoss="68.05" rerouteNo="0" devices="tripinfo_f_0_0.0" vType="type1" speedFactor="0.89" vaporized=""/>
    <tripinfo id="f_0_3.5" depart="41.00" departLane="np3_nt3_0" departPos="13.67" departSpeed="0.00" departDelay="0.09" arrival="174.00" arrivalLane="nt14_np11_0" arrivalPos="75.00" arrivalSpeed="8.98" duration="133.00" routeLength="937.42" waitingTime="13.00" waitingCount="4" stopTime="0.00" timeLoss="43.77" rerouteNo="0" devices="tripinfo_f_0_3.5" vType="type1" speedFactor="0.88" vaporized=""/>
    <tripinfo id="f_0_3.6" depart="50.00" departLane="np3_nt3_0" departPos="35.57" departSpeed="0.00" departDelay="0.91" arrival="176.00" arrivalLane="nt14_np11_0" arrivalPos="75.00" arrivalSpeed="10.65" duration="126.00" routeLength="915.52" waitingTime="9.00" waitingCount="3" stopTime="0.00" timeLoss="53.48" rerouteNo="0" devices="tripinfo_f_0_3.6" vType="type1" speedFactor="1.06" vaporized=""/>
    <tripinfo id="f_0_3.7" depart="58.00" departLane="np3_nt3_0" departPos="8.78" departSpeed="0.00" departDelay="0.73" arrival="178.00" arrivalLane="nt14_np11_0" arrivalPos="75.00" arrivalSpeed="9.67" duration="120.00" routeLength="942.31" waitingTime="20.00" waitingCount="2" stopTime="0.00" timeLoss="41.03" rerouteNo="0" devices="tripinfo_f_0_3.7" vType="type1" speedFactor="1.01" vaporized=""/>
    <tripinfo id="f_0_3.8" depart="66.00" departLane="np3_nt3_0" departPos="34.29" departSpeed="0.00" departDelay="0.54" arrival="179.00" arrivalLane="nt14_np11_0" arrivalPos="75.00" arrivalSpeed="12.57" duration="113.00" routeLength="916.80" waitingTime="16.00" waitingCount="2" stopTime="0.00" timeLoss="48.34" rerouteNo="0" devices="tripinfo_f_0_3.8" vType="type1" speedFactor="1.18" vaporized=""/>
    <tripinfo id="f_0_2.1" depart="9.00" departLane="np2_nt2_0" departPos="17.74" departSpeed="0.00" departDelay="0.82" arrival="182.00" arrivalLane="nt15_np10_0" arrivalPos="75.00" arrivalSpeed="10.35" duration="173.00" routeLength="933.34" waitingTime="66.00" waitingCount="6" stopTime="0.00" timeLoss="99.76" rerouteNo="0" devices="tripinfo_f_0_2.1" vType="type1" speedFactor="1.07" vaporized=""/>
    <tripinfo id="f_0_0.1" depart="14.00" departLane="np13_nt13_0" departPos="5.72" departSpeed="0.00" departDelay="0.36" arrival="183.00" arrivalLane="nt4_np5_0" arrivalPos="75.00" arrivalSpeed="18.60" duration="169.00" routeLength="1342.17" waitingTime="49.00" waitingCount="4" stopTime="0.00" timeLoss="78.72" rerouteNo="0" devices="tripinfo_f_0_0.1" vType="type1" speedFactor="1.03" vaporized=""/>
    <tripinfo id="f_0_0.2" depart="28.00" departLane="np13_nt13_0" departPos="47.08" departSpeed="0.00" departDelay="0.73" arrival="185.00" arrivalLane="nt4_np5_0" arrivalPos="75.00" arrivalSpeed="18.69" duration="157.00" routeLength="1300.81" waitingTime="39.00" waitingCount="4" stopTime="0.00" timeLoss="69.04" rerouteNo="0" devices="tripinfo_f_0_0.2" vType="type1" speedFactor="1.03" vaporized=""/>
    <tripinfo id="f_0_2.2" depart="17.00" departLane="np2_nt2_0" departPos="51.45" departSpeed="0.00" departDelay="0.64" arrival="186.00" arrivalLane="nt15_np10_0" arrivalPos="75.00" arrivalSpeed="8.15" duration="169.00" routeLength="899.63" waitingTime="52.00" waitingCount="6" stopTime="0.00" timeLoss="84.22" rerouteNo="0" devices="tripinfo_f_0_2.2" vType="type1" speedFactor="0.89" vaporized=""/>
    <tripinfo id="f_0_0.3" depart="41.00" departLane="np13_nt13_0" departPos="14.98" departSpeed="0.00" departDelay="0.09" arrival="188.00" arrivalLane="nt4_np5_0" arrivalPos="75.00" arrivalSpeed="18.54" duration="147.00" routeLength="1332.91" waitingTime="15.00" waitingCount="4" stopTime="0.00" timeLoss="49.28" rerouteNo="0" devices="tripinfo_f_0_0.3" vType="type1" speedFactor="0.95" vaporized=""/>
    <tripinfo id="f_0_1.0" depart="0.00" departLane="np16_nt1_0" departPos="12.05" departSpeed="0.00" departDelay="0.00" arrival="195.00" arrivalLane="nt16_np8_0" arrivalPos="75.00" arrivalSpeed="18.51" duration="195.00" routeLength="1335.83" waitingTime="50.00" waitingCount="5" stopTime="0.00" timeLoss="104.26" rerouteNo="0" devices="tripinfo_f_0_1.0" vType="type1" speedFactor="1.02" vaporized=""/>
    <tripinfo id="f_0_2.3" depart="25.00" departLane="np2_nt2_0" departPos="33.67" departSpeed="0.00" departDelay="0.45" arrival="197.00" arrivalLane="nt15_np10_0" arrivalPos="75.00" arrivalSpeed="10.44" duration="172.00" routeLength="917.41" waitingTime="57.00" waitingCount="5" stopTime="0.00" timeLoss="91.57" rerouteNo="0" devices="tripinfo_f_0_2.3" vType="type1" speedFactor="0.96" vaporized=""/>
    <tripinfo id="f_0_1.1" depart="14.00" departLane="np16_nt1_0" departPos="9.51" departSpeed="0.00" departDelay="0.36" arrival="208.00" arrivalLane="nt16_np8_0" arrivalPos="75.00" arrivalSpeed="18.88" duration="194.00" routeLength="1338.37" waitingTime="55.00" waitingCount="5" stopTime="0.00" timeLoss="97.39" rerouteNo="0" devices="tripinfo_f_0_1.1" vType="type1" speedFactor="0.97" vaporized=""/>
    <tripinfo id="f_0_3.9" depart="74.00" departLane="np3_nt3_0" departPos="18.75" departSpeed="0.00" departDelay="0.36" arrival="212.00" arrivalLane="nt14_np11_0" arrivalPos="75.00" arrivalSpeed="10.61" duration="138.00" routeLength="932.34" waitingTime="31.00" waitingCount="3" stopTime="0.00" timeLoss="62.98" rerouteNo="0" devices="tripinfo_f_0_3.9" vType="type1" speedFactor="1.05" vaporized=""/>
    <tripinfo id="f_0_3.10" depart="82.00" departLane="np3_nt3_0" departPos="8.75" departSpeed="0.00" departDelay="0.18" arrival="214.00" arrivalLane="nt14_np11_0" arrivalPos="75.00" arrivalSpeed="10.23" duration="132.00" routeLength="942.34" waitingTime="21.00" waitingCount="3" stopTime="0.00" timeLoss="53.73" rerouteNo="0" devices="tripinfo_f_0_3.10" vType="type1" speedFactor="1.01" vaporized=""/>
    <tripinfo id="f_0_3.11" depart="90.00" departLane="np3_nt3_0" departPos="0.09" departSpeed="0.00" departDelay="0.00" arrival="217.00" arrivalLane="nt14_np11_0" arrivalPos="75.00" arrivalSpeed="7.95" duration="127.00" routeLength="951.00" waitingTime="14.00" waitingCount="3" stopTime="0.00" timeLoss="40.25" rerouteNo="0" devices="tripinfo_f_0_3.11" vType="type1" speedFactor="0.93" vaporized=""/>
    <tripinfo id="f_0_1.2" depart="28.00" departLane="np16_nt1_0" departPos="46.14" departSpeed="0.00" departDelay="0.73" arrival="218.00" arrivalLane="nt16_np8_0" arrivalPos="75.00" arrivalSpeed="20.58" duration="190.00" routeLength="1301.74" waitingTime="52.00" waitingCount="7" stopTime="0.00" timeLoss="107.12" rerouteNo="0" devices="tripinfo_f_0_1.2" vType="type1" speedFactor="1.10" vaporized=""/>
    <tripinfo id="f_0_0.4" depart="55.00" departLane="np13_nt13_0" departPos="24.26" departSpeed="0.00" departDelay="0.46" arrival="218.00" arrivalLane="nt4_np5_0" arrivalPos="75.00" arrivalSpeed="15.99" duration="163.00" routeLength="1323.63" waitingTime="27.00" waitingCount="3" stopTime="0.00" timeLoss="56.64" rerouteNo="0" devices="tripinfo_f_0_0.4" vType="type1" speedFactor="0.87" vaporized=""/>
    <tripinfo id="f_0_0.5" depart="69.00" departLane="np13_nt13_0" departPos="56.92" departSpeed="0.00" departDelay="0.82" arrival="219.00" arrivalLane="nt4_np5_0" arrivalPos="75.00" arrivalSpeed="19.57" duration="150.00" routeLength="1290.97" waitingTime="28.00" waitingCount="4" stopTime="0.00" timeLoss="64.90" rerouteNo="0" devices="tripinfo_f_0_0.5" vType="type1" speedFactor="1.06" vaporized=""/>
    <tripinfo id="f_0_3.12" depart="99.00" departLane="np3_nt3_0" departPos="42.93" departSpeed="0.00" departDelay="0.82" arrival="219.00" arrivalLane="nt14_np11_0" arrivalPos="75.00" arrivalSpeed="9.58" duration="120.00" routeLength="908.16" waitingTime="12.00" waitingCount="3" stopTime="0.00" timeLoss="35.57" rerouteNo="0" devices="tripinfo_f_0_3.12" vType="type1" speedFactor="0.90" vaporized=""/>
    <tripinfo id="f_0_0.6" depart="82.00" departLane="np13_nt13_0" departPos="52.49" departSpeed="0.00" departDelay="0.18" arrival="221.00" arrivalLane="nt4_np5_0" arrivalPos="75.00" arrivalSpeed="16.76" duration="139.00" routeLength="1295.40" waitingTime="18.00" waitingCount="3" stopTime="0.00" timeLoss="44.03" rerouteNo="0" devices="tripinfo_f_0_0.6" vType="type1" speedFactor="0.95" vaporized=""/>
    <tripinfo id="f_0_0.7" depart="96.00" departLane="np13_nt13_0" departPos="25.82" departSpeed="0.00" departDelay="0.55" arrival="223.00" arrivalLane="nt4_np5_0" arrivalPos="75.00" arrivalSpeed="18.71" duration="127.00" routeLength="1322.07" waitingTime="12.00" waitingCount="3" stopTime="0.00" timeLoss="38.96" rerouteNo="0" devices="tripinfo_f_0_0.7" vType="type1" speedFactor="1.04" vaporized=""/>
    <tripinfo id="f_0_2.4" depart="33.00" departLane="np2_nt2_0" departPos="6.42" departSpeed="0.00" departDelay="0.27" arrival="231.00" arrivalLane="nt15_np10_0" arrivalPos="75.00" arrivalSpeed="11.36" duration="198.00" routeLength="944.66" waitingTime="73.00" waitingCount="7" stopTime="0.00" timeLoss="125.36" rerouteNo="0" devices="tripinfo_f_0_2.4" vType="type1" speedFactor="1.08" vaporized=""/>
    <tripinfo id="f_0_2.5" depart="41.00" departLane="np2_nt2_0" departPos="35.19" departSpeed="0.00" departDelay="0.09" arrival="238.00" arrivalLane="nt15_np10_0" arrivalPos="75.00" arrivalSpeed="9.91" duration="197.00" routeLength="915.89" waitingTime="68.00" waitingCount="8" stopTime="0.00" timeLoss="117.40" rerouteNo="0" devices="tripinfo_f_0_2.5" vType="type1" speedFactor="0.96" vaporized=""/>
    <tripinfo id="f_0_1.3" depart="41.00" departLane="np16_nt1_0" departPos="45.88" departSpeed="0.00" departDelay="0.09" arrival="242.00" arrivalLane="nt16_np8_0" arrivalPos="75.00" arrivalSpeed="17.38" duration="201.00" routeLength="1302.00" waitingTime="62.00" waitingCount="6" stopTime="0.00" timeLoss="109.41" rerouteNo="0" devices="tripinfo_f_0_1.3" vType="type1" speedFactor="0.99" vaporized=""/>
    <tripinfo id="f_0_2.6" depart="50.00" departLane="np2_nt2_0" departPos="31.87" departSpeed="0.00" departDelay="0.91" arrival="243.00" arrivalLane="nt15_np10_0" arrivalPos="75.00" arrivalSpeed="8.03" duration="193.00" routeLength="919.21" waitingTime="52.00" waitingCount="4" stopTime="0.00" timeLoss="90.90" rerouteNo="0" devices="tripinfo_f_0_2.6" vType="type1" speedFactor="0.76" vaporized=""/>
    <tripinfo id="f_0_3.13" depart="107.00" departLane="np3_nt3_0" departPos="34.61" departSpeed="0.00" departDelay="0.63" arrival="243.00" arrivalLane="nt14_np11_0" arrivalPos="75.00" arrivalSpeed="9.68" duration="136.00" routeLength="916.48" waitingTime="36.00" waitingCount="2" stopTime="0.00" timeLoss="57.86" rerouteNo="0" devices="tripinfo_f_0_3.13" vType="type1" speedFactor="0.99" vaporized=""/>
    <tripinfo id="f_0_3.14" depart="115.00" departLane="np3_nt3_0" departPos="23.80" departSpeed="0.00" departDelay="0.45" arrival="245.00" arrivalLane="nt14_np11_0" arrivalPos="75.00" arrivalSpeed="10.36" duration="130.00" routeLength="927.29" waitingTime="31.00" waitingCount="2" stopTime="0.00" timeLoss="56.11" rerouteNo="0" devices="tripinfo_f_0_3.14" vType="type1" speedFactor="1.06" vaporized=""/>
    <tripinfo id="f_0_2.7" depart="58.00" departLane="np2_nt2_0" departPos="40.55" departSpeed="0.00" departDelay="0.73" arrival="246.00" arrivalLane="nt15_np10_0" arrivalPos="75.00" arrivalSpeed="11.16" duration="188.00" routeLength="910.53" waitingTime="53.00" waitingCount="6" stopTime="0.00" timeLoss="124.46" rerouteNo="0" devices="tripinfo_f_0_2.7" vType="type1" speedFactor="1.21" vaporized=""/>
    <tripinfo id="f_0_2.8" depart="66.00" departLane="np2_nt2_0" departPos="26.29" departSpeed="0.00" departDelay="0.54" arrival="250.00" arrivalLane="nt15_np10_0" arrivalPos="75.00" arrivalSpeed="9.57" duration="184.00" routeLength="924.79" waitingTime="50.00" waitingCount="6" stopTime="0.00" timeLoss="101.60" rerouteNo="0" devices="tripinfo_f_0_2.8" vType="type1" speedFactor="0.94" vaporized=""/>
    <tripinfo id="f_0_2.9" depart="74.00" departLane="np2_nt2_0" departPos="8.65" departSpeed="0.00" departDelay="0.36" arrival="259.00" arrivalLane="nt15_np10_0" arrivalPos="75.00" arrivalSpeed="9.41" duration="185.00" routeLength="942.43" waitingTime="44.00" waitingCount="6" stopTime="0.00" timeLoss="93.73" rerouteNo="0" devices="tripinfo_f_0_2.9" vType="type1" speedFactor="0.87" vaporized=""/>
    <tripinfo id="f_0_2.10" depart="82.00" departLane="np2_nt2_0" departPos="30.80" departSpeed="0.00" departDelay="0.18" arrival="261.00" arrivalLane="nt15_np10_0" arrivalPos="75.00" arrivalSpeed="10.47" duration="179.00" routeLength="920.28" waitingTime="43.00" waitingCount="8" stopTime="0.00" timeLoss="103.37" rerouteNo="0" devices="tripinfo_f_0_2.10" vType="type1" speedFactor="1.02" vaporized=""/>
    <tripinfo id="f_0_1.4" depart="55.00" departLane="np16_nt1_0" departPos="42.65" departSpeed="0.00" departDelay="0.46" arrival="269.00" arrivalLane="nt16_np8_0" arrivalPos="75.00" arrivalSpeed="24.00" duration="214.00" routeLength="1305.23" waitingTime="58.00" waitingCount="9" stopTime="0.00" timeLoss="140.28" rerouteNo="0" devices="tripinfo_f_0_1.4" vType="type1" speedFactor="1.23" vaporized=""/>
    <tripinfo id="f_0_1.5" depart="69.00" departLane="np16_nt1_0" departPos="58.37" departSpeed="0.00" departDelay="0.82" arrival="277.00" arrivalLane="nt16_np8_0" arrivalPos="75.00" arrivalSpeed="19.82" duration="208.00" routeLength="1289.51" waitingTime="40.00" waitingCount="7" stopTime="0.00" timeLoss="123.14" rerouteNo="0" devices="tripinfo_f_0_1.5" vType="type1" speedFactor="1.06" vaporized=""/>
    <tripinfo id="f_0_0.8" depart="110.00" departLane="np13_nt13_0" departPos="39.82" departSpeed="0.00" departDelay="0.91" arrival="279.00" arrivalLane="nt4_np5_0" arrivalPos="75.00" arrivalSpeed="16.90" duration="169.00" routeLength="1308.07" waitingTime="33.00" waitingCount="4" stopTime="0.00" timeLoss="67.69" rerouteNo="0" devices="tripinfo_f_0_0.8" vType="type1" speedFactor="0.90" vaporized=""/>
    <tripinfo id="f_0_0.9" depart="123.00" departLane="np13_nt13_0" departPos="66.80" departSpeed="0.00" departDelay="0.28" arrival="280.00" arrivalLane="nt4_np5_0" arrivalPos="75.00" arrivalSpeed="21.80" duration="157.00" routeLength="1281.09" waitingTime="47.00" waitingCount="3" stopTime="0.00" timeLoss="78.33" rerouteNo="0" devices="tripinfo_f_0_0.9" vType="type1" speedFactor="1.14" vaporized=""/>
    <tripinfo id="f_0_2.11" depart="90.00" departLane="np2_nt2_0" departPos="26.35" departSpeed="0.00" departDelay="0.00" arrival="287.00" arrivalLane="nt15_np10_0" arrivalPos="75.00" arrivalSpeed="11.23" duration="197.00" routeLength="924.73" waitingTime="38.00" waitingCount="6" stopTime="0.00" timeLoss="121.47" rerouteNo="0" devices="tripinfo_f_0_2.11" vType="type1" speedFactor="1.03" vaporized=""/>
    <tripinfo id="f_0_2.12" depart="99.00" departLane="np2_nt2_0" departPos="15.08" departSpeed="0.00" departDelay="0.82" arrival="291.00" arrivalLane="nt15_np10_0" arrivalPos="75.00" arrivalSpeed="8.82" duration="192.00" routeLength="936.00" waitingTime="33.00" waitingCount="5" stopTime="0.00" timeLoss="105.54" rerouteNo="0" devices="tripinfo_f_0_2.12" vType="type1" speedFactor="0.92" vaporized=""/>
    <tripinfo id="f_0_2.13" depart="107.00" departLane="np2_nt2_0" departPos="27.41" departSpeed="0.00" departDelay="0.63" arrival="293.00" arrivalLane="nt15_np10_0" arrivalPos="75.00" arrivalSpeed="11.73" duration="186.00" routeLength="923.67" waitingTime="26.00" waitingCount="5" stopTime="0.00" timeLoss="124.34" rerouteNo="0" devices="tripinfo_f_0_2.13" vType="type1" speedFactor="1.27" vaporized=""/>
    <tripinfo id="f_0_3.15" depart="123.00" departLane="np3_nt3_0" departPos="35.07" departSpeed="0.00" departDelay="0.27" arrival="293.00" arrivalLane="nt14_np11_0" arrivalPos="75.00" arrivalSpeed="10.72" duration="170.00" routeLength="916.02" waitingTime="62.00" waitingCount="6" stopTime="0.00" timeLoss="93.52" rerouteNo="0" devices="tripinfo_f_0_3.15" vType="type1" speedFactor="1.01" vaporized=""/>
    <tripinfo id="f_0_3.16" depart="131.00" departLane="np3_nt3_0" departPos="31.44" departSpeed="0.00" departDelay="0.09" arrival="295.00" arrivalLane="nt14_np11_0" arrivalPos="75.00" arrivalSpeed="11.38" duration="164.00" routeLength="919.65" waitingTime="59.00" waitingCount="6" stopTime="0.00" timeLoss="90.24" rerouteNo="0" devices="tripinfo_f_0_3.16" vType="type1" speedFactor="1.05" vaporized=""/>
    <tripinfo id="f_0_1.6" depart="82.00" departLane="np16_nt1_0" departPos="67.57" departSpeed="0.00" departDelay="0.18" arrival="297.00" arrivalLane="nt16_np8_0" arrivalPos="75.00" arrivalSpeed="22.91" duration="215.00" routeLength="1280.31" waitingTime="39.00" waitingCount="7" stopTime="0.00" timeLoss="137.22" rerouteNo="0" devices="tripinfo_f_0_1.6" vType="type1" speedFactor="1.15" vaporized=""/>
    <tripinfo id="f_0_2.14" depart="115.00" departLane="np2_nt2_0" departPos="15.65" departSpeed="0.00" departDelay="0.45" arrival="301.00" arrivalLane="nt15_np10_0" arrivalPos="75.00" arrivalSpeed="12.29" duration="186.00" routeLength="935.43" waitingTime="21.00" waitingCount="5" stopTime="0.00" timeLoss="119.19" rerouteNo="0" devices="tripinfo_f_0_2.14" vType="type1" speedFactor="1.17" vaporized=""/>
    <tripinfo id="f_0_3.17" depart="140.00" departLane="np3_nt3_0" departPos="1.94" departSpeed="0.00" departDelay="0.91" arrival="302.00" arrivalLane="nt14_np11_0" arrivalPos="75.00" arrivalSpeed="9.01" duration="162.00" routeLength="949.15" waitingTime="46.00" waitingCount="5" stopTime="0.00" timeLoss="78.34" rerouteNo="0" devices="tripinfo_f_0_3.17" vType="type1" speedFactor="0.95" vaporized=""/>
    <tripinfo id="f_0_0.10" depart="137.00" departLane="np13_nt13_0" departPos="36.05" departSpeed="0.00" departDelay="0.64" arrival="303.00" arrivalLane="nt4_np5_0" arrivalPos="75.00" arrivalSpeed="21.63" duration="166.00" routeLength="1311.84" waitingTime="43.00" waitingCount="4" stopTime="0.00" timeLoss="83.76" rerouteNo="0" devices="tripinfo_f_0_0.10" vType="type1" speedFactor="1.11" vaporized=""/>
    <tripinfo id="f_0_2.15" depart="123.00" departLane="np2_nt2_0" departPos="36.85" departSpeed="0.00" departDelay="0.27" arrival="306.00" arrivalLane="nt15_np10_0" arrivalPos="75.00" arrivalSpeed="8.91" duration="183.00" routeLength="914.23" waitingTime="19.00" waitingCount="3" stopTime="0.00" timeLoss="98.03" rerouteNo="0" devices="tripinfo_f_0_2.15" vType="type1" speedFactor="0.91" vaporized=""/>
    <tripinfo id="f_0_3.18" depart="148.00" departLane="np3_nt3_0" departPos="7.94" departSpeed="0.00" departDelay="0.72" arrival="306.00" arrivalLane="nt14_np11_0" arrivalPos="75.00" arrivalSpeed="7.61" duration="158.00" routeLength="943.15" waitingTime="33.00" waitingCount="4" stopTime="0.00" timeLoss="64.64" rerouteNo="0" devices="tripinfo_f_0_3.18" vType="type1" speedFactor="0.85" vaporized=""/>
    <tripinfo id="f_0_1.7" depart="96.00" departLane="np16_nt1_0" departPos="10.29" departSpeed="0.00" departDelay="0.55" arrival="308.00" arrivalLane="nt16_np8_0" arrivalPos="75.00" arrivalSpeed="17.43" duration="212.00" routeLength="1337.59" waitingTime="26.00" waitingCount="6" stopTime="0.00" timeLoss="116.88" rerouteNo="0" devices="tripinfo_f_0_1.7" vType="type1" speedFactor="0.98" vaporized=""/>
    <tripinfo id="f_0_2.16" depart="131.00" departLane="np2_nt2_0" departPos="42.79" departSpeed="0.00" departDelay="0.09" arrival="308.00" arrivalLane="nt15_np10_0" arrivalPos="75.00" arrivalSpeed="11.79" duration="177.00" routeLength="908.29" waitingTime="18.00" waitingCount="5" stopTime="0.00" timeLoss="114.10" rerouteNo="0" devices="tripinfo_f_0_2.16" vType="type1" speedFactor="1.21" vaporized=""/>
    <tripinfo id="f_0_3.19" depart="156.00" departLane="np3_nt3_0" departPos="33.52" departSpeed="0.00" departDelay="0.54" arrival="308.00" arrivalLane="nt14_np11_0" arrivalPos="75.00" arrivalSpeed="9.48" duration="152.00" routeLength="917.57" waitingTime="24.00" waitingCount="4" stopTime="0.00" timeLoss="63.71" rerouteNo="0" devices="tripinfo_f_0_3.19" vType="type1" speedFactor="0.87" vaporized=""/>
    <tripinfo id="f_0_2.17" depart="140.00" departLane="np2_nt2_0" departPos="19.17" departSpeed="0.00" departDelay="0.91" arrival="313.00" arrivalLane="nt15_np10_0" arrivalPos="75.00" arrivalSpeed="9.40" duration="173.00" routeLength="931.91" waitingTime="30.00" waitingCount="4" stopTime="0.00" timeLoss="99.88" rerouteNo="0" devices="tripinfo_f_0_2.17" vType="type1" speedFactor="1.07" vaporized=""/>
    <tripinfo id="f_0_0.11" depart="150.00" departLane="np13_nt13_0" departPos="4.53" departSpeed="0.00" departDelay="0.00" arrival="313.00" arrivalLane="nt4_np5_0" arrivalPos="75.00" arrivalSpeed="20.15" duration="163.00" routeLength="1343.36" waitingTime="40.00" waitingCount="5" stopTime="0.00" timeLoss="78.24" rerouteNo="0" devices="tripinfo_f_0_0.11" vType="type1" speedFactor="1.10" vaporized=""/>
    <tripinfo id="f_0_1.8" depart="110.00" departLane="np16_nt1_0" departPos="48.96" departSpeed="0.00" departDelay="0.91" arrival="315.00" arrivalLane="nt16_np8_0" arrivalPos="75.00" arrivalSpeed="20.11" duration="205.00" routeLength="1298.92" waitingTime="23.00" waitingCount="4" stopTime="0.00" timeLoss="118.49" rerouteNo="0" devices="tripinfo_f_0_1.8" vType="type1" speedFactor="1.06" vaporized=""/>
    <tripinfo id="f_0_0.12" depart="164.00" departLane="np13_nt13_0" departPos="56.84" departSpeed="0.00" departDelay="0.37" arrival="315.00" arrivalLane="nt4_np5_0" arrivalPos="75.00" arrivalSpeed="18.07" duration="151.00" routeLength="1291.05" waitingTime="29.00" waitingCount="4" stopTime="0.00" timeLoss="63.10" rerouteNo="0" devices="tripinfo_f_0_0.12" vType="type1" speedFactor="1.03" vaporized=""/>
    <tripinfo id="f_0_2.18" depart="148.00" departLane="np2_nt2_0" departPos="2.37" departSpeed="0.00" departDelay="0.72" arrival="316.00" arrivalLane="nt15_np10_0" arrivalPos="75.00" arrivalSpeed="10.24" duration="168.00" routeLength="948.71" waitingTime="28.00" waitingCount="5" stopTime="0.00" timeLoss="87.26" rerouteNo="0" devices="tripinfo_f_0_2.18" vType="type1" speedFactor="0.99" vaporized=""/>
    <tripinfo id="f_0_1.9" depart="123.00" departLane="np16_nt1_0" departPos="65.42" departSpeed="0.00" departDelay="0.28" arrival="317.00" arrivalLane="nt16_np8_0" arrivalPos="75.00" arrivalSpeed="22.91" duration="194.00" routeLength="1282.46" waitingTime="33.00" waitingCount="4" stopTime="0.00" timeLoss="117.88" rerouteNo="0" devices="tripinfo_f_0_1.9" vType="type1" speedFactor="1.19" vaporized=""/>
    <tripinfo id="f_0_2.19" depart="156.00" departLane="np2_nt2_0" departPos="26.89" departSpeed="0.00" departDelay="0.54" arrival="318.00" arrivalLane="nt15_np10_0" arrivalPos="75.00" arrivalSpeed="10.60" duration="162.00" routeLength="924.19" waitingTime="23.00" waitingCount="5" stopTime="0.00" timeLoss="89.81" rerouteNo="0" devices="tripinfo_f_0_2.19" vType="type1" speedFactor="1.08" vaporized=""/>
    <tripinfo id="f_0_3.20" depart="164.00" departLane="np3_nt3_0" departPos="20.77" departSpeed="0.00" departDelay="0.36" arrival="322.00" arrivalLane="nt14_np11_0" arrivalPos="75.00" arrivalSpeed="6.29" duration="158.00" routeLength="930.32" waitingTime="8.00" waitingCount="2" stopTime="0.00" timeLoss="45.86" rerouteNo="0" devices="tripinfo_f_0_3.20" vType="type1" speedFactor="0.70" vaporized=""/>
    <tripinfo id="f_0_3.21" depart="172.00" departLane="np3_nt3_0" departPos="26.21" departSpeed="0.00" departDelay="0.18" arrival="324.00" arrivalLane="nt14_np11_0" arrivalPos="75.00" arrivalSpeed="9.85" duration="152.00" routeLength="924.88" waitingTime="19.00" waitingCount="3" stopTime="0.00" timeLoss="81.38" rerouteNo="0" devices="tripinfo_f_0_3.21" vType="type1" speedFactor="1.10" vaporized=""/>
    <tripinfo id="f_0_3.22" depart="180.00" departLane="np3_nt3_0" departPos="36.13" departSpeed="0.00" departDelay="0.00" arrival="326.00" arrivalLane="nt14_np11_0" arrivalPos="75.00" arrivalSpeed="7.22" duration="146.00" routeLength="914.96" waitingTime="20.00" waitingCount="4" stopTime="0.00" timeLoss="59.08" rerouteNo="0" devices="tripinfo_f_0_3.22" vType="type1" speedFactor="0.88" vaporized=""/>
    <tripinfo id="f_0_3.23" depart="189.00" departLane="np3_nt3_0" departPos="34.06" departSpeed="0.00" departDelay="0.81" arrival="329.00" arrivalLane="nt14_np11_0" arrivalPos="75.00" arrivalSpeed="7.45" duration="140.00" routeLength="917.03" waitingTime="9.00" waitingCount="3" stopTime="0.00" timeLoss="51.90" rerouteNo="0" devices="tripinfo_f_0_3.23" vType="type1" speedFactor="0.88" vaporized=""/>
    <tripinfo id="f_0_3.24" depart="197.00" departLane="np3_nt3_0" departPos="29.54" departSpeed="0.00" departDelay="0.63" arrival="331.00" arrivalLane="nt14_np11_0" arrivalPos="75.00" arrivalSpeed="8.57" duration="134.00" routeLength="921.55" waitingTime="14.00" waitingCount="4" stopTime="0.00" timeLoss="54.78" rerouteNo="0" devices="tripinfo_f_0_3.24" vType="type1" speedFactor="0.98" vaporized=""/>
    <tripinfo id="f_0_1.10" depart="137.00" departLane="np16_nt1_0" departPos="5.63" departSpeed="0.00" departDelay="0.64" arrival="333.00" arrivalLane="nt16_np8_0" arrivalPos="75.00" arrivalSpeed="18.85" duration="196.00" routeLength="1342.25" waitingTime="33.00" waitingCount="6" stopTime="0.00" timeLoss="98.91" rerouteNo="0" devices="tripinfo_f_0_1.10" vType="type1" speedFactor="0.95" vaporized=""/>
    <tripinfo id="f_0_0.13" depart="178.00" departLane="np13_nt13_0" departPos="15.17" departSpeed="0.00" departDelay="0.73" arrival="333.00" arrivalLane="nt4_np5_0" arrivalPos="75.00" arrivalSpeed="19.19" duration="155.00" routeLength="1332.72" waitingTime="31.00" waitingCount="4" stopTime="0.00" timeLoss="66.78" rerouteNo="0" devices="tripinfo_f_0_0.13" vType="type1" speedFactor="1.04" vaporized=""/>
    <tripinfo id="f_0_3.25" depart="205.00" departLane="np3_nt3_0" departPos="17.87" departSpeed="0.00" departDelay="0.45" arrival="333.00" arrivalLane="nt14_np11_0" arrivalPos="75.00" arrivalSpeed="11.11" duration="128.00" routeLength="933.22" waitingTime="23.00" waitingCount="3" stopTime="0.00" timeLoss="50.51" rerouteNo="0" devices="tripinfo_f_0_3.25" vType="type1" speedFactor="1.02" vaporized=""/>