<?xml version="1.0" encoding="UTF-8"?>

<!-- generated on 2023-08-23 16:43:20 by Eclipse SUMO libsumo Version 1.18.0
<configuration xmlns:xsi="http://www.w3.org/2001/XMLSchema-instance" xsi:noNamespaceSchemaLocation="http://sumo.dlr.de/xsd/libsumoConfiguration.xsd">

    <input>
        <net-file value="/home/stefan/RESCO/./environments/arterial4x4/arterial4x4.net.xml"/>
        <route-files value="/home/stefan/RESCO/./environments/arterial4x4/arterial4x4_65.rou.xml"/>
    </input>

    <output>
        <tripinfo-output value="/home/stefan/results/IDDQN-tr0-arterial4x4-0-drq_norm-wait_norm/tripinfo_65.xml"/>
        <tripinfo-output.write-unfinished value="true"/>
    </output>

    <processing>
        <time-to-teleport value="-1"/>
    </processing>

    <report>
        <no-warnings value="True"/>
        <no-step-log value="True"/>
    </report>

    <random_number>
        <random value="true"/>
    </random_number>

</configuration>
-->

<tripinfos xmlns:xsi="http://www.w3.org/2001/XMLSchema-instance" xsi:noNamespaceSchemaLocation="http://sumo.dlr.de/xsd/tripinfo_file.xsd">
    <tripinfo id="f_0_3.0" depart="0.00" departLane="np3_nt3_0" departPos="34.30" departSpeed="0.00" departDelay="0.00" arrival="129.00" arrivalLane="nt14_np11_0" arrivalPos="75.00" arrivalSpeed="7.93" duration="129.00" routeLength="916.79" waitingTime="26.00" waitingCount="4" stopTime="0.00" timeLoss="47.42" rerouteNo="0" devices="tripinfo_f_0_3.0" vType="type1" speedFactor="0.94" vaporized=""/>
    <tripinfo id="f_0_2.0" depart="0.00" departLane="np2_nt2_0" departPos="14.66" departSpeed="0.00" departDelay="0.00" arrival="148.00" arrivalLane="nt15_np10_0" arrivalPos="75.00" arrivalSpeed="10.57" duration="148.00" routeLength="936.42" waitingTime="45.00" waitingCount="5" stopTime="0.00" timeLoss="67.57" rerouteNo="0" devices="tripinfo_f_0_2.0" vType="type1" speedFactor="0.98" vaporized=""/>
    <tripinfo id="f_0_3.1" depart="9.00" departLane="np3_nt3_0" departPos="5.80" departSpeed="0.00" departDelay="0.82" arrival="157.00" arrivalLane="nt14_np11_0" arrivalPos="75.00" arrivalSpeed="9.31" duration="148.00" routeLength="945.29" waitingTime="40.00" waitingCount="4" stopTime="0.00" timeLoss="71.46" rerouteNo="0" devices="tripinfo_f_0_3.1" vType="type1" speedFactor="1.04" vaporized=""/>
    <tripinfo id="f_0_3.2" depart="17.00" departLane="np3_nt3_0" departPos="52.35" departSpeed="0.00" departDelay="0.64" arrival="159.00" arrivalLane="nt14_np11_0" arrivalPos="75.00" arrivalSpeed="10.72" duration="142.00" routeLength="898.74" waitingTime="42.00" waitingCount="6" stopTime="0.00" timeLoss="70.91" rerouteNo="0" devices="tripinfo_f_0_3.2" vType="type1" speedFactor="1.07" vaporized=""/>
    <tripinfo id="f_0_3.3" depart="25.00" departLane="np3_nt3_0" departPos="60.08" departSpeed="0.00" departDelay="0.45" arrival="161.00" arrivalLane="nt14_np11_0" arrivalPos="75.00" arrivalSpeed="11.30" duration="136.00" routeLength="891.01" waitingTime="32.00" waitingCount="6" stopTime="0.00" timeLoss="64.87" rerouteNo="0" devices="tripinfo_f_0_3.3" vType="type1" speedFactor="1.05" vaporized=""/>
    <tripinfo id="f_0_3.4" depart="33.00" departLane="np3_nt3_0" departPos="25.57" departSpeed="0.00" departDelay="0.27" arrival="163.00" arrivalLane="nt14_np11_0" arrivalPos="75.00" arrivalSpeed="8.57" duration="130.00" routeLength="925.52" waitingTime="23.00" waitingCount="6" stopTime="0.00" timeLoss="49.71" rerouteNo="0" devices="tripinfo_f_0_3.4" vType="type1" speedFactor="0.96" vaporized=""/>
    <tripinfo id="f_0_2.1" depart="9.00" departLane="np2_nt2_0" departPos="25.77" departSpeed="0.00" departDelay="0.82" arrival="166.00" arrivalLane="nt15_np10_0" arrivalPos="75.00" arrivalSpeed="10.69" duration="157.00" routeLength="925.31" waitingTime="55.00" waitingCount="7" stopTime="0.00" timeLoss="87.76" rerouteNo="0" devices="tripinfo_f_0_2.1" vType="type1" speedFactor="1.12" vaporized=""/>
    <tripinfo id="f_0_3.5" depart="41.00" departLane="np3_nt3_0" departPos="14.01" departSpeed="0.00" departDelay="0.09" arrival="177.00" arrivalLane="nt14_np11_0" arrivalPos="75.00" arrivalSpeed="9.03" duration="136.00" routeLength="937.08" waitingTime="20.00" waitingCount="5" stopTime="0.00" timeLoss="61.09" rerouteNo="0" devices="tripinfo_f_0_3.5" vType="type1" speedFactor="1.05" vaporized=""/>
    <tripinfo id="f_0_2.2" depart="17.00" departLane="np2_nt2_0" departPos="17.34" departSpeed="0.00" departDelay="0.64" arrival="179.00" arrivalLane="nt15_np10_0" arrivalPos="75.00" arrivalSpeed="11.06" duration="162.00" routeLength="933.74" waitingTime="38.00" waitingCount="7" stopTime="0.00" timeLoss="87.09" rerouteNo="0" devices="tripinfo_f_0_2.2" vType="type1" speedFactor="1.05" vaporized=""/>
    <tripinfo id="f_0_3.6" depart="50.00" departLane="np3_nt3_0" departPos="55.23" departSpeed="0.00" departDelay="0.91" arrival="179.00" arrivalLane="nt14_np11_0" arrivalPos="75.00" arrivalSpeed="10.96" duration="129.00" routeLength="895.86" waitingTime="24.00" waitingCount="3" stopTime="0.00" timeLoss="55.90" rerouteNo="0" devices="tripinfo_f_0_3.6" vType="type1" speedFactor="1.03" vaporized=""/>
    <tripinfo id="f_0_1.0" depart="0.00" departLane="np16_nt1_0" departPos="31.91" departSpeed="0.00" departDelay="0.00" arrival="182.00" arrivalLane="nt16_np8_0" arrivalPos="75.00" arrivalSpeed="15.80" duration="182.00" routeLength="1315.97" waitingTime="41.00" waitingCount="6" stopTime="0.00" timeLoss="73.61" rerouteNo="0" devices="tripinfo_f_0_1.0" vType="type1" speedFactor="0.85" vaporized=""/>
    <tripinfo id="f_0_2.3" depart="25.00" departLane="np2_nt2_0" departPos="14.70" departSpeed="0.00" departDelay="0.45" arrival="182.00" arrivalLane="nt15_np10_0" arrivalPos="75.00" arrivalSpeed="9.22" duration="157.00" routeLength="936.38" waitingTime="21.00" waitingCount="4" stopTime="0.00" timeLoss="72.33" rerouteNo="0" devices="tripinfo_f_0_2.3" vType="type1" speedFactor="0.93" vaporized=""/>
    <tripinfo id="f_0_1.1" depart="14.00" departLane="np16_nt1_0" departPos="65.34" departSpeed="0.00" departDelay="0.36" arrival="183.00" arrivalLane="nt16_np8_0" arrivalPos="75.00" arrivalSpeed="21.37" duration="169.00" routeLength="1282.54" waitingTime="32.00" waitingCount="5" stopTime="0.00" timeLoss="95.03" rerouteNo="0" devices="tripinfo_f_0_1.1" vType="type1" speedFactor="1.22" vaporized=""/>
    <tripinfo id="f_0_2.4" depart="33.00" departLane="np2_nt2_0" departPos="2.46" departSpeed="0.00" departDelay="0.27" arrival="184.00" arrivalLane="nt15_np10_0" arrivalPos="75.00" arrivalSpeed="11.37" duration="151.00" routeLength="948.62" waitingTime="23.00" waitingCount="5" stopTime="0.00" timeLoss="75.47" rerouteNo="0" devices="tripinfo_f_0_2.4" vType="type1" speedFactor="1.06" vaporized=""/>
    <tripinfo id="f_0_1.2" depart="28.00" departLane="np16_nt1_0" departPos="53.62" departSpeed="0.00" departDelay="0.73" arrival="193.00" arrivalLane="nt16_np8_0" arrivalPos="75.00" arrivalSpeed="19.79" duration="165.00" routeLength="1294.26" waitingTime="28.00" waitingCount="6" stopTime="0.00" timeLoss="76.33" rerouteNo="0" devices="tripinfo_f_0_1.2" vType="type1" speedFactor="1.02" vaporized=""/>
    <tripinfo id="f_0_2.5" depart="41.00" departLane="np2_nt2_0" departPos="5.53" departSpeed="0.00" departDelay="0.09" arrival="202.00" arrivalLane="nt15_np10_0" arrivalPos="75.00" arrivalSpeed="8.97" duration="161.00" routeLength="945.55" waitingTime="47.00" waitingCount="7" stopTime="0.00" timeLoss="84.40" rerouteNo="0" devices="tripinfo_f_0_2.5" vType="type1" speedFactor="1.03" vaporized=""/>
    <tripinfo id="f_0_0.0" depart="0.00" departLane="np13_nt13_0" departPos="25.73" departSpeed="0.00" departDelay="0.00" arrival="214.00" arrivalLane="nt4_np5_0" arrivalPos="75.00" arrivalSpeed="13.00" duration="214.00" routeLength="1322.16" waitingTime="61.00" waitingCount="5" stopTime="0.00" timeLoss="94.99" rerouteNo="0" devices="tripinfo_f_0_0.0" vType="type1" speedFactor="0.77" vaporized=""/>
    <tripinfo id="f_0_0.1" depart="14.00" departLane="np13_nt13_0" departPos="6.69" departSpeed="0.00" departDelay="0.36" arrival="215.00" arrivalLane="nt4_np5_0" arrivalPos="75.00" arrivalSpeed="18.52" duration="201.00" routeLength="1341.20" waitingTime="41.00" waitingCount="5" stopTime="0.00" timeLoss="104.03" rerouteNo="0" devices="tripinfo_f_0_0.1" vType="type1" speedFactor="0.95" vaporized=""/>
    <tripinfo id="f_0_0.2" depart="28.00" departLane="np13_nt13_0" departPos="44.43" departSpeed="0.00" departDelay="0.73" arrival="217.00" arrivalLane="nt4_np5_0" arrivalPos="75.00" arrivalSpeed="19.98" duration="189.00" routeLength="1303.46" waitingTime="32.00" waitingCount="6" stopTime="0.00" timeLoss="105.01" rerouteNo="0" devices="tripinfo_f_0_0.2" vType="type1" speedFactor="1.08" vaporized=""/>
    <tripinfo id="f_0_2.6" depart="50.00" departLane="np2_nt2_0" departPos="16.54" departSpeed="0.00" departDelay="0.91" arrival="218.00" arrivalLane="nt15_np10_0" arrivalPos="75.00" arrivalSpeed="8.07" duration="168.00" routeLength="934.54" waitingTime="51.00" waitingCount="6" stopTime="0.00" timeLoss="81.75" rerouteNo="0" devices="tripinfo_f_0_2.6" vType="type1" speedFactor="0.91" vaporized=""/>
    <tripinfo id="f_0_3.7" depart="58.00" departLane="np3_nt3_0" departPos="15.27" departSpeed="0.00" departDelay="0.73" arrival="219.00" arrivalLane="nt14_np11_0" arrivalPos="75.00" arrivalSpeed="6.67" duration="161.00" routeLength="935.82" waitingTime="33.00" waitingCount="5" stopTime="0.00" timeLoss="65.56" rerouteNo="0" devices="tripinfo_f_0_3.7" vType="type1" speedFactor="0.82" vaporized=""/>
    <tripinfo id="f_0_3.8" depart="66.00" departLane="np3_nt3_0" departPos="26.73" departSpeed="0.00" departDelay="0.54" arrival="221.00" arrivalLane="nt14_np11_0" arrivalPos="75.00" arrivalSpeed="9.68" duration="155.00" routeLength="924.36" waitingTime="28.00" waitingCount="3" stopTime="0.00" timeLoss="68.18" rerouteNo="0" devices="tripinfo_f_0_3.8" vType="type1" speedFactor="0.89" vaporized=""/>
    <tripinfo id="f_0_3.9" depart="74.00" departLane="np3_nt3_0" departPos="26.22" departSpeed="0.00" departDelay="0.36" arrival="223.00" arrivalLane="nt14_np11_0" arrivalPos="75.00" arrivalSpeed="10.34" duration="149.00" routeLength="924.87" waitingTime="30.00" waitingCount="4" stopTime="0.00" timeLoss="70.30" rerouteNo="0" devices="tripinfo_f_0_3.9" vType="type1" speedFactor="0.99" vaporized=""/>
    <tripinfo id="f_0_3.10" depart="82.00" departLane="np3_nt3_0" departPos="50.87" departSpeed="0.00" departDelay="0.18" arrival="225.00" arrivalLane="nt14_np11_0" arrivalPos="75.00" arrivalSpeed="11.35" duration="143.00" routeLength="900.22" waitingTime="40.00" waitingCount="5" stopTime="0.00" timeLoss="70.10" rerouteNo="0" devices="tripinfo_f_0_3.10" vType="type1" speedFactor="1.04" vaporized=""/>
    <tripinfo id="f_0_1.3" depart="41.00" departLane="np16_nt1_0" departPos="30.47" departSpeed="0.00" departDelay="0.09" arrival="226.00" arrivalLane="nt16_np8_0" arrivalPos="75.00" arrivalSpeed="19.99" duration="185.00" routeLength="1317.41" waitingTime="49.00" waitingCount="7" stopTime="0.00" timeLoss="102.58" rerouteNo="0" devices="tripinfo_f_0_1.3" vType="type1" speedFactor="1.12" vaporized=""/>
    <tripinfo id="f_0_0.3" depart="41.00" departLane="np13_nt13_0" departPos="40.95" departSpeed="0.00" departDelay="0.09" arrival="228.00" arrivalLane="nt4_np5_0" arrivalPos="75.00" arrivalSpeed="18.87" duration="187.00" routeLength="1306.94" waitingTime="29.00" waitingCount="6" stopTime="0.00" timeLoss="97.24" rerouteNo="0" devices="tripinfo_f_0_0.3" vType="type1" speedFactor="1.02" vaporized=""/>
    <tripinfo id="f_0_0.4" depart="55.00" departLane="np13_nt13_0" departPos="18.33" departSpeed="0.00" departDelay="0.46" arrival="230.00" arrivalLane="nt4_np5_0" arrivalPos="75.00" arrivalSpeed="19.07" duration="175.00" routeLength="1329.56" waitingTime="34.00" waitingCount="6" stopTime="0.00" timeLoss="80.23" rerouteNo="0" devices="tripinfo_f_0_0.4" vType="type1" speedFactor="0.98" vaporized=""/>
    <tripinfo id="f_0_0.5" depart="69.00" departLane="np13_nt13_0" departPos="43.24" departSpeed="0.00" departDelay="0.82" arrival="238.00" arrivalLane="nt4_np5_0" arrivalPos="75.00" arrivalSpeed="19.96" duration="169.00" routeLength="1304.65" waitingTime="28.00" waitingCount="6" stopTime="0.00" timeLoss="80.56" rerouteNo="0" devices="tripinfo_f_0_0.5" vType="type1" speedFactor="1.03" vaporized=""/>
    <tripinfo id="f_0_3.11" depart="90.00" departLane="np3_nt3_0" departPos="29.08" departSpeed="0.00" departDelay="0.00" arrival="239.00" arrivalLane="nt14_np11_0" arrivalPos="75.00" arrivalSpeed="8.71" duration="149.00" routeLength="922.01" waitingTime="35.00" waitingCount="3" stopTime="0.00" timeLoss="60.63" rerouteNo="0" devices="tripinfo_f_0_3.11" vType="type1" speedFactor="0.88" vaporized=""/>
    <tripinfo id="f_0_3.12" depart="99.00" departLane="np3_nt3_0" departPos="42.66" departSpeed="0.00" departDelay="0.82" arrival="240.00" arrivalLane="nt14_np11_0" arrivalPos="75.00" arrivalSpeed="10.45" duration="141.00" routeLength="908.43" waitingTime="27.00" waitingCount="3" stopTime="0.00" timeLoss="61.87" rerouteNo="0" devices="tripinfo_f_0_3.12" vType="type1" speedFactor="0.96" vaporized=""/>
    <tripinfo id="f_0_0.6" depart="82.00" departLane="np13_nt13_0" departPos="5.47" departSpeed="0.00" departDelay="0.18" arrival="253.00" arrivalLane="nt4_np5_0" arrivalPos="75.00" arrivalSpeed="19.79" duration="171.00" routeLength="1342.42" waitingTime="30.00" waitingCount="6" stopTime="0.00" timeLoss="82.89" rerouteNo="0" devices="tripinfo_f_0_0.6" vType="type1" speedFactor="1.06" vaporized=""/>
    <tripinfo id="f_0_0.7" depart="96.00" departLane="np13_nt13_0" departPos="50.36" departSpeed="0.00" departDelay="0.55" arrival="255.00" arrivalLane="nt4_np5_0" arrivalPos="75.00" arrivalSpeed="19.69" duration="159.00" routeLength="1297.53" waitingTime="27.00" waitingCount="7" stopTime="0.00" timeLoss="68.11" rerouteNo="0" devices="tripinfo_f_0_0.7" vType="type1" speedFactor="1.00" vaporized=""/>
    <tripinfo id="f_0_2.7" depart="58.00" departLane="np2_nt2_0" departPos="50.16" departSpeed="0.00" departDelay="0.73" arrival="266.00" arrivalLane="nt15_np10_0" arrivalPos="75.00" arrivalSpeed="10.27" duration="208.00" routeLength="900.92" waitingTime="87.00" waitingCount="7" stopTime="0.00" timeLoss="140.84" rerouteNo="0" devices="tripinfo_f_0_2.7" vType="type1" speedFactor="1.12" vaporized=""/>
    <tripinfo id="f_0_2.8" depart="66.00" departLane="np2_nt2_0" departPos="34.11" departSpeed="0.00" departDelay="0.54" arrival="271.00" arrivalLane="nt15_np10_0" arrivalPos="75.00" arrivalSpeed="7.71" duration="205.00" routeLength="916.97" waitingTime="77.00" waitingCount="7" stopTime="0.00" timeLoss="119.60" rerouteNo="0" devices="tripinfo_f_0_2.8" vType="type1" speedFactor="0.91" vaporized=""/>
    <tripinfo id="f_0_2.9" depart="74.00" departLane="np2_nt2_0" departPos="60.90" departSpeed="0.00" departDelay="0.36" arrival="273.00" arrivalLane="nt15_np10_0" arrivalPos="75.00" arrivalSpeed="9.03" duration="199.00" routeLength="890.18" waitingTime="71.00" waitingCount="7" stopTime="0.00" timeLoss="112.47" rerouteNo="0" devices="tripinfo_f_0_2.9" vType="type1" speedFactor="0.86" vaporized=""/>
    <tripinfo id="f_0_0.8" depart="110.00" departLane="np13_nt13_0" departPos="38.26" departSpeed="0.00" departDelay="0.91" arrival="274.00" arrivalLane="nt4_np5_0" arrivalPos="75.00" arrivalSpeed="15.01" duration="164.00" routeLength="1309.63" waitingTime="19.00" waitingCount="5" stopTime="0.00" timeLoss="58.20" rerouteNo="0" devices="tripinfo_f_0_0.8" vType="type1" speedFactor="0.86" vaporized=""/>
    <tripinfo id="f_0_2.10" depart="82.00" departLane="np2_nt2_0" departPos="58.20" departSpeed="0.00" departDelay="0.18" arrival="275.00" arrivalLane="nt15_np10_0" arrivalPos="75.00" arrivalSpeed="8.57" duration="193.00" routeLength="892.88" waitingTime="65.00" waitingCount="6" stopTime="0.00" timeLoss="115.81" rerouteNo="0" devices="tripinfo_f_0_2.10" vType="type1" speedFactor="0.97" vaporized=""/>
    <tripinfo id="f_0_2.11" depart="90.00" departLane="np2_nt2_0" departPos="54.83" departSpeed="0.00" departDelay="0.00" arrival="278.00" arrivalLane="nt15_np10_0" arrivalPos="75.00" arrivalSpeed="8.78" duration="188.00" routeLength="896.25" waitingTime="55.00" waitingCount="6" stopTime="0.00" timeLoss="101.32" rerouteNo="0" devices="tripinfo_f_0_2.11" vType="type1" speedFactor="0.87" vaporized=""/>
    <tripinfo id="f_0_0.9" depart="123.00" departLane="np13_nt13_0" departPos="8.88" departSpeed="0.00" departDelay="0.28" arrival="282.00" arrivalLane="nt4_np5_0" arrivalPos="75.00" arrivalSpeed="16.76" duration="159.00" routeLength="1339.01" waitingTime="32.00" waitingCount="4" stopTime="0.00" timeLoss="59.29" rerouteNo="0" devices="tripinfo_f_0_0.9" vType="type1" speedFactor="0.93" vaporized=""/>
    <tripinfo id="f_0_2.12" depart="99.00" departLane="np2_nt2_0" departPos="38.25" departSpeed="0.00" departDelay="0.82" arrival="283.00" arrivalLane="nt15_np10_0" arrivalPos="75.00" arrivalSpeed="9.35" duration="184.00" routeLength="912.83" waitingTime="50.00" waitingCount="6" stopTime="0.00" timeLoss="104.61" rerouteNo="0" devices="tripinfo_f_0_2.12" vType="type1" speedFactor="0.96" vaporized=""/>
    <tripinfo id="f_0_1.4" depart="55.00" departLane="np16_nt1_0" departPos="22.64" departSpeed="0.00" departDelay="0.46" arrival="284.00" arrivalLane="nt16_np8_0" arrivalPos="75.00" arrivalSpeed="20.28" duration="229.00" routeLength="1325.24" waitingTime="81.00" waitingCount="7" stopTime="0.00" timeLoss="145.18" rerouteNo="0" devices="tripinfo_f_0_1.4" vType="type1" speedFactor="1.10" vaporized=""/>
    <tripinfo id="f_0_2.13" depart="107.00" departLane="np2_nt2_0" departPos="10.53" departSpeed="0.00" departDelay="0.63" arrival="285.00" arrivalLane="nt15_np10_0" arrivalPos="75.00" arrivalSpeed="9.87" duration="178.00" routeLength="940.55" waitingTime="45.00" waitingCount="5" stopTime="0.00" timeLoss="94.29" rerouteNo="0" devices="tripinfo_f_0_2.13" vType="type1" speedFactor="0.94" vaporized=""/>
    <tripinfo id="f_0_1.5" depart="69.00" departLane="np16_nt1_0" departPos="5.77" departSpeed="0.00" departDelay="0.82" arrival="286.00" arrivalLane="nt16_np8_0" arrivalPos="75.00" arrivalSpeed="24.11" duration="217.00" routeLength="1342.11" waitingTime="69.00" waitingCount="6" stopTime="0.00" timeLoss="140.01" rerouteNo="0" devices="tripinfo_f_0_1.5" vType="type1" speedFactor="1.22" vaporized=""/>
    <tripinfo id="f_0_2.14" depart="115.00" departLane="np2_nt2_0" departPos="31.40" departSpeed="0.00" departDelay="0.45" arrival="294.00" arrivalLane="nt15_np10_0" arrivalPos="75.00" arrivalSpeed="9.54" duration="179.00" routeLength="919.68" waitingTime="41.00" waitingCount="5" stopTime="0.00" timeLoss="97.64" rerouteNo="0" devices="tripinfo_f_0_2.14" vType="type1" speedFactor="0.95" vaporized=""/>
    <tripinfo id="f_0_1.6" depart="82.00" departLane="np16_nt1_0" departPos="19.10" departSpeed="0.00" departDelay="0.18" arrival="295.00" arrivalLane="nt16_np8_0" arrivalPos="75.00" arrivalSpeed="18.17" duration="213.00" routeLength="1328.78" waitingTime="65.00" waitingCount="6" stopTime="0.00" timeLoss="117.04" rerouteNo="0" devices="tripinfo_f_0_1.6" vType="type1" speedFactor="0.97" vaporized=""/>
    <tripinfo id="f_0_2.15" depart="123.00" departLane="np2_nt2_0" departPos="45.76" departSpeed="0.00" departDelay="0.27" arrival="296.00" arrivalLane="nt15_np10_0" arrivalPos="75.00" arrivalSpeed="11.08" duration="173.00" routeLength="905.32" waitingTime="39.00" waitingCount="6" stopTime="0.00" timeLoss="98.48" rerouteNo="0" devices="tripinfo_f_0_2.15" vType="type1" speedFactor="1.02" vaporized=""/>
    <tripinfo id="f_0_2.16" depart="131.00" departLane="np2_nt2_0" departPos="22.09" departSpeed="0.00" departDelay="0.09" arrival="298.00" arrivalLane="nt15_np10_0" arrivalPos="75.00" arrivalSpeed="11.39" duration="167.00" routeLength="928.99" waitingTime="40.00" waitingCount="6" stopTime="0.00" timeLoss="91.80" rerouteNo="0" devices="tripinfo_f_0_2.16" vType="type1" speedFactor="1.04" vaporized=""/>
    <tripinfo id="f_0_1.7" depart="96.00" departLane="np16_nt1_0" departPos="0.21" departSpeed="0.00" departDelay="0.55" arrival="301.00" arrivalLane="nt16_np8_0" arrivalPos="75.00" arrivalSpeed="15.94" duration="205.00" routeLength="1347.67" waitingTime="42.00" waitingCount="4" stopTime="0.00" timeLoss="97.02" rerouteNo="0" devices="tripinfo_f_0_1.7" vType="type1" speedFactor="0.87" vaporized=""/>
    <tripinfo id="f_0_3.13" depart="107.00" departLane="np3_nt3_0" departPos="30.97" departSpeed="0.00" departDelay="0.63" arrival="308.00" arrivalLane="nt14_np11_0" arrivalPos="75.00" arrivalSpeed="10.20" duration="201.00" routeLength="920.12" waitingTime="91.00" waitingCount="5" stopTime="0.00" timeLoss="118.18" rerouteNo="0" devices="tripinfo_f_0_3.13" vType="type1" speedFactor="0.93" vaporized=""/>
    <tripinfo id="f_0_1.8" depart="110.00" departLane="np16_nt1_0" departPos="67.22" departSpeed="0.00" departDelay="0.91" arrival="309.00" arrivalLane="nt16_np8_0" arrivalPos="75.00" arrivalSpeed="21.00" duration="199.00" routeLength="1280.66" waitingTime="50.00" waitingCount="8" stopTime="0.00" timeLoss="113.50" rerouteNo="0" devices="tripinfo_f_0_1.8" vType="type1" speedFactor="1.06" vaporized=""/>
    <tripinfo id="f_0_3.14" depart="115.00" departLane="np3_nt3_0" departPos="11.54" departSpeed="0.00" departDelay="0.45" arrival="310.00" arrivalLane="nt14_np11_0" arrivalPos="75.00" arrivalSpeed="11.31" duration="195.00" routeLength="939.55" waitingTime="86.00" waitingCount="5" stopTime="0.00" timeLoss="120.41" rerouteNo="0" devices="tripinfo_f_0_3.14" vType="type1" speedFactor="1.07" vaporized=""/>
    <tripinfo id="f_0_3.15" depart="123.00" departLane="np3_nt3_0" departPos="47.92" departSpeed="0.00" departDelay="0.27" arrival="312.00" arrivalLane="nt14_np11_0" arrivalPos="75.00" arrivalSpeed="8.15" duration="189.00" routeLength="903.17" waitingTime="74.00" waitingCount="7" stopTime="0.00" timeLoss="107.87" rerouteNo="0" devices="tripinfo_f_0_3.15" vType="type1" speedFactor="0.93" vaporized=""/>
    <tripinfo id="f_0_2.17" depart="140.00" departLane="np2_nt2_0" departPos="27.82" departSpeed="0.00" departDelay="0.91" arrival="312.00" arrivalLane="nt15_np10_0" arrivalPos="75.00" arrivalSpeed="10.14" duration="172.00" routeLength="923.26" waitingTime="38.00" waitingCount="6" stopTime="0.00" timeLoss="97.78" rerouteNo="0" devices="tripinfo_f_0_2.17" vType="type1" speedFactor="1.04" vaporized=""/>
    <tripinfo id="f_0_3.16" depart="131.00" departLane="np3_nt3_0" departPos="22.26" departSpeed="0.00" departDelay="0.09" arrival="314.00" arrivalLane="nt14_np11_0" arrivalPos="75.00" arrivalSpeed="9.21" duration="183.00" routeLength="928.83" waitingTime="62.00" waitingCount="5" stopTime="0.00" timeLoss="101.66" rerouteNo="0" devices="tripinfo_f_0_3.16" vType="type1" speedFactor="0.96" vaporized=""/>
    <tripinfo id="f_0_3.17" depart="140.00" departLane="np3_nt3_0" departPos="8.04" departSpeed="0.00" departDelay="0.91" arrival="316.00" arrivalLane="nt14_np11_0" arrivalPos="75.00" arrivalSpeed="9.99" duration="176.00" routeLength="943.05" waitingTime="55.00" waitingCount="6" stopTime="0.00" timeLoss="103.42" rerouteNo="0" devices="tripinfo_f_0_3.17" vType="type1" speedFactor="1.09" vaporized=""/>
    <tripinfo id="f_0_3.18" depart="148.00" departLane="np3_nt3_0" departPos="46.38" departSpeed="0.00" departDelay="0.72" arrival="320.00" arrivalLane="nt14_np11_0" arrivalPos="75.00" arrivalSpeed="7.86" duration="172.00" routeLength="904.71" waitingTime="41.00" waitingCount="7" stopTime="0.00" timeLoss="81.46" rerouteNo="0" devices="tripinfo_f_0_3.18" vType="type1" speedFactor="0.84" vaporized=""/>
    <tripinfo id="f_0_0.10" depart="137.00" departLane="np13_nt13_0" departPos="27.98" departSpeed="0.00" departDelay="0.64" arrival="323.00" arrivalLane="nt4_np5_0" arrivalPos="75.00" arrivalSpeed="22.13" duration="186.00" routeLength="1319.91" waitingTime="65.00" waitingCount="6" stopTime="0.00" timeLoss="104.63" rerouteNo="0" devices="tripinfo_f_0_0.10" vType="type1" speedFactor="1.13" vaporized=""/>
    <tripinfo id="f_0_0.11" depart="150.00" departLane="np13_nt13_0" departPos="7.30" departSpeed="0.00" departDelay="0.00" arrival="325.00" arrivalLane="nt4_np5_0" arrivalPos="75.00" arrivalSpeed="21.45" duration="175.00" routeLength="1340.59" waitingTime="51.00" waitingCount="5" stopTime="0.00" timeLoss="92.57" rerouteNo="0" devices="tripinfo_f_0_0.11" vType="type1" speedFactor="1.13" vaporized=""/>
    <tripinfo id="f_0_0.12" depart="164.00" departLane="np13_nt13_0" departPos="30.20" departSpeed="0.00" departDelay="0.37" arrival="327.00" arrivalLane="nt4_np5_0" arrivalPos="75.00" arrivalSpeed="19.15" duration="163.00" routeLength="1317.69" waitingTime="39.00" waitingCount="6" stopTime="0.00" timeLoss="75.12" rerouteNo="0" devices="tripinfo_f_0_0.12" vType="type1" speedFactor="1.05" vaporized=""/>
    <tripinfo id="f_0_3.19" depart="156.00" departLane="np3_nt3_0" departPos="13.20" departSpeed="0.00" departDelay="0.54" arrival="329.00" arrivalLane="nt14_np11_0" arrivalPos="75.00" arrivalSpeed="8.66" duration="173.00" routeLength="937.89" waitingTime="34.00" waitingCount="6" stopTime="0.00" timeLoss="80.36" rerouteNo="0" devices="tripinfo_f_0_3.19" vType="type1" speedFactor="0.85" vaporized=""/>
    <tripinfo id="f_0_0.13" depart="178.00" departLane="np13_nt13_0" departPos="64.20" departSpeed="0.00" departDelay="0.73" arrival="329.00" arrivalLane="nt4_np5_0" arrivalPos="75.00" arrivalSpeed="18.40" duration="151.00" routeLength="1283.69" waitingTime="25.00" waitingCount="3" stopTime="0.00" timeLoss="57.14" rerouteNo="0" devices="tripinfo_f_0_0.13" vType="type1" speedFactor="0.96" vaporized=""/>
    <tripinfo id="f_0_3.20" depart="164.00" departLane="np3_nt3_0" departPos="6.03" departSpeed="0.00" departDelay="0.36" arrival="338.00" arrivalLane="nt14_np11_0" arrivalPos="75.00" arrivalSpeed="9.56" duration="174.00" routeLength="945.06" waitingTime="35.00" waitingCount="6" stopTime="0.00" timeLoss="90.22" rerouteNo="0" devices="tripinfo_f_0_3.20" vType="type1" speedFactor="0.95" vaporized=""/>
    <tripinfo id="f_0_3.21" depart="172.00" departLane="np3_nt3_0" departPos="37.56" departSpeed="0.00" departDelay="0.18" arrival="340.00" arrivalLane="nt14_np11_0" arrivalPos="75.00" arrivalSpeed="10.75" duration="168.00" routeLength="913.53" waitingTime="39.00" waitingCount="10" stopTime="0.00" timeLoss="96.55" rerouteNo="0" devices="tripinfo_f_0_3.21" vType="type1" speedFactor="1.07" vaporized=""/>
    <tripinfo id="f_0_3.22" depart="180.00" departLane="np3_nt3_0" departPos="20.93" departSpeed="0.00" departDelay="0.00" arrival="342.00" arrivalLane="nt14_np11_0" arrivalPos="75.00" arrivalSpeed="8.16" duration="162.00" routeLength="930.16" waitingTime="24.00" waitingCount="7" stopTime="0.00" timeLoss="79.51" rerouteNo="0" devices="tripinfo_f_0_3.22" vType="type1" speedFactor="0.95" vaporized=""/>
    <tripinfo id="f_0_3.23" depart="189.00" departLane="np3_nt3_0" departPos="3.69" departSpeed="0.00" departDelay="0.81" arrival="347.00" arrivalLane="nt14_np11_0" arrivalPos="75.00" arrivalSpeed="6.37" duration="158.00" routeLength="947.40" waitingTime="15.00" waitingCount="5" stopTime="0.00" timeLoss="55.45" rerouteNo="0" devices="tripinfo_f_0_3.23" vType="type1" speedFactor="0.78" vaporized=""/>
    <tripinfo id="f_0_2.18" depart="148.00" departLane="np2_nt2_0" departPos="31.96" departSpeed="0.00" departDelay="0.72" arrival="349.00" arrivalLane="nt15_np10_0" arrivalPos="75.00" arrivalSpeed="9.55" duration="201.00" routeLength="919.12" waitingTime="63.00" waitingCount="7" stopTime="0.00" timeLoss="112.30" rerouteNo="0" devices="tripinfo_f_0_2.18" vType="type1" speedFactor="0.87" vaporized=""/>
    <tripinfo id="f_0_2.19" depart="156.00" departLane="np2_nt2_0" departPos="29.04" departSpeed="0.00" departDelay="0.54" arrival="351.00" arrivalLane="nt15_np10_0" arrivalPos="75.00" arrivalSpeed="12.36" duration="195.00" routeLength="922.04" waitingTime="64.00" waitingCount="7" stopTime="0.00" timeLoss="126.53" rerouteNo="0" devices="tripinfo_f_0_2.19" vType="type1" speedFactor="1.13" vaporized=""/>
    <tripinfo id="f_0_3.24" depart="197.00" departLane="np3_nt3_0" departPos="9.96" departSpeed="0.00" departDelay="0.63" arrival="352.00" arrivalLane="nt14_np11_0" arrivalPos="75.00" arrivalSpeed="10.47" duration="155.00" routeLength="941.13" waitingTime="19.00" waitingCount="7" stopTime="0.00" timeLoss="81.04" rerouteNo="0" devices="tripinfo_f_0_3.24" vType="type1" speedFactor="1.07" vaporized=""/>
    <tripinfo id="f_0_2.20" depart="164.00" departLane="np2_nt2_0" departPos="3.23" departSpeed="0.00" departDelay="0.36" arrival="355.00" arrivalLane="nt15_np10_0" arrivalPos="75.00" arrivalSpeed="10.98" duration="191.00" routeLength="947.85" waitingTime="48.00" waitingCount="6" stopTime="0.00" timeLoss="121.65" rerouteNo="0" devices="tripinfo_f_0_2.20" vType="type1" speedFactor="1.16" vaporized=""/>
    <tripinfo id="f_0_2.21" depart="172.00" departLane="np2_nt2_0" departPos="12.36" departSpeed="0.00" departDelay="0.18" arrival="357.00" arrivalLane="nt15_np10_0" arrivalPos="75.00" arrivalSpeed="11.90" duration="185.00" routeLength="938.72" waitingTime="60.00" waitingCount="8" stopTime="0.00" timeLoss="114.00" rerouteNo="0" devices="tripinfo_f_0_2.21" vType="type1" speedFactor="1.11" vaporized=""/>
    <tripinfo id="f_0_0.14" depart="191.00" departLane="np13_nt13_0" departPos="26.11" departSpeed="0.00" departDelay="0.10" arrival="359.00" arrivalLane="nt4_np5_0" arrivalPos="75.00" arrivalSpeed="16.97" duration="168.00" routeLength="1321.78" waitingTime="27.00" waitingCount="4" stopTime="0.00" timeLoss="60.90" rerouteNo="0" devices="tripinfo_f_0_0.14" vType="type1" speedFactor="0.86" vaporized=""/>