<?xml version="1.0" encoding="UTF-8"?>

<!-- generated on 2023-08-23 16:10:51 by Eclipse SUMO libsumo Version 1.18.0
<configuration xmlns:xsi="http://www.w3.org/2001/XMLSchema-instance" xsi:noNamespaceSchemaLocation="http://sumo.dlr.de/xsd/libsumoConfiguration.xsd">

    <input>
        <net-file value="/home/stefan/RESCO/./environments/arterial4x4/arterial4x4.net.xml"/>
        <route-files value="/home/stefan/RESCO/./environments/arterial4x4/arterial4x4_26.rou.xml"/>
    </input>

    <output>
        <tripinfo-output value="/home/stefan/results/IDDQN-tr0-arterial4x4-0-drq_norm-wait_norm/tripinfo_26.xml"/>
        <tripinfo-output.write-unfinished value="true"/>
    </output>

    <processing>
        <time-to-teleport value="-1"/>
    </processing>

    <report>
        <no-warnings value="True"/>
        <no-step-log value="True"/>
    </report>

    <random_number>
        <random value="true"/>
    </random_number>

</configuration>
-->

<tripinfos xmlns:xsi="http://www.w3.org/2001/XMLSchema-instance" xsi:noNamespaceSchemaLocation="http://sumo.dlr.de/xsd/tripinfo_file.xsd">
    <tripinfo id="f_0_1.0" depart="0.00" departLane="np16_nt1_0" departPos="48.55" departSpeed="0.00" departDelay="0.00" arrival="149.00" arrivalLane="nt16_np8_0" arrivalPos="75.00" arrivalSpeed="15.89" duration="149.00" routeLength="1299.33" waitingTime="24.00" waitingCount="3" stopTime="0.00" timeLoss="47.76" rerouteNo="0" devices="tripinfo_f_0_1.0" vType="type1" speedFactor="0.90" vaporized=""/>
    <tripinfo id="f_0_2.0" depart="0.00" departLane="np2_nt2_0" departPos="13.86" departSpeed="0.00" departDelay="0.00" arrival="157.00" arrivalLane="nt15_np10_0" arrivalPos="75.00" arrivalSpeed="10.80" duration="157.00" routeLength="937.22" waitingTime="52.00" waitingCount="3" stopTime="0.00" timeLoss="78.55" rerouteNo="0" devices="tripinfo_f_0_2.0" vType="type1" speedFactor="1.00" vaporized=""/>
    <tripinfo id="f_0_2.1" depart="9.00" departLane="np2_nt2_0" departPos="32.01" departSpeed="0.00" departDelay="0.82" arrival="168.00" arrivalLane="nt15_np10_0" arrivalPos="75.00" arrivalSpeed="7.28" duration="159.00" routeLength="919.07" waitingTime="33.00" waitingCount="2" stopTime="0.00" timeLoss="59.05" rerouteNo="0" devices="tripinfo_f_0_2.1" vType="type1" speedFactor="0.78" vaporized=""/>
    <tripinfo id="f_0_1.1" depart="14.00" departLane="np16_nt1_0" departPos="24.93" departSpeed="0.00" departDelay="0.36" arrival="175.00" arrivalLane="nt16_np8_0" arrivalPos="75.00" arrivalSpeed="19.34" duration="161.00" routeLength="1322.95" waitingTime="29.00" waitingCount="1" stopTime="0.00" timeLoss="69.30" rerouteNo="0" devices="tripinfo_f_0_1.1" vType="type1" speedFactor="1.01" vaporized=""/>
    <tripinfo id="f_0_2.2" depart="17.00" departLane="np2_nt2_0" departPos="34.04" departSpeed="0.00" departDelay="0.64" arrival="186.00" arrivalLane="nt15_np10_0" arrivalPos="75.00" arrivalSpeed="11.75" duration="169.00" routeLength="917.04" waitingTime="45.00" waitingCount="3" stopTime="0.00" timeLoss="103.79" rerouteNo="0" devices="tripinfo_f_0_2.2" vType="type1" speedFactor="1.18" vaporized=""/>
    <tripinfo id="f_0_2.3" depart="25.00" departLane="np2_nt2_0" departPos="23.19" departSpeed="0.00" departDelay="0.45" arrival="197.00" arrivalLane="nt15_np10_0" arrivalPos="75.00" arrivalSpeed="9.00" duration="172.00" routeLength="927.89" waitingTime="47.00" waitingCount="4" stopTime="0.00" timeLoss="95.36" rerouteNo="0" devices="tripinfo_f_0_2.3" vType="type1" speedFactor="1.02" vaporized=""/>
    <tripinfo id="f_0_0.0" depart="0.00" departLane="np13_nt13_0" departPos="27.67" departSpeed="0.00" departDelay="0.00" arrival="203.00" arrivalLane="nt4_np5_0" arrivalPos="75.00" arrivalSpeed="17.40" duration="203.00" routeLength="1320.22" waitingTime="71.00" waitingCount="5" stopTime="0.00" timeLoss="104.79" rerouteNo="0" devices="tripinfo_f_0_0.0" vType="type1" speedFactor="0.93" vaporized=""/>
    <tripinfo id="f_0_0.1" depart="14.00" departLane="np13_nt13_0" departPos="35.41" departSpeed="0.00" departDelay="0.36" arrival="205.00" arrivalLane="nt4_np5_0" arrivalPos="75.00" arrivalSpeed="16.44" duration="191.00" routeLength="1312.48" waitingTime="54.00" waitingCount="5" stopTime="0.00" timeLoss="88.37" rerouteNo="0" devices="tripinfo_f_0_0.1" vType="type1" speedFactor="0.89" vaporized=""/>
    <tripinfo id="f_0_3.0" depart="0.00" departLane="np3_nt3_0" departPos="18.93" departSpeed="0.00" departDelay="0.00" arrival="206.00" arrivalLane="nt14_np11_0" arrivalPos="75.00" arrivalSpeed="8.88" duration="206.00" routeLength="932.16" waitingTime="96.00" waitingCount="4" stopTime="0.00" timeLoss="121.20" rerouteNo="0" devices="tripinfo_f_0_3.0" vType="type1" speedFactor="0.92" vaporized=""/>
    <tripinfo id="f_0_0.2" depart="28.00" departLane="np13_nt13_0" departPos="56.38" departSpeed="0.00" departDelay="0.73" arrival="207.00" arrivalLane="nt4_np5_0" arrivalPos="75.00" arrivalSpeed="19.23" duration="179.00" routeLength="1291.51" waitingTime="52.00" waitingCount="4" stopTime="0.00" timeLoss="87.30" rerouteNo="0" devices="tripinfo_f_0_0.2" vType="type1" speedFactor="0.98" vaporized=""/>
    <tripinfo id="f_0_3.1" depart="9.00" departLane="np3_nt3_0" departPos="4.69" departSpeed="0.00" departDelay="0.82" arrival="208.00" arrivalLane="nt14_np11_0" arrivalPos="75.00" arrivalSpeed="9.72" duration="199.00" routeLength="946.40" waitingTime="83.00" waitingCount="5" stopTime="0.00" timeLoss="123.84" rerouteNo="0" devices="tripinfo_f_0_3.1" vType="type1" speedFactor="1.06" vaporized=""/>
    <tripinfo id="f_0_3.2" depart="17.00" departLane="np3_nt3_0" departPos="12.11" departSpeed="0.00" departDelay="0.64" arrival="210.00" arrivalLane="nt14_np11_0" arrivalPos="75.00" arrivalSpeed="10.75" duration="193.00" routeLength="938.98" waitingTime="85.00" waitingCount="4" stopTime="0.00" timeLoss="125.41" rerouteNo="0" devices="tripinfo_f_0_3.2" vType="type1" speedFactor="1.17" vaporized=""/>
    <tripinfo id="f_0_2.4" depart="33.00" departLane="np2_nt2_0" departPos="32.50" departSpeed="0.00" departDelay="0.27" arrival="217.00" arrivalLane="nt15_np10_0" arrivalPos="75.00" arrivalSpeed="8.81" duration="184.00" routeLength="918.58" waitingTime="64.00" waitingCount="6" stopTime="0.00" timeLoss="108.18" rerouteNo="0" devices="tripinfo_f_0_2.4" vType="type1" speedFactor="1.01" vaporized=""/>
    <tripinfo id="f_0_2.5" depart="41.00" departLane="np2_nt2_0" departPos="8.75" departSpeed="0.00" departDelay="0.09" arrival="219.00" arrivalLane="nt15_np10_0" arrivalPos="75.00" arrivalSpeed="9.63" duration="178.00" routeLength="942.33" waitingTime="66.00" waitingCount="5" stopTime="0.00" timeLoss="97.20" rerouteNo="0" devices="tripinfo_f_0_2.5" vType="type1" speedFactor="0.98" vaporized=""/>
    <tripinfo id="f_0_0.3" depart="41.00" departLane="np13_nt13_0" departPos="30.90" departSpeed="0.00" departDelay="0.09" arrival="228.00" arrivalLane="nt4_np5_0" arrivalPos="75.00" arrivalSpeed="17.68" duration="187.00" routeLength="1316.99" waitingTime="57.00" waitingCount="7" stopTime="0.00" timeLoss="93.54" rerouteNo="0" devices="tripinfo_f_0_0.3" vType="type1" speedFactor="0.98" vaporized=""/>
    <tripinfo id="f_0_0.4" depart="55.00" departLane="np13_nt13_0" departPos="40.65" departSpeed="0.00" departDelay="0.46" arrival="238.00" arrivalLane="nt4_np5_0" arrivalPos="75.00" arrivalSpeed="20.66" duration="183.00" routeLength="1307.24" waitingTime="50.00" waitingCount="8" stopTime="0.00" timeLoss="100.71" rerouteNo="0" devices="tripinfo_f_0_0.4" vType="type1" speedFactor="1.11" vaporized=""/>
    <tripinfo id="f_0_2.6" depart="50.00" departLane="np2_nt2_0" departPos="63.14" departSpeed="0.00" departDelay="0.91" arrival="242.00" arrivalLane="nt15_np10_0" arrivalPos="75.00" arrivalSpeed="9.91" duration="192.00" routeLength="887.94" waitingTime="81.00" waitingCount="7" stopTime="0.00" timeLoss="120.32" rerouteNo="0" devices="tripinfo_f_0_2.6" vType="type1" speedFactor="1.04" vaporized=""/>
    <tripinfo id="f_0_2.7" depart="58.00" departLane="np2_nt2_0" departPos="30.71" departSpeed="0.00" departDelay="0.73" arrival="245.00" arrivalLane="nt15_np10_0" arrivalPos="75.00" arrivalSpeed="9.53" duration="187.00" routeLength="920.37" waitingTime="65.00" waitingCount="6" stopTime="0.00" timeLoss="108.40" rerouteNo="0" devices="tripinfo_f_0_2.7" vType="type1" speedFactor="0.98" vaporized=""/>
    <tripinfo id="f_0_1.2" depart="28.00" departLane="np16_nt1_0" departPos="49.48" departSpeed="0.00" departDelay="0.73" arrival="255.00" arrivalLane="nt16_np8_0" arrivalPos="75.00" arrivalSpeed="18.22" duration="227.00" routeLength="1298.40" waitingTime="82.00" waitingCount="8" stopTime="0.00" timeLoss="133.03" rerouteNo="0" devices="tripinfo_f_0_1.2" vType="type1" speedFactor="0.97" vaporized=""/>
    <tripinfo id="f_0_2.8" depart="66.00" departLane="np2_nt2_0" departPos="23.67" departSpeed="0.00" departDelay="0.54" arrival="266.00" arrivalLane="nt15_np10_0" arrivalPos="75.00" arrivalSpeed="10.29" duration="200.00" routeLength="927.41" waitingTime="62.00" waitingCount="8" stopTime="0.00" timeLoss="126.37" rerouteNo="0" devices="tripinfo_f_0_2.8" vType="type1" speedFactor="1.05" vaporized=""/>
    <tripinfo id="f_0_1.3" depart="41.00" departLane="np16_nt1_0" departPos="57.43" departSpeed="0.00" departDelay="0.09" arrival="269.00" arrivalLane="nt16_np8_0" arrivalPos="75.00" arrivalSpeed="17.53" duration="228.00" routeLength="1290.45" waitingTime="63.00" waitingCount="9" stopTime="0.00" timeLoss="129.95" rerouteNo="0" devices="tripinfo_f_0_1.3" vType="type1" speedFactor="0.92" vaporized=""/>
    <tripinfo id="f_0_0.5" depart="69.00" departLane="np13_nt13_0" departPos="6.55" departSpeed="0.00" departDelay="0.82" arrival="269.00" arrivalLane="nt4_np5_0" arrivalPos="75.00" arrivalSpeed="18.96" duration="200.00" routeLength="1341.34" waitingTime="61.00" waitingCount="7" stopTime="0.00" timeLoss="103.78" rerouteNo="0" devices="tripinfo_f_0_0.5" vType="type1" speedFactor="0.97" vaporized=""/>
    <tripinfo id="f_0_1.4" depart="55.00" departLane="np16_nt1_0" departPos="2.40" departSpeed="0.00" departDelay="0.46" arrival="270.00" arrivalLane="nt16_np8_0" arrivalPos="75.00" arrivalSpeed="17.27" duration="215.00" routeLength="1345.48" waitingTime="52.00" waitingCount="7" stopTime="0.00" timeLoss="116.05" rerouteNo="0" devices="tripinfo_f_0_1.4" vType="type1" speedFactor="0.94" vaporized=""/>
    <tripinfo id="f_0_0.6" depart="82.00" departLane="np13_nt13_0" departPos="12.29" departSpeed="0.00" departDelay="0.18" arrival="270.00" arrivalLane="nt4_np5_0" arrivalPos="75.00" arrivalSpeed="20.25" duration="188.00" routeLength="1335.60" waitingTime="50.00" waitingCount="8" stopTime="0.00" timeLoss="102.46" rerouteNo="0" devices="tripinfo_f_0_0.6" vType="type1" speedFactor="1.09" vaporized=""/>
    <tripinfo id="f_0_2.9" depart="74.00" departLane="np2_nt2_0" departPos="28.10" departSpeed="0.00" departDelay="0.36" arrival="272.00" arrivalLane="nt15_np10_0" arrivalPos="75.00" arrivalSpeed="6.92" duration="198.00" routeLength="922.98" waitingTime="45.00" waitingCount="7" stopTime="0.00" timeLoss="103.27" rerouteNo="0" devices="tripinfo_f_0_2.9" vType="type1" speedFactor="0.82" vaporized=""/>
    <tripinfo id="f_0_0.7" depart="96.00" departLane="np13_nt13_0" departPos="35.86" departSpeed="0.00" departDelay="0.55" arrival="272.00" arrivalLane="nt4_np5_0" arrivalPos="75.00" arrivalSpeed="21.25" duration="176.00" routeLength="1312.03" waitingTime="39.00" waitingCount="7" stopTime="0.00" timeLoss="94.16" rerouteNo="0" devices="tripinfo_f_0_0.7" vType="type1" speedFactor="1.12" vaporized=""/>
    <tripinfo id="f_0_2.10" depart="82.00" departLane="np2_nt2_0" departPos="8.47" departSpeed="0.00" departDelay="0.18" arrival="273.00" arrivalLane="nt15_np10_0" arrivalPos="75.00" arrivalSpeed="9.71" duration="191.00" routeLength="942.61" waitingTime="43.00" waitingCount="6" stopTime="0.00" timeLoss="113.02" rerouteNo="0" devices="tripinfo_f_0_2.10" vType="type1" speedFactor="1.01" vaporized=""/>
    <tripinfo id="f_0_2.11" depart="90.00" departLane="np2_nt2_0" departPos="29.62" departSpeed="0.00" departDelay="0.00" arrival="275.00" arrivalLane="nt15_np10_0" arrivalPos="75.00" arrivalSpeed="10.70" duration="185.00" routeLength="921.46" waitingTime="36.00" waitingCount="6" stopTime="0.00" timeLoss="105.84" rerouteNo="0" devices="tripinfo_f_0_2.11" vType="type1" speedFactor="0.98" vaporized=""/>
    <tripinfo id="f_0_3.3" depart="25.00" departLane="np3_nt3_0" departPos="34.33" departSpeed="0.00" departDelay="0.45" arrival="276.00" arrivalLane="nt14_np11_0" arrivalPos="75.00" arrivalSpeed="10.72" duration="251.00" routeLength="916.76" waitingTime="138.00" waitingCount="5" stopTime="0.00" timeLoss="178.08" rerouteNo="0" devices="tripinfo_f_0_3.3" vType="type1" speedFactor="1.06" vaporized=""/>
    <tripinfo id="f_0_3.4" depart="33.00" departLane="np3_nt3_0" departPos="12.40" departSpeed="0.00" departDelay="0.27" arrival="281.00" arrivalLane="nt14_np11_0" arrivalPos="75.00" arrivalSpeed="7.00" duration="248.00" routeLength="938.69" waitingTime="116.00" waitingCount="8" stopTime="0.00" timeLoss="153.68" rerouteNo="0" devices="tripinfo_f_0_3.4" vType="type1" speedFactor="0.84" vaporized=""/>
    <tripinfo id="f_0_0.8" depart="110.00" departLane="np13_nt13_0" departPos="18.33" departSpeed="0.00" departDelay="0.91" arrival="284.00" arrivalLane="nt4_np5_0" arrivalPos="75.00" arrivalSpeed="16.16" duration="174.00" routeLength="1329.56" waitingTime="23.00" waitingCount="5" stopTime="0.00" timeLoss="61.71" rerouteNo="0" devices="tripinfo_f_0_0.8" vType="type1" speedFactor="0.82" vaporized=""/>
    <tripinfo id="f_0_0.9" depart="123.00" departLane="np13_nt13_0" departPos="66.68" departSpeed="0.00" departDelay="0.28" arrival="298.00" arrivalLane="nt4_np5_0" arrivalPos="75.00" arrivalSpeed="15.85" duration="175.00" routeLength="1281.21" waitingTime="28.00" waitingCount="6" stopTime="0.00" timeLoss="69.02" rerouteNo="0" devices="tripinfo_f_0_0.9" vType="type1" speedFactor="0.85" vaporized=""/>
    <tripinfo id="f_0_1.5" depart="69.00" departLane="np16_nt1_0" departPos="60.92" departSpeed="0.00" departDelay="0.82" arrival="308.00" arrivalLane="nt16_np8_0" arrivalPos="75.00" arrivalSpeed="20.74" duration="239.00" routeLength="1286.96" waitingTime="86.00" waitingCount="9" stopTime="0.00" timeLoss="157.07" rerouteNo="0" devices="tripinfo_f_0_1.5" vType="type1" speedFactor="1.09" vaporized=""/>
    <tripinfo id="f_0_2.12" depart="99.00" departLane="np2_nt2_0" departPos="10.74" departSpeed="0.00" departDelay="0.82" arrival="313.00" arrivalLane="nt15_np10_0" arrivalPos="75.00" arrivalSpeed="8.77" duration="214.00" routeLength="940.34" waitingTime="60.00" waitingCount="6" stopTime="0.00" timeLoss="128.27" rerouteNo="0" devices="tripinfo_f_0_2.12" vType="type1" speedFactor="0.92" vaporized=""/>
    <tripinfo id="f_0_3.5" depart="41.00" departLane="np3_nt3_0" departPos="12.02" departSpeed="0.00" departDelay="0.09" arrival="317.00" arrivalLane="nt14_np11_0" arrivalPos="75.00" arrivalSpeed="10.60" duration="276.00" routeLength="939.07" waitingTime="135.00" waitingCount="9" stopTime="0.00" timeLoss="196.54" rerouteNo="0" devices="tripinfo_f_0_3.5" vType="type1" speedFactor="0.99" vaporized=""/>
    <tripinfo id="f_0_2.13" depart="107.00" departLane="np2_nt2_0" departPos="42.44" departSpeed="0.00" departDelay="0.63" arrival="317.00" arrivalLane="nt15_np10_0" arrivalPos="75.00" arrivalSpeed="9.73" duration="210.00" routeLength="908.64" waitingTime="59.00" waitingCount="6" stopTime="0.00" timeLoss="137.97" rerouteNo="0" devices="tripinfo_f_0_2.13" vType="type1" speedFactor="1.06" vaporized=""/>
    <tripinfo id="f_0_0.10" depart="137.00" departLane="np13_nt13_0" departPos="50.25" departSpeed="0.00" departDelay="0.64" arrival="317.00" arrivalLane="nt4_np5_0" arrivalPos="75.00" arrivalSpeed="18.81" duration="180.00" routeLength="1297.64" waitingTime="45.00" waitingCount="6" stopTime="0.00" timeLoss="89.48" rerouteNo="0" devices="tripinfo_f_0_0.10" vType="type1" speedFactor="1.01" vaporized=""/>
    <tripinfo id="f_0_1.6" depart="82.00" departLane="np16_nt1_0" departPos="62.16" departSpeed="0.00" departDelay="0.18" arrival="318.00" arrivalLane="nt16_np8_0" arrivalPos="75.00" arrivalSpeed="24.14" duration="236.00" routeLength="1285.72" waitingTime="79.00" waitingCount="8" stopTime="0.00" timeLoss="161.10" rerouteNo="0" devices="tripinfo_f_0_1.6" vType="type1" speedFactor="1.21" vaporized=""/>
    <tripinfo id="f_0_2.14" depart="115.00" departLane="np2_nt2_0" departPos="31.64" departSpeed="0.00" departDelay="0.45" arrival="319.00" arrivalLane="nt15_np10_0" arrivalPos="75.00" arrivalSpeed="10.00" duration="204.00" routeLength="919.44" waitingTime="70.00" waitingCount="6" stopTime="0.00" timeLoss="129.23" rerouteNo="0" devices="tripinfo_f_0_2.14" vType="type1" speedFactor="1.03" vaporized=""/>
    <tripinfo id="f_0_3.6" depart="50.00" departLane="np3_nt3_0" departPos="1.06" departSpeed="0.00" departDelay="0.91" arrival="320.00" arrivalLane="nt14_np11_0" arrivalPos="75.00" arrivalSpeed="9.97" duration="270.00" routeLength="950.03" waitingTime="146.00" waitingCount="9" stopTime="0.00" timeLoss="190.14" rerouteNo="0" devices="tripinfo_f_0_3.6" vType="type1" speedFactor="1.01" vaporized=""/>
    <tripinfo id="f_0_3.7" depart="58.00" departLane="np3_nt3_0" departPos="1.73" departSpeed="0.00" departDelay="0.73" arrival="322.00" arrivalLane="nt14_np11_0" arrivalPos="75.00" arrivalSpeed="9.09" duration="264.00" routeLength="949.36" waitingTime="130.00" waitingCount="9" stopTime="0.00" timeLoss="183.61" rerouteNo="0" devices="tripinfo_f_0_3.7" vType="type1" speedFactor="1.00" vaporized=""/>
    <tripinfo id="f_0_3.8" depart="66.00" departLane="np3_nt3_0" departPos="2.10" departSpeed="0.00" departDelay="0.54" arrival="324.00" arrivalLane="nt14_np11_0" arrivalPos="75.00" arrivalSpeed="10.09" duration="258.00" routeLength="948.99" waitingTime="120.00" waitingCount="11" stopTime="0.00" timeLoss="175.91" rerouteNo="0" devices="tripinfo_f_0_3.8" vType="type1" speedFactor="0.98" vaporized=""/>
    <tripinfo id="f_0_3.9" depart="74.00" departLane="np3_nt3_0" departPos="0.00" departSpeed="0.00" departDelay="0.36" arrival="326.00" arrivalLane="nt14_np11_0" arrivalPos="75.00" arrivalSpeed="11.11" duration="252.00" routeLength="951.09" waitingTime="112.00" waitingCount="11" stopTime="0.00" timeLoss="181.25" rerouteNo="0" devices="tripinfo_f_0_3.9" vType="type1" speedFactor="1.13" vaporized=""/>
    <tripinfo id="f_0_3.10" depart="82.00" departLane="np3_nt3_0" departPos="1.06" departSpeed="0.00" departDelay="0.18" arrival="328.00" arrivalLane="nt14_np11_0" arrivalPos="75.00" arrivalSpeed="9.66" duration="246.00" routeLength="950.03" waitingTime="101.00" waitingCount="10" stopTime="0.00" timeLoss="162.68" rerouteNo="0" devices="tripinfo_f_0_3.10" vType="type1" speedFactor="0.96" vaporized=""/>
    <tripinfo id="f_0_3.11" depart="92.00" departLane="np3_nt3_0" departPos="0.00" departSpeed="0.00" departDelay="2.00" arrival="330.00" arrivalLane="nt14_np11_0" arrivalPos="75.00" arrivalSpeed="11.76" duration="238.00" routeLength="951.09" waitingTime="91.00" waitingCount="9" stopTime="0.00" timeLoss="168.42" rerouteNo="0" devices="tripinfo_f_0_3.11" vType="type1" speedFactor="1.15" vaporized=""/>
    <tripinfo id="f_0_1.7" depart="96.00" departLane="np16_nt1_0" departPos="32.94" departSpeed="0.00" departDelay="0.55" arrival="333.00" arrivalLane="nt16_np8_0" arrivalPos="75.00" arrivalSpeed="18.31" duration="237.00" routeLength="1314.94" waitingTime="62.00" waitingCount="6" stopTime="0.00" timeLoss="145.00" rerouteNo="0" devices="tripinfo_f_0_1.7" vType="type1" speedFactor="0.99" vaporized=""/>
    <tripinfo id="f_0_1.8" depart="110.00" departLane="np16_nt1_0" departPos="18.47" departSpeed="0.00" departDelay="0.91" arrival="335.00" arrivalLane="nt16_np8_0" arrivalPos="75.00" arrivalSpeed="20.44" duration="225.00" routeLength="1329.41" waitingTime="82.00" waitingCount="9" stopTime="0.00" timeLoss="141.03" rerouteNo="0" devices="tripinfo_f_0_1.8" vType="type1" speedFactor="1.10" vaporized=""/>
    <tripinfo id="f_0_2.15" depart="123.00" departLane="np2_nt2_0" departPos="19.63" departSpeed="0.00" departDelay="0.27" arrival="343.00" arrivalLane="nt15_np10_0" arrivalPos="75.00" arrivalSpeed="9.40" duration="220.00" routeLength="931.45" waitingTime="83.00" waitingCount="8" stopTime="0.00" timeLoss="137.73" rerouteNo="0" devices="tripinfo_f_0_2.15" vType="type1" speedFactor="0.95" vaporized=""/>
    <tripinfo id="f_0_0.11" depart="150.00" departLane="np13_nt13_0" departPos="46.98" departSpeed="0.00" departDelay="0.00" arrival="344.00" arrivalLane="nt4_np5_0" arrivalPos="75.00" arrivalSpeed="14.44" duration="194.00" routeLength="1300.91" waitingTime="43.00" waitingCount="6" stopTime="0.00" timeLoss="81.09" rerouteNo="0" devices="tripinfo_f_0_0.11" vType="type1" speedFactor="0.80" vaporized=""/>
    <tripinfo id="f_0_3.12" depart="99.00" departLane="np3_nt3_0" departPos="6.99" departSpeed="0.00" departDelay="0.82" arrival="349.00" arrivalLane="nt14_np11_0" arrivalPos="75.00" arrivalSpeed="7.82" duration="250.00" routeLength="944.10" waitingTime="100.00" waitingCount="9" stopTime="0.00" timeLoss="154.99" rerouteNo="0" devices="tripinfo_f_0_3.12" vType="type1" speedFactor="0.84" vaporized=""/>
    <tripinfo id="f_0_3.13" depart="107.00" departLane="np3_nt3_0" departPos="10.63" departSpeed="0.00" departDelay="0.63" arrival="351.00" arrivalLane="nt14_np11_0" arrivalPos="75.00" arrivalSpeed="9.45" duration="244.00" routeLength="940.46" waitingTime="92.00" waitingCount="8" stopTime="0.00" timeLoss="158.11" rerouteNo="0" devices="tripinfo_f_0_3.13" vType="type1" speedFactor="0.92" vaporized=""/>
    <tripinfo id="f_0_0.12" depart="164.00" departLane="np13_nt13_0" departPos="35.32" departSpeed="0.00" departDelay="0.37" arrival="353.00" arrivalLane="nt4_np5_0" arrivalPos="75.00" arrivalSpeed="23.21" duration="189.00" routeLength="1312.57" waitingTime="55.00" waitingCount="7" stopTime="0.00" timeLoss="114.77" rerouteNo="0" devices="tripinfo_f_0_0.12" vType="type1" speedFactor="1.24" vaporized=""/>
    <tripinfo id="f_0_0.13" depart="178.00" departLane="np13_nt13_0" departPos="40.62" departSpeed="0.00" departDelay="0.73" arrival="355.00" arrivalLane="nt4_np5_0" arrivalPos="75.00" arrivalSpeed="21.21" duration="177.00" routeLength="1307.27" waitingTime="41.00" waitingCount="7" stopTime="0.00" timeLoss="95.00" rerouteNo="0" devices="tripinfo_f_0_0.13" vType="type1" speedFactor="1.12" vaporized=""/>
    <tripinfo id="f_0_0.14" depart="191.00" departLane="np13_nt13_0" departPos="28.83" departSpeed="0.00" departDelay="0.10" arrival="357.00" arrivalLane="nt4_np5_0" arrivalPos="75.00" arrivalSpeed="18.13" duration="166.00" routeLength="1319.06" waitingTime="39.00" waitingCount="4" stopTime="0.00" timeLoss="69.15" rerouteNo="0" devices="tripinfo_f_0_0.14" vType="type1" speedFactor="0.95" vaporized=""/>
    <tripinfo id="f_0_2.16" depart="131.00" departLane="np2_nt2_0" departPos="29.77" departSpeed="0.00" departDelay="0.09" arrival="358.00" arrivalLane="nt15_np10_0" arrivalPos="75.00" arrivalSpeed="9.27" duration="227.00" routeLength="921.31" waitingTime="84.00" waitingCount="7" stopTime="0.00" timeLoss="144.28" rerouteNo="0" devices="tripinfo_f_0_2.16" vType="type1" speedFactor="0.94" vaporized=""/>
    <tripinfo id="f_0_2.17" depart="140.00" departLane="np2_nt2_0" departPos="60.66" departSpeed="0.00" departDelay="0.91" arrival="360.00" arrivalLane="nt15_np10_0" arrivalPos="75.00" arrivalSpeed="9.05" duration="220.00" routeLength="890.42" waitingTime="77.00" waitingCount="8" stopTime="0.00" timeLoss="140.15" rerouteNo="0" devices="tripinfo_f_0_2.17" vType="type1" speedFactor="0.94" vaporized=""/>
    <tripinfo id="f_0_3.14" depart="115.00" departLane="np3_nt3_0" departPos="2.71" departSpeed="0.00" departDelay="0.45" arrival="363.00" arrivalLane="nt14_np11_0" arrivalPos="75.00" arrivalSpeed="7.52" duration="248.00" routeLength="948.38" waitingTime="92.00" waitingCount="8" stopTime="0.00" timeLoss="158.51" rerouteNo="0" devices="tripinfo_f_0_3.14" vType="type1" speedFactor="0.89" vaporized=""/>
    <tripinfo id="f_0_2.18" depart="148.00" departLane="np2_nt2_0" departPos="44.96" departSpeed="0.00" departDelay="0.72" arrival="364.00" arrivalLane="nt15_np10_0" arrivalPos="75.00" arrivalSpeed="10.42" duration="216.00" routeLength="906.12" waitingTime="68.00" waitingCount="6" stopTime="0.00" timeLoss="149.69" rerouteNo="0" devices="tripinfo_f_0_2.18" vType="type1" speedFactor="1.14" vaporized=""/>
    <tripinfo id="f_0_0.15" depart="205.00" departLane="np13_nt13_0" departPos="44.82" departSpeed="0.00" departDelay="0.46" arrival="373.00" arrivalLane="nt4_np5_0" arrivalPos="75.00" arrivalSpeed="16.06" duration="168.00" routeLength="1303.07" waitingTime="33.00" waitingCount="5" stopTime="0.00" timeLoss="67.23" rerouteNo="0" devices="tripinfo_f_0_0.15" vType="type1" speedFactor="0.90" vaporized=""/>
    <tripinfo id="f_0_3.15" depart="128.00" departLane="np3_nt3_0" departPos="0.00" departSpeed="0.00" departDelay="5.27" arrival="378.00" arrivalLane="nt14_np11_0" arrivalPos="75.00" arrivalSpeed="7.56" duration="250.00" routeLength="951.09" waitingTime="94.00" waitingCount="11" stopTime="0.00" timeLoss="161.53" rerouteNo="0" devices="tripinfo_f_0_3.15" vType="type1" speedFactor="0.90" vaporized=""/>
    <tripinfo id="f_0_1.9" depart="123.00" departLane="np16_nt1_0" departPos="17.93" departSpeed="0.00" departDelay="0.28" arrival="379.00" arrivalLane="nt16_np8_0" arrivalPos="75.00" arrivalSpeed="16.06" duration="256.00" routeLength="1329.95" waitingTime="77.00" waitingCount="8" stopTime="0.00" timeLoss="143.04" rerouteNo="0" devices="tripinfo_f_0_1.9" vType="type1" speedFactor="0.82" vaporized=""/>
    <tripinfo id="f_0_3.16" depart="143.00" departLane="np3_nt3_0" departPos="0.00" departSpeed="0.00" departDelay="12.09" arrival="380.00" arrivalLane="nt14_np11_0" arrivalPos="75.00" arrivalSpeed="10.64" duration="237.00" routeLength="951.09" waitingTime="91.00" waitingCount="10" stopTime="0.00" timeLoss="157.73" rerouteNo="0" devices="tripinfo_f_0_3.16" vType="type1" speedFactor="1.01" vaporized=""/>
    <tripinfo id="f_0_1.10" depart="137.00" departLane="np16_nt1_0" departPos="29.60" departSpeed="0.00" departDelay="0.64" arrival="381.00" arrivalLane="nt16_np8_0" arrivalPos="75.00" arrivalSpeed="19.47" duration="244.00" routeLength="1318.28" waitingTime="71.00" waitingCount="7" stopTime="0.00" timeLoss="156.39" rerouteNo="0" devices="tripinfo_f_0_1.10" vType="type1" speedFactor="1.05" vaporized=""/>
    <tripinfo id="f_0_3.17" depart="152.00" departLane="np3_nt3_0" departPos="0.00" departSpeed="0.00" departDelay="12.91" arrival="388.00" arrivalLane="nt14_np11_0" arrivalPos="75.00" arrivalSpeed="8.96" duration="236.00" routeLength="951.09" waitingTime="86.00" waitingCount="10" stopTime="0.00" timeLoss="157.83" rerouteNo="0" devices="tripinfo_f_0_3.17" vType="type1" speedFactor="1.03" vaporized=""/>
    <tripinfo id="f_0_3.18" depart="178.00" departLane="np3_nt3_0" departPos="0.77" departSpeed="0.00" departDelay="30.72" arrival="391.00" arrivalLane="nt14_np11_0" arrivalPos="75.00" arrivalSpeed="9.07" duration="213.00" routeLength="950.32" waitingTime="66.00" waitingCount="8" stopTime="0.00" timeLoss="128.41" rerouteNo="0" devices="tripinfo_f_0_3.18" vType="type1" speedFactor="0.95" vaporized=""/>
    <tripinfo id="f_0_2.19" depart="156.00" departLane="np2_nt2_0" departPos="45.53" departSpeed="0.00" departDelay="0.54" arrival="393.00" arrivalLane="nt15_np10_0" arrivalPos="75.00" arrivalSpeed="10.13" duration="237.00" routeLength="905.55" waitingTime="87.00" waitingCount="8" stopTime="0.00" timeLoss="157.53" rerouteNo="0" devices="tripinfo_f_0_2.19" vType="type1" speedFactor="0.96" vaporized=""/>
    <tripinfo id="f_0_3.19" depart="180.00" departLane="np3_nt3_0" departPos="0.00" departSpeed="0.00" departDelay="24.54" arrival="393.00" arrivalLane="nt14_np11_0" arrivalPos="75.00" arrivalSpeed="10.30" duration="213.00" routeLength="951.09" waitingTime="67.00" waitingCount="8" stopTime="0.00" timeLoss="136.57" rerouteNo="0" devices="tripinfo_f_0_3.19" vType="type1" speedFactor="1.06" vaporized=""/>
    <tripinfo id="f_0_3.20" depart="183.00" departLane="np3_nt3_0" departPos="1.87" departSpeed="0.00" departDelay="19.36" arrival="395.00" arrivalLane="nt14_np11_0" arrivalPos="75.00" arrivalSpeed="8.76" duration="212.00" routeLength="949.22" waitingTime="67.00" waitingCount="9" stopTime="0.00" timeLoss="130.91" rerouteNo="0" devices="tripinfo_f_0_3.20" vType="type1" speedFactor="0.99" vaporized=""/>
    <tripinfo id="f_0_2.20" depart="164.00" departLane="np2_nt2_0" departPos="53.43" departSpeed="0.00" departDelay="0.36" arrival="396.00" arrivalLane="nt15_np10_0" arrivalPos="75.00" arrivalSpeed="7.86" duration="232.00" routeLength="897.65" waitingTime="81.00" waitingCount="9" stopTime="0.00" timeLoss="144.10" rerouteNo="0" devices="tripinfo_f_0_2.20" vType="type1" speedFactor="0.86" vaporized=""/>
    <tripinfo id="f_0_0.16" depart="219.00" departLane="np13_nt13_0" departPos="55.85" departSpeed="0.00" departDelay="0.82" arrival="397.00" arrivalLane="nt4_np5_0" arrivalPos="75.00" arrivalSpeed="24.58" duration="178.00" routeLength="1292.04" waitingTime="78.00" waitingCount="5" stopTime="0.00" timeLoss="108.73" rerouteNo="0" devices="tripinfo_f_0_0.16" vType="type1" speedFactor="1.31" vaporized=""/>
    <tripinfo id="f_0_1.11" depart="150.00" departLane="np16_nt1_0" departPos="10.24" departSpeed="0.00" departDelay="0.00" arrival="403.00" arrivalLane="nt16_np8_0" arrivalPos="75.00" arrivalSpeed="20.16" duration="253.00" routeLength="1337.64" waitingTime="78.00" waitingCount="9" stopTime="0.00" timeLoss="167.09" rerouteNo="0" devices="tripinfo_f_0_1.11" vType="type1" speedFactor="1.08" vaporized=""/>