<?xml version="1.0" encoding="UTF-8"?>

<!-- generated on 2023-08-23 16:31:40 by Eclipse SUMO libsumo Version 1.18.0
<configuration xmlns:xsi="http://www.w3.org/2001/XMLSchema-instance" xsi:noNamespaceSchemaLocation="http://sumo.dlr.de/xsd/libsumoConfiguration.xsd">

    <input>
        <net-file value="/home/stefan/RESCO/./environments/arterial4x4/arterial4x4.net.xml"/>
        <route-files value="/home/stefan/RESCO/./environments/arterial4x4/arterial4x4_51.rou.xml"/>
    </input>

    <output>
        <tripinfo-output value="/home/stefan/results/IDDQN-tr0-arterial4x4-0-drq_norm-wait_norm/tripinfo_51.xml"/>
        <tripinfo-output.write-unfinished value="true"/>
    </output>

    <processing>
        <time-to-teleport value="-1"/>
    </processing>

    <report>
        <no-warnings value="True"/>
        <no-step-log value="True"/>
    </report>

    <random_number>
        <random value="true"/>
    </random_number>

</configuration>
-->

<tripinfos xmlns:xsi="http://www.w3.org/2001/XMLSchema-instance" xsi:noNamespaceSchemaLocation="http://sumo.dlr.de/xsd/tripinfo_file.xsd">
    <tripinfo id="f_0_3.0" depart="0.00" departLane="np3_nt3_0" departPos="50.00" departSpeed="0.00" departDelay="0.00" arrival="102.00" arrivalLane="nt14_np11_0" arrivalPos="75.00" arrivalSpeed="10.72" duration="102.00" routeLength="901.09" waitingTime="11.00" waitingCount="2" stopTime="0.00" timeLoss="36.01" rerouteNo="0" devices="tripinfo_f_0_3.0" vType="type1" speedFactor="1.15" vaporized=""/>
    <tripinfo id="f_0_2.0" depart="0.00" departLane="np2_nt2_0" departPos="57.82" departSpeed="0.00" departDelay="0.00" arrival="107.00" arrivalLane="nt15_np10_0" arrivalPos="75.00" arrivalSpeed="10.88" duration="107.00" routeLength="893.26" waitingTime="18.00" waitingCount="2" stopTime="0.00" timeLoss="35.90" rerouteNo="0" devices="tripinfo_f_0_2.0" vType="type1" speedFactor="1.05" vaporized=""/>
    <tripinfo id="f_0_0.0" depart="0.00" departLane="np13_nt13_0" departPos="58.82" departSpeed="0.00" departDelay="0.00" arrival="119.00" arrivalLane="nt4_np5_0" arrivalPos="75.00" arrivalSpeed="20.27" duration="119.00" routeLength="1289.07" waitingTime="9.00" waitingCount="2" stopTime="0.00" timeLoss="37.82" rerouteNo="0" devices="tripinfo_f_0_0.0" vType="type1" speedFactor="1.11" vaporized=""/>
    <tripinfo id="f_0_3.1" depart="9.00" departLane="np3_nt3_0" departPos="20.74" departSpeed="0.00" departDelay="0.82" arrival="122.00" arrivalLane="nt14_np11_0" arrivalPos="75.00" arrivalSpeed="9.60" duration="113.00" routeLength="930.35" waitingTime="6.00" waitingCount="3" stopTime="0.00" timeLoss="29.52" rerouteNo="0" devices="tripinfo_f_0_3.1" vType="type1" speedFactor="0.94" vaporized=""/>
    <tripinfo id="f_0_2.1" depart="9.00" departLane="np2_nt2_0" departPos="59.66" departSpeed="0.00" departDelay="0.82" arrival="143.00" arrivalLane="nt15_np10_0" arrivalPos="75.00" arrivalSpeed="9.96" duration="134.00" routeLength="891.42" waitingTime="37.00" waitingCount="3" stopTime="0.00" timeLoss="60.80" rerouteNo="0" devices="tripinfo_f_0_2.1" vType="type1" speedFactor="1.03" vaporized=""/>
    <tripinfo id="f_0_1.0" depart="0.00" departLane="np16_nt1_0" departPos="35.54" departSpeed="0.00" departDelay="0.00" arrival="153.00" arrivalLane="nt16_np8_0" arrivalPos="75.00" arrivalSpeed="18.47" duration="153.00" routeLength="1312.34" waitingTime="37.00" waitingCount="3" stopTime="0.00" timeLoss="64.12" rerouteNo="0" devices="tripinfo_f_0_1.0" vType="type1" speedFactor="1.03" vaporized=""/>
    <tripinfo id="f_0_0.1" depart="14.00" departLane="np13_nt13_0" departPos="51.51" departSpeed="0.00" departDelay="0.36" arrival="168.00" arrivalLane="nt4_np5_0" arrivalPos="75.00" arrivalSpeed="20.33" duration="154.00" routeLength="1296.38" waitingTime="38.00" waitingCount="5" stopTime="0.00" timeLoss="70.59" rerouteNo="0" devices="tripinfo_f_0_0.1" vType="type1" speedFactor="1.09" vaporized=""/>
    <tripinfo id="f_0_0.2" depart="28.00" departLane="np13_nt13_0" departPos="18.82" departSpeed="0.00" departDelay="0.73" arrival="170.00" arrivalLane="nt4_np5_0" arrivalPos="75.00" arrivalSpeed="20.86" duration="142.00" routeLength="1329.07" waitingTime="21.00" waitingCount="4" stopTime="0.00" timeLoss="55.31" rerouteNo="0" devices="tripinfo_f_0_0.2" vType="type1" speedFactor="1.07" vaporized=""/>
    <tripinfo id="f_0_1.1" depart="14.00" departLane="np16_nt1_0" departPos="28.02" departSpeed="0.00" departDelay="0.36" arrival="171.00" arrivalLane="nt16_np8_0" arrivalPos="75.00" arrivalSpeed="17.42" duration="157.00" routeLength="1319.86" waitingTime="28.00" waitingCount="2" stopTime="0.00" timeLoss="55.91" rerouteNo="0" devices="tripinfo_f_0_1.1" vType="type1" speedFactor="0.91" vaporized=""/>
    <tripinfo id="f_0_3.2" depart="17.00" departLane="np3_nt3_0" departPos="21.04" departSpeed="0.00" departDelay="0.64" arrival="180.00" arrivalLane="nt14_np11_0" arrivalPos="75.00" arrivalSpeed="7.44" duration="163.00" routeLength="930.05" waitingTime="42.00" waitingCount="2" stopTime="0.00" timeLoss="71.10" rerouteNo="0" devices="tripinfo_f_0_3.2" vType="type1" speedFactor="0.85" vaporized=""/>
    <tripinfo id="f_0_3.3" depart="25.00" departLane="np3_nt3_0" departPos="43.41" departSpeed="0.00" departDelay="0.45" arrival="181.00" arrivalLane="nt14_np11_0" arrivalPos="75.00" arrivalSpeed="10.35" duration="156.00" routeLength="907.68" waitingTime="51.00" waitingCount="5" stopTime="0.00" timeLoss="81.84" rerouteNo="0" devices="tripinfo_f_0_3.3" vType="type1" speedFactor="1.02" vaporized=""/>
    <tripinfo id="f_0_2.2" depart="17.00" departLane="np2_nt2_0" departPos="39.31" departSpeed="0.00" departDelay="0.64" arrival="182.00" arrivalLane="nt15_np10_0" arrivalPos="75.00" arrivalSpeed="9.58" duration="165.00" routeLength="911.77" waitingTime="53.00" waitingCount="4" stopTime="0.00" timeLoss="92.33" rerouteNo="0" devices="tripinfo_f_0_2.2" vType="type1" speedFactor="1.05" vaporized=""/>
    <tripinfo id="f_0_3.4" depart="33.00" departLane="np3_nt3_0" departPos="49.09" departSpeed="0.00" departDelay="0.27" arrival="192.00" arrivalLane="nt14_np11_0" arrivalPos="75.00" arrivalSpeed="9.48" duration="159.00" routeLength="902.00" waitingTime="54.00" waitingCount="5" stopTime="0.00" timeLoss="85.89" rerouteNo="0" devices="tripinfo_f_0_3.4" vType="type1" speedFactor="1.03" vaporized=""/>
    <tripinfo id="f_0_0.3" depart="41.00" departLane="np13_nt13_0" departPos="56.42" departSpeed="0.00" departDelay="0.09" arrival="193.00" arrivalLane="nt4_np5_0" arrivalPos="75.00" arrivalSpeed="19.84" duration="152.00" routeLength="1291.47" waitingTime="29.00" waitingCount="6" stopTime="0.00" timeLoss="68.81" rerouteNo="0" devices="tripinfo_f_0_0.3" vType="type1" speedFactor="1.08" vaporized=""/>
    <tripinfo id="f_0_3.5" depart="41.00" departLane="np3_nt3_0" departPos="2.48" departSpeed="0.00" departDelay="0.09" arrival="195.00" arrivalLane="nt14_np11_0" arrivalPos="75.00" arrivalSpeed="9.70" duration="154.00" routeLength="948.61" waitingTime="39.00" waitingCount="5" stopTime="0.00" timeLoss="69.95" rerouteNo="0" devices="tripinfo_f_0_3.5" vType="type1" speedFactor="0.96" vaporized=""/>
    <tripinfo id="f_0_2.3" depart="25.00" departLane="np2_nt2_0" departPos="13.26" departSpeed="0.00" departDelay="0.45" arrival="198.00" arrivalLane="nt15_np10_0" arrivalPos="75.00" arrivalSpeed="8.44" duration="173.00" routeLength="937.82" waitingTime="49.00" waitingCount="7" stopTime="0.00" timeLoss="91.77" rerouteNo="0" devices="tripinfo_f_0_2.3" vType="type1" speedFactor="0.97" vaporized=""/>
    <tripinfo id="f_0_3.6" depart="50.00" departLane="np3_nt3_0" departPos="1.23" departSpeed="0.00" departDelay="0.91" arrival="208.00" arrivalLane="nt14_np11_0" arrivalPos="75.00" arrivalSpeed="9.14" duration="158.00" routeLength="949.86" waitingTime="35.00" waitingCount="7" stopTime="0.00" timeLoss="77.65" rerouteNo="0" devices="tripinfo_f_0_3.6" vType="type1" speedFactor="1.00" vaporized=""/>
    <tripinfo id="f_0_2.4" depart="33.00" departLane="np2_nt2_0" departPos="46.96" departSpeed="0.00" departDelay="0.27" arrival="209.00" arrivalLane="nt15_np10_0" arrivalPos="75.00" arrivalSpeed="7.92" duration="176.00" routeLength="904.12" waitingTime="38.00" waitingCount="6" stopTime="0.00" timeLoss="82.18" rerouteNo="0" devices="tripinfo_f_0_2.4" vType="type1" speedFactor="0.81" vaporized=""/>
    <tripinfo id="f_0_3.7" depart="58.00" departLane="np3_nt3_0" departPos="15.86" departSpeed="0.00" departDelay="0.73" arrival="217.00" arrivalLane="nt14_np11_0" arrivalPos="75.00" arrivalSpeed="10.17" duration="159.00" routeLength="935.23" waitingTime="44.00" waitingCount="6" stopTime="0.00" timeLoss="77.07" rerouteNo="0" devices="tripinfo_f_0_3.7" vType="type1" speedFactor="0.96" vaporized=""/>
    <tripinfo id="f_0_2.5" depart="41.00" departLane="np2_nt2_0" departPos="28.23" departSpeed="0.00" departDelay="0.09" arrival="218.00" arrivalLane="nt15_np10_0" arrivalPos="75.00" arrivalSpeed="11.60" duration="177.00" routeLength="922.85" waitingTime="40.00" waitingCount="5" stopTime="0.00" timeLoss="111.17" rerouteNo="0" devices="tripinfo_f_0_2.5" vType="type1" speedFactor="1.17" vaporized=""/>
    <tripinfo id="f_0_1.2" depart="28.00" departLane="np16_nt1_0" departPos="19.31" departSpeed="0.00" departDelay="0.73" arrival="220.00" arrivalLane="nt16_np8_0" arrivalPos="75.00" arrivalSpeed="18.41" duration="192.00" routeLength="1328.57" waitingTime="48.00" waitingCount="7" stopTime="0.00" timeLoss="97.79" rerouteNo="0" devices="tripinfo_f_0_1.2" vType="type1" speedFactor="0.98" vaporized=""/>
    <tripinfo id="f_0_3.8" depart="66.00" departLane="np3_nt3_0" departPos="31.48" departSpeed="0.00" departDelay="0.54" arrival="220.00" arrivalLane="nt14_np11_0" arrivalPos="75.00" arrivalSpeed="10.60" duration="154.00" routeLength="919.61" waitingTime="41.00" waitingCount="6" stopTime="0.00" timeLoss="73.88" rerouteNo="0" devices="tripinfo_f_0_3.8" vType="type1" speedFactor="0.97" vaporized=""/>
    <tripinfo id="f_0_3.9" depart="74.00" departLane="np3_nt3_0" departPos="9.27" departSpeed="0.00" departDelay="0.36" arrival="222.00" arrivalLane="nt14_np11_0" arrivalPos="75.00" arrivalSpeed="9.57" duration="148.00" routeLength="941.82" waitingTime="33.00" waitingCount="6" stopTime="0.00" timeLoss="71.27" rerouteNo="0" devices="tripinfo_f_0_3.9" vType="type1" speedFactor="1.03" vaporized=""/>
    <tripinfo id="f_0_1.3" depart="41.00" departLane="np16_nt1_0" departPos="15.22" departSpeed="0.00" departDelay="0.09" arrival="223.00" arrivalLane="nt16_np8_0" arrivalPos="75.00" arrivalSpeed="22.07" duration="182.00" routeLength="1332.66" waitingTime="28.00" waitingCount="4" stopTime="0.00" timeLoss="100.79" rerouteNo="0" devices="tripinfo_f_0_1.3" vType="type1" speedFactor="1.14" vaporized=""/>
    <tripinfo id="f_0_2.6" depart="50.00" departLane="np2_nt2_0" departPos="55.76" departSpeed="0.00" departDelay="0.91" arrival="223.00" arrivalLane="nt15_np10_0" arrivalPos="75.00" arrivalSpeed="8.73" duration="173.00" routeLength="895.32" waitingTime="35.00" waitingCount="7" stopTime="0.00" timeLoss="89.36" rerouteNo="0" devices="tripinfo_f_0_2.6" vType="type1" speedFactor="0.90" vaporized=""/>
    <tripinfo id="f_0_2.7" depart="58.00" departLane="np2_nt2_0" departPos="46.70" departSpeed="0.00" departDelay="0.73" arrival="225.00" arrivalLane="nt15_np10_0" arrivalPos="75.00" arrivalSpeed="7.90" duration="167.00" routeLength="904.38" waitingTime="21.00" waitingCount="6" stopTime="0.00" timeLoss="85.60" rerouteNo="0" devices="tripinfo_f_0_2.7" vType="type1" speedFactor="0.93" vaporized=""/>
    <tripinfo id="f_0_3.10" depart="82.00" departLane="np3_nt3_0" departPos="18.28" departSpeed="0.00" departDelay="0.18" arrival="237.00" arrivalLane="nt14_np11_0" arrivalPos="75.00" arrivalSpeed="9.04" duration="155.00" routeLength="932.81" waitingTime="46.00" waitingCount="5" stopTime="0.00" timeLoss="78.79" rerouteNo="0" devices="tripinfo_f_0_3.10" vType="type1" speedFactor="1.03" vaporized=""/>
    <tripinfo id="f_0_2.8" depart="66.00" departLane="np2_nt2_0" departPos="4.12" departSpeed="0.00" departDelay="0.54" arrival="242.00" arrivalLane="nt15_np10_0" arrivalPos="75.00" arrivalSpeed="9.51" duration="176.00" routeLength="946.96" waitingTime="51.00" waitingCount="4" stopTime="0.00" timeLoss="96.30" rerouteNo="0" devices="tripinfo_f_0_2.8" vType="type1" speedFactor="1.00" vaporized=""/>
    <tripinfo id="f_0_1.4" depart="55.00" departLane="np16_nt1_0" departPos="3.37" departSpeed="0.00" departDelay="0.46" arrival="244.00" arrivalLane="nt16_np8_0" arrivalPos="75.00" arrivalSpeed="16.89" duration="189.00" routeLength="1344.51" waitingTime="26.00" waitingCount="5" stopTime="0.00" timeLoss="80.34" rerouteNo="0" devices="tripinfo_f_0_1.4" vType="type1" speedFactor="0.86" vaporized=""/>
    <tripinfo id="f_0_3.11" depart="90.00" departLane="np3_nt3_0" departPos="31.49" departSpeed="0.00" departDelay="0.00" arrival="244.00" arrivalLane="nt14_np11_0" arrivalPos="75.00" arrivalSpeed="8.15" duration="154.00" routeLength="919.60" waitingTime="33.00" waitingCount="4" stopTime="0.00" timeLoss="62.95" rerouteNo="0" devices="tripinfo_f_0_3.11" vType="type1" speedFactor="0.84" vaporized=""/>
    <tripinfo id="f_0_1.5" depart="69.00" departLane="np16_nt1_0" departPos="14.85" departSpeed="0.00" departDelay="0.82" arrival="245.00" arrivalLane="nt16_np8_0" arrivalPos="75.00" arrivalSpeed="18.63" duration="176.00" routeLength="1333.03" waitingTime="31.00" waitingCount="3" stopTime="0.00" timeLoss="80.26" rerouteNo="0" devices="tripinfo_f_0_1.5" vType="type1" speedFactor="0.97" vaporized=""/>
    <tripinfo id="f_0_3.12" depart="99.00" departLane="np3_nt3_0" departPos="5.66" departSpeed="0.00" departDelay="0.82" arrival="246.00" arrivalLane="nt14_np11_0" arrivalPos="75.00" arrivalSpeed="11.09" duration="147.00" routeLength="945.43" waitingTime="27.00" waitingCount="4" stopTime="0.00" timeLoss="74.40" rerouteNo="0" devices="tripinfo_f_0_3.12" vType="type1" speedFactor="1.10" vaporized=""/>
    <tripinfo id="f_0_0.4" depart="55.00" departLane="np13_nt13_0" departPos="40.83" departSpeed="0.00" departDelay="0.46" arrival="263.00" arrivalLane="nt4_np5_0" arrivalPos="75.00" arrivalSpeed="21.89" duration="208.00" routeLength="1307.06" waitingTime="83.00" waitingCount="6" stopTime="0.00" timeLoss="125.26" rerouteNo="0" devices="tripinfo_f_0_0.4" vType="type1" speedFactor="1.10" vaporized=""/>
    <tripinfo id="f_0_0.5" depart="69.00" departLane="np13_nt13_0" departPos="23.77" departSpeed="0.00" departDelay="0.82" arrival="265.00" arrivalLane="nt4_np5_0" arrivalPos="75.00" arrivalSpeed="21.64" duration="196.00" routeLength="1324.12" waitingTime="71.00" waitingCount="7" stopTime="0.00" timeLoss="116.05" rerouteNo="0" devices="tripinfo_f_0_0.5" vType="type1" speedFactor="1.16" vaporized=""/>
    <tripinfo id="f_0_0.6" depart="82.00" departLane="np13_nt13_0" departPos="9.51" departSpeed="0.00" departDelay="0.18" arrival="278.00" arrivalLane="nt4_np5_0" arrivalPos="75.00" arrivalSpeed="20.56" duration="196.00" routeLength="1338.38" waitingTime="69.00" waitingCount="7" stopTime="0.00" timeLoss="108.11" rerouteNo="0" devices="tripinfo_f_0_0.6" vType="type1" speedFactor="1.06" vaporized=""/>
    <tripinfo id="f_0_0.7" depart="96.00" departLane="np13_nt13_0" departPos="35.79" departSpeed="0.00" departDelay="0.55" arrival="280.00" arrivalLane="nt4_np5_0" arrivalPos="75.00" arrivalSpeed="18.64" duration="184.00" routeLength="1312.10" waitingTime="58.00" waitingCount="4" stopTime="0.00" timeLoss="91.33" rerouteNo="0" devices="tripinfo_f_0_0.7" vType="type1" speedFactor="0.99" vaporized=""/>
    <tripinfo id="f_0_3.13" depart="107.00" departLane="np3_nt3_0" departPos="0.55" departSpeed="0.00" departDelay="0.63" arrival="282.00" arrivalLane="nt14_np11_0" arrivalPos="75.00" arrivalSpeed="10.20" duration="175.00" routeLength="950.54" waitingTime="61.00" waitingCount="5" stopTime="0.00" timeLoss="100.49" rerouteNo="0" devices="tripinfo_f_0_3.13" vType="type1" speedFactor="1.08" vaporized=""/>
    <tripinfo id="f_0_0.8" depart="110.00" departLane="np13_nt13_0" departPos="25.63" departSpeed="0.00" departDelay="0.91" arrival="282.00" arrivalLane="nt4_np5_0" arrivalPos="75.00" arrivalSpeed="16.99" duration="172.00" routeLength="1322.26" waitingTime="37.00" waitingCount="5" stopTime="0.00" timeLoss="69.28" rerouteNo="0" devices="tripinfo_f_0_0.8" vType="type1" speedFactor="0.89" vaporized=""/>
    <tripinfo id="f_0_0.9" depart="123.00" departLane="np13_nt13_0" departPos="48.67" departSpeed="0.00" departDelay="0.28" arrival="284.00" arrivalLane="nt4_np5_0" arrivalPos="75.00" arrivalSpeed="21.77" duration="161.00" routeLength="1299.22" waitingTime="32.00" waitingCount="5" stopTime="0.00" timeLoss="85.55" rerouteNo="0" devices="tripinfo_f_0_0.9" vType="type1" speedFactor="1.21" vaporized=""/>
    <tripinfo id="f_0_3.14" depart="115.00" departLane="np3_nt3_0" departPos="0.77" departSpeed="0.00" departDelay="0.45" arrival="285.00" arrivalLane="nt14_np11_0" arrivalPos="75.00" arrivalSpeed="10.20" duration="170.00" routeLength="950.32" waitingTime="47.00" waitingCount="5" stopTime="0.00" timeLoss="86.97" rerouteNo="0" devices="tripinfo_f_0_3.14" vType="type1" speedFactor="0.97" vaporized=""/>
    <tripinfo id="f_0_3.15" depart="123.00" departLane="np3_nt3_0" departPos="6.09" departSpeed="0.00" departDelay="0.27" arrival="287.00" arrivalLane="nt14_np11_0" arrivalPos="75.00" arrivalSpeed="8.04" duration="164.00" routeLength="945.00" waitingTime="40.00" waitingCount="4" stopTime="0.00" timeLoss="75.44" rerouteNo="0" devices="tripinfo_f_0_3.15" vType="type1" speedFactor="0.89" vaporized=""/>
    <tripinfo id="f_0_0.10" depart="137.00" departLane="np13_nt13_0" departPos="51.91" departSpeed="0.00" departDelay="0.64" arrival="287.00" arrivalLane="nt4_np5_0" arrivalPos="75.00" arrivalSpeed="17.26" duration="150.00" routeLength="1295.98" waitingTime="23.00" waitingCount="4" stopTime="0.00" timeLoss="52.78" rerouteNo="0" devices="tripinfo_f_0_0.10" vType="type1" speedFactor="0.93" vaporized=""/>
    <tripinfo id="f_0_2.9" depart="74.00" departLane="np2_nt2_0" departPos="21.26" departSpeed="0.00" departDelay="0.36" arrival="289.00" arrivalLane="nt15_np10_0" arrivalPos="75.00" arrivalSpeed="8.93" duration="215.00" routeLength="929.82" waitingTime="90.00" waitingCount="6" stopTime="0.00" timeLoss="123.38" rerouteNo="0" devices="tripinfo_f_0_2.9" vType="type1" speedFactor="0.86" vaporized=""/>
    <tripinfo id="f_0_3.16" depart="131.00" departLane="np3_nt3_0" departPos="18.70" departSpeed="0.00" departDelay="0.09" arrival="289.00" arrivalLane="nt14_np11_0" arrivalPos="75.00" arrivalSpeed="11.31" duration="158.00" routeLength="932.39" waitingTime="38.00" waitingCount="5" stopTime="0.00" timeLoss="86.82" rerouteNo="0" devices="tripinfo_f_0_3.16" vType="type1" speedFactor="1.10" vaporized=""/>
    <tripinfo id="f_0_3.17" depart="140.00" departLane="np3_nt3_0" departPos="8.20" departSpeed="0.00" departDelay="0.91" arrival="296.00" arrivalLane="nt14_np11_0" arrivalPos="75.00" arrivalSpeed="11.81" duration="156.00" routeLength="942.89" waitingTime="32.00" waitingCount="5" stopTime="0.00" timeLoss="84.13" rerouteNo="0" devices="tripinfo_f_0_3.17" vType="type1" speedFactor="1.10" vaporized=""/>
    <tripinfo id="f_0_1.6" depart="82.00" departLane="np16_nt1_0" departPos="21.96" departSpeed="0.00" departDelay="0.18" arrival="298.00" arrivalLane="nt16_np8_0" arrivalPos="75.00" arrivalSpeed="18.79" duration="216.00" routeLength="1325.92" waitingTime="80.00" waitingCount="8" stopTime="0.00" timeLoss="128.99" rerouteNo="0" devices="tripinfo_f_0_1.6" vType="type1" speedFactor="1.05" vaporized=""/>
    <tripinfo id="f_0_0.11" depart="150.00" departLane="np13_nt13_0" departPos="52.72" departSpeed="0.00" departDelay="0.00" arrival="303.00" arrivalLane="nt4_np5_0" arrivalPos="75.00" arrivalSpeed="19.78" duration="153.00" routeLength="1295.17" waitingTime="23.00" waitingCount="7" stopTime="0.00" timeLoss="63.19" rerouteNo="0" devices="tripinfo_f_0_0.11" vType="type1" speedFactor="1.01" vaporized=""/>
    <tripinfo id="f_0_2.10" depart="82.00" departLane="np2_nt2_0" departPos="9.79" departSpeed="0.00" departDelay="0.18" arrival="306.00" arrivalLane="nt15_np10_0" arrivalPos="75.00" arrivalSpeed="10.66" duration="224.00" routeLength="941.29" waitingTime="88.00" waitingCount="7" stopTime="0.00" timeLoss="155.36" rerouteNo="0" devices="tripinfo_f_0_2.10" vType="type1" speedFactor="1.15" vaporized=""/>
    <tripinfo id="f_0_3.18" depart="148.00" departLane="np3_nt3_0" departPos="10.17" departSpeed="0.00" departDelay="0.72" arrival="306.00" arrivalLane="nt14_np11_0" arrivalPos="75.00" arrivalSpeed="11.18" duration="158.00" routeLength="940.92" waitingTime="37.00" waitingCount="7" stopTime="0.00" timeLoss="88.40" rerouteNo="0" devices="tripinfo_f_0_3.18" vType="type1" speedFactor="1.13" vaporized=""/>
    <tripinfo id="f_0_3.19" depart="156.00" departLane="np3_nt3_0" departPos="3.77" departSpeed="0.00" departDelay="0.54" arrival="308.00" arrivalLane="nt14_np11_0" arrivalPos="75.00" arrivalSpeed="11.32" duration="152.00" routeLength="947.32" waitingTime="28.00" waitingCount="6" stopTime="0.00" timeLoss="79.62" rerouteNo="0" devices="tripinfo_f_0_3.19" vType="type1" speedFactor="1.10" vaporized=""/>
    <tripinfo id="f_0_2.11" depart="90.00" departLane="np2_nt2_0" departPos="24.95" departSpeed="0.00" departDelay="0.00" arrival="312.00" arrivalLane="nt15_np10_0" arrivalPos="75.00" arrivalSpeed="8.35" duration="222.00" routeLength="926.13" waitingTime="70.00" waitingCount="7" stopTime="0.00" timeLoss="126.61" rerouteNo="0" devices="tripinfo_f_0_2.11" vType="type1" speedFactor="0.82" vaporized=""/>
    <tripinfo id="f_0_0.12" depart="164.00" departLane="np13_nt13_0" departPos="4.03" departSpeed="0.00" departDelay="0.37" arrival="318.00" arrivalLane="nt4_np5_0" arrivalPos="75.00" arrivalSpeed="19.77" duration="154.00" routeLength="1343.86" waitingTime="22.00" waitingCount="5" stopTime="0.00" timeLoss="63.15" rerouteNo="0" devices="tripinfo_f_0_0.12" vType="type1" speedFactor="1.02" vaporized=""/>
    <tripinfo id="f_0_2.12" depart="99.00" departLane="np2_nt2_0" departPos="18.34" departSpeed="0.00" departDelay="0.82" arrival="319.00" arrivalLane="nt15_np10_0" arrivalPos="75.00" arrivalSpeed="6.80" duration="220.00" routeLength="932.74" waitingTime="70.00" waitingCount="8" stopTime="0.00" timeLoss="127.02" rerouteNo="0" devices="tripinfo_f_0_2.12" vType="type1" speedFactor="0.84" vaporized=""/>
    <tripinfo id="f_0_2.13" depart="107.00" departLane="np2_nt2_0" departPos="27.49" departSpeed="0.00" departDelay="0.63" arrival="321.00" arrivalLane="nt15_np10_0" arrivalPos="75.00" arrivalSpeed="11.41" duration="214.00" routeLength="923.59" waitingTime="69.00" waitingCount="9" stopTime="0.00" timeLoss="144.98" rerouteNo="0" devices="tripinfo_f_0_2.13" vType="type1" speedFactor="1.12" vaporized=""/>
    <tripinfo id="f_0_0.13" depart="178.00" departLane="np13_nt13_0" departPos="7.96" departSpeed="0.00" departDelay="0.73" arrival="322.00" arrivalLane="nt4_np5_0" arrivalPos="75.00" arrivalSpeed="16.33" duration="144.00" routeLength="1339.93" waitingTime="17.00" waitingCount="3" stopTime="0.00" timeLoss="44.44" rerouteNo="0" devices="tripinfo_f_0_0.13" vType="type1" speedFactor="0.93" vaporized=""/>
    <tripinfo id="f_0_1.7" depart="96.00" departLane="np16_nt1_0" departPos="57.38" departSpeed="0.00" departDelay="0.55" arrival="324.00" arrivalLane="nt16_np8_0" arrivalPos="75.00" arrivalSpeed="13.18" duration="228.00" routeLength="1290.50" waitingTime="69.00" waitingCount="6" stopTime="0.00" timeLoss="112.34" rerouteNo="0" devices="tripinfo_f_0_1.7" vType="type1" speedFactor="0.78" vaporized=""/>
    <tripinfo id="f_0_2.14" depart="115.00" departLane="np2_nt2_0" departPos="0.66" departSpeed="0.00" departDelay="0.45" arrival="337.00" arrivalLane="nt15_np10_0" arrivalPos="75.00" arrivalSpeed="9.06" duration="222.00" routeLength="950.42" waitingTime="72.00" waitingCount="10" stopTime="0.00" timeLoss="144.73" rerouteNo="0" devices="tripinfo_f_0_2.14" vType="type1" speedFactor="1.03" vaporized=""/>
    <tripinfo id="f_0_3.20" depart="164.00" departLane="np3_nt3_0" departPos="10.00" departSpeed="0.00" departDelay="0.36" arrival="340.00" arrivalLane="nt14_np11_0" arrivalPos="75.00" arrivalSpeed="7.38" duration="176.00" routeLength="941.09" waitingTime="39.00" waitingCount="6" stopTime="0.00" timeLoss="80.38" rerouteNo="0" devices="tripinfo_f_0_3.20" vType="type1" speedFactor="0.83" vaporized=""/>
    <tripinfo id="f_0_3.21" depart="172.00" departLane="np3_nt3_0" departPos="23.90" departSpeed="0.00" departDelay="0.18" arrival="342.00" arrivalLane="nt14_np11_0" arrivalPos="75.00" arrivalSpeed="12.95" duration="170.00" routeLength="927.19" waitingTime="46.00" waitingCount="7" stopTime="0.00" timeLoss="104.13" rerouteNo="0" devices="tripinfo_f_0_3.21" vType="type1" speedFactor="1.18" vaporized=""/>
    <tripinfo id="f_0_3.22" depart="180.00" departLane="np3_nt3_0" departPos="31.10" departSpeed="0.00" departDelay="0.00" arrival="344.00" arrivalLane="nt14_np11_0" arrivalPos="75.00" arrivalSpeed="10.68" duration="164.00" routeLength="919.99" waitingTime="45.00" waitingCount="7" stopTime="0.00" timeLoss="92.68" rerouteNo="0" devices="tripinfo_f_0_3.22" vType="type1" speedFactor="1.09" vaporized=""/>
    <tripinfo id="f_0_3.23" depart="189.00" departLane="np3_nt3_0" departPos="12.32" departSpeed="0.00" departDelay="0.81" arrival="346.00" arrivalLane="nt14_np11_0" arrivalPos="75.00" arrivalSpeed="9.44" duration="157.00" routeLength="938.77" waitingTime="33.00" waitingCount="6" stopTime="0.00" timeLoss="84.35" rerouteNo="0" devices="tripinfo_f_0_3.23" vType="type1" speedFactor="1.08" vaporized=""/>
    <tripinfo id="f_0_2.15" depart="123.00" departLane="np2_nt2_0" departPos="31.57" departSpeed="0.00" departDelay="0.27" arrival="352.00" arrivalLane="nt15_np10_0" arrivalPos="75.00" arrivalSpeed="9.41" duration="229.00" routeLength="919.51" waitingTime="47.00" waitingCount="9" stopTime="0.00" timeLoss="155.25" rerouteNo="0" devices="tripinfo_f_0_2.15" vType="type1" speedFactor="1.05" vaporized=""/>
    <tripinfo id="f_0_0.14" depart="191.00" departLane="np13_nt13_0" departPos="23.14" departSpeed="0.00" departDelay="0.10" arrival="353.00" arrivalLane="nt4_np5_0" arrivalPos="75.00" arrivalSpeed="18.89" duration="162.00" routeLength="1324.75" waitingTime="29.00" waitingCount="4" stopTime="0.00" timeLoss="73.83" rerouteNo="0" devices="tripinfo_f_0_0.14" vType="type1" speedFactor="1.05" vaporized=""/>
    <tripinfo id="f_0_2.16" depart="131.00" departLane="np2_nt2_0" departPos="9.13" departSpeed="0.00" departDelay="0.09" arrival="354.00" arrivalLane="nt15_np10_0" arrivalPos="75.00" arrivalSpeed="10.95" duration="223.00" routeLength="941.95" waitingTime="52.00" waitingCount="10" stopTime="0.00" timeLoss="146.72" rerouteNo="0" devices="tripinfo_f_0_2.16" vType="type1" speedFactor="1.04" vaporized=""/>
    <tripinfo id="f_0_0.15" depart="205.00" departLane="np13_nt13_0" departPos="18.08" departSpeed="0.00" departDelay="0.46" arrival="355.00" arrivalLane="nt4_np5_0" arrivalPos="75.00" arrivalSpeed="19.18" duration="150.00" routeLength="1329.81" waitingTime="20.00" waitingCount="3" stopTime="0.00" timeLoss="54.63" rerouteNo="0" devices="tripinfo_f_0_0.15" vType="type1" speedFactor="0.97" vaporized=""/>
    <tripinfo id="f_0_1.8" depart="110.00" departLane="np16_nt1_0" departPos="9.66" departSpeed="0.00" departDelay="0.91" arrival="358.00" arrivalLane="nt16_np8_0" arrivalPos="75.00" arrivalSpeed="18.17" duration="248.00" routeLength="1338.22" waitingTime="71.00" waitingCount="12" stopTime="0.00" timeLoss="158.07" rerouteNo="0" devices="tripinfo_f_0_1.8" vType="type1" speedFactor="1.03" vaporized=""/>
    <tripinfo id="f_0_0.16" depart="219.00" departLane="np13_nt13_0" departPos="67.72" departSpeed="0.00" departDelay="0.82" arrival="358.00" arrivalLane="nt4_np5_0" arrivalPos="75.00" arrivalSpeed="16.58" duration="139.00" routeLength="1280.17" waitingTime="9.00" waitingCount="2" stopTime="0.00" timeLoss="36.12" rerouteNo="0" devices="tripinfo_f_0_0.16" vType="type1" speedFactor="0.88" vaporized=""/>
    <tripinfo id="f_0_1.9" depart="123.00" departLane="np16_nt1_0" departPos="13.86" departSpeed="0.00" departDelay="0.28" arrival="360.00" arrivalLane="nt16_np8_0" arrivalPos="75.00" arrivalSpeed="20.15" duration="237.00" routeLength="1334.02" waitingTime="54.00" waitingCount="9" stopTime="0.00" timeLoss="150.59" rerouteNo="0" devices="tripinfo_f_0_1.9" vType="type1" speedFactor="1.08" vaporized=""/>
    <tripinfo id="f_0_2.17" depart="140.00" departLane="np2_nt2_0" departPos="39.13" departSpeed="0.00" departDelay="0.91" arrival="361.00" arrivalLane="nt15_np10_0" arrivalPos="75.00" arrivalSpeed="10.35" duration="221.00" routeLength="911.95" waitingTime="48.00" waitingCount="9" stopTime="0.00" timeLoss="153.27" rerouteNo="0" devices="tripinfo_f_0_2.17" vType="type1" speedFactor="1.12" vaporized=""/>
    <tripinfo id="f_0_2.18" depart="148.00" departLane="np2_nt2_0" departPos="20.05" departSpeed="0.00" departDelay="0.72" arrival="364.00" arrivalLane="nt15_np10_0" arrivalPos="75.00" arrivalSpeed="11.86" duration="216.00" routeLength="931.03" waitingTime="43.00" waitingCount="10" stopTime="0.00" timeLoss="143.07" rerouteNo="0" devices="tripinfo_f_0_2.18" vType="type1" speedFactor="1.08" vaporized=""/>
    <tripinfo id="f_0_3.24" depart="197.00" departLane="np3_nt3_0" departPos="20.36" departSpeed="0.00" departDelay="0.63" arrival="367.00" arrivalLane="nt14_np11_0" arrivalPos="75.00" arrivalSpeed="10.32" duration="170.00" routeLength="930.73" waitingTime="48.00" waitingCount="6" stopTime="0.00" timeLoss="93.25" rerouteNo="0" devices="tripinfo_f_0_3.24" vType="type1" speedFactor="1.01" vaporized=""/>