<?xml version="1.0" encoding="UTF-8"?>

<!-- generated on 2023-08-23 16:19:13 by Eclipse SUMO libsumo Version 1.18.0
<configuration xmlns:xsi="http://www.w3.org/2001/XMLSchema-instance" xsi:noNamespaceSchemaLocation="http://sumo.dlr.de/xsd/libsumoConfiguration.xsd">

    <input>
        <net-file value="/home/stefan/RESCO/./environments/arterial4x4/arterial4x4.net.xml"/>
        <route-files value="/home/stefan/RESCO/./environments/arterial4x4/arterial4x4_36.rou.xml"/>
    </input>

    <output>
        <tripinfo-output value="/home/stefan/results/IDDQN-tr0-arterial4x4-0-drq_norm-wait_norm/tripinfo_36.xml"/>
        <tripinfo-output.write-unfinished value="true"/>
    </output>

    <processing>
        <time-to-teleport value="-1"/>
    </processing>

    <report>
        <no-warnings value="True"/>
        <no-step-log value="True"/>
    </report>

    <random_number>
        <random value="true"/>
    </random_number>

</configuration>
-->

<tripinfos xmlns:xsi="http://www.w3.org/2001/XMLSchema-instance" xsi:noNamespaceSchemaLocation="http://sumo.dlr.de/xsd/tripinfo_file.xsd">
    <tripinfo id="f_0_2.0" depart="0.00" departLane="np2_nt2_0" departPos="55.60" departSpeed="0.00" departDelay="0.00" arrival="107.00" arrivalLane="nt15_np10_0" arrivalPos="75.00" arrivalSpeed="10.18" duration="107.00" routeLength="895.48" waitingTime="20.00" waitingCount="2" stopTime="0.00" timeLoss="36.56" rerouteNo="0" devices="tripinfo_f_0_2.0" vType="type1" speedFactor="1.07" vaporized=""/>
    <tripinfo id="f_0_2.1" depart="9.00" departLane="np2_nt2_0" departPos="30.44" departSpeed="0.00" departDelay="0.82" arrival="142.00" arrivalLane="nt15_np10_0" arrivalPos="75.00" arrivalSpeed="10.17" duration="133.00" routeLength="920.64" waitingTime="38.00" waitingCount="2" stopTime="0.00" timeLoss="62.26" rerouteNo="0" devices="tripinfo_f_0_2.1" vType="type1" speedFactor="1.10" vaporized=""/>
    <tripinfo id="f_0_2.2" depart="17.00" departLane="np2_nt2_0" departPos="36.18" departSpeed="0.00" departDelay="0.64" arrival="144.00" arrivalLane="nt15_np10_0" arrivalPos="75.00" arrivalSpeed="11.01" duration="127.00" routeLength="914.90" waitingTime="20.00" waitingCount="4" stopTime="0.00" timeLoss="50.39" rerouteNo="0" devices="tripinfo_f_0_2.2" vType="type1" speedFactor="1.01" vaporized=""/>
    <tripinfo id="f_0_1.0" depart="0.00" departLane="np16_nt1_0" departPos="55.51" departSpeed="0.00" departDelay="0.00" arrival="161.00" arrivalLane="nt16_np8_0" arrivalPos="75.00" arrivalSpeed="21.03" duration="161.00" routeLength="1292.37" waitingTime="33.00" waitingCount="6" stopTime="0.00" timeLoss="79.59" rerouteNo="0" devices="tripinfo_f_0_1.0" vType="type1" speedFactor="1.11" vaporized=""/>
    <tripinfo id="f_0_3.0" depart="0.00" departLane="np3_nt3_0" departPos="61.83" departSpeed="0.00" departDelay="0.00" arrival="177.00" arrivalLane="nt14_np11_0" arrivalPos="75.00" arrivalSpeed="7.43" duration="177.00" routeLength="889.26" waitingTime="60.00" waitingCount="2" stopTime="0.00" timeLoss="84.78" rerouteNo="0" devices="tripinfo_f_0_3.0" vType="type1" speedFactor="0.80" vaporized=""/>
    <tripinfo id="f_0_2.3" depart="25.00" departLane="np2_nt2_0" departPos="27.89" departSpeed="0.00" departDelay="0.45" arrival="179.00" arrivalLane="nt15_np10_0" arrivalPos="75.00" arrivalSpeed="8.84" duration="154.00" routeLength="923.19" waitingTime="38.00" waitingCount="5" stopTime="0.00" timeLoss="62.34" rerouteNo="0" devices="tripinfo_f_0_2.3" vType="type1" speedFactor="0.85" vaporized=""/>
    <tripinfo id="f_0_2.4" depart="33.00" departLane="np2_nt2_0" departPos="13.19" departSpeed="0.00" departDelay="0.27" arrival="181.00" arrivalLane="nt15_np10_0" arrivalPos="75.00" arrivalSpeed="10.16" duration="148.00" routeLength="937.89" waitingTime="29.00" waitingCount="5" stopTime="0.00" timeLoss="76.72" rerouteNo="0" devices="tripinfo_f_0_2.4" vType="type1" speedFactor="1.10" vaporized=""/>
    <tripinfo id="f_0_2.5" depart="41.00" departLane="np2_nt2_0" departPos="48.45" departSpeed="0.00" departDelay="0.09" arrival="184.00" arrivalLane="nt15_np10_0" arrivalPos="75.00" arrivalSpeed="10.44" duration="143.00" routeLength="902.63" waitingTime="27.00" waitingCount="5" stopTime="0.00" timeLoss="70.58" rerouteNo="0" devices="tripinfo_f_0_2.5" vType="type1" speedFactor="1.04" vaporized=""/>
    <tripinfo id="f_0_1.1" depart="14.00" departLane="np16_nt1_0" departPos="46.17" departSpeed="0.00" departDelay="0.36" arrival="187.00" arrivalLane="nt16_np8_0" arrivalPos="75.00" arrivalSpeed="18.34" duration="173.00" routeLength="1301.71" waitingTime="40.00" waitingCount="6" stopTime="0.00" timeLoss="84.77" rerouteNo="0" devices="tripinfo_f_0_1.1" vType="type1" speedFactor="1.03" vaporized=""/>
    <tripinfo id="f_0_2.6" depart="50.00" departLane="np2_nt2_0" departPos="2.06" departSpeed="0.00" departDelay="0.91" arrival="189.00" arrivalLane="nt15_np10_0" arrivalPos="75.00" arrivalSpeed="10.07" duration="139.00" routeLength="949.02" waitingTime="30.00" waitingCount="6" stopTime="0.00" timeLoss="63.67" rerouteNo="0" devices="tripinfo_f_0_2.6" vType="type1" speedFactor="1.05" vaporized=""/>
    <tripinfo id="f_0_1.2" depart="28.00" departLane="np16_nt1_0" departPos="48.94" departSpeed="0.00" departDelay="0.73" arrival="203.00" arrivalLane="nt16_np8_0" arrivalPos="75.00" arrivalSpeed="20.36" duration="175.00" routeLength="1298.94" waitingTime="38.00" waitingCount="6" stopTime="0.00" timeLoss="87.70" rerouteNo="0" devices="tripinfo_f_0_1.2" vType="type1" speedFactor="1.03" vaporized=""/>
    <tripinfo id="f_0_0.0" depart="0.00" departLane="np13_nt13_0" departPos="4.66" departSpeed="0.00" departDelay="0.00" arrival="210.00" arrivalLane="nt4_np5_0" arrivalPos="75.00" arrivalSpeed="11.85" duration="210.00" routeLength="1343.23" waitingTime="33.00" waitingCount="5" stopTime="0.00" timeLoss="79.16" rerouteNo="0" devices="tripinfo_f_0_0.0" vType="type1" speedFactor="0.71" vaporized=""/>
    <tripinfo id="f_0_0.1" depart="14.00" departLane="np13_nt13_0" departPos="42.86" departSpeed="0.00" departDelay="0.36" arrival="211.00" arrivalLane="nt4_np5_0" arrivalPos="75.00" arrivalSpeed="17.06" duration="197.00" routeLength="1305.03" waitingTime="38.00" waitingCount="6" stopTime="0.00" timeLoss="110.75" rerouteNo="0" devices="tripinfo_f_0_0.1" vType="type1" speedFactor="1.05" vaporized=""/>
    <tripinfo id="f_0_3.1" depart="9.00" departLane="np3_nt3_0" departPos="31.29" departSpeed="0.00" departDelay="0.82" arrival="219.00" arrivalLane="nt14_np11_0" arrivalPos="75.00" arrivalSpeed="7.59" duration="210.00" routeLength="919.80" waitingTime="85.00" waitingCount="6" stopTime="0.00" timeLoss="120.13" rerouteNo="0" devices="tripinfo_f_0_3.1" vType="type1" speedFactor="0.86" vaporized=""/>
    <tripinfo id="f_0_3.2" depart="17.00" departLane="np3_nt3_0" departPos="25.08" departSpeed="0.00" departDelay="0.64" arrival="221.00" arrivalLane="nt14_np11_0" arrivalPos="75.00" arrivalSpeed="9.72" duration="204.00" routeLength="926.01" waitingTime="86.00" waitingCount="6" stopTime="0.00" timeLoss="131.57" rerouteNo="0" devices="tripinfo_f_0_3.2" vType="type1" speedFactor="1.07" vaporized=""/>
    <tripinfo id="f_0_1.3" depart="41.00" departLane="np16_nt1_0" departPos="0.99" departSpeed="0.00" departDelay="0.09" arrival="223.00" arrivalLane="nt16_np8_0" arrivalPos="75.00" arrivalSpeed="17.46" duration="182.00" routeLength="1346.89" waitingTime="39.00" waitingCount="6" stopTime="0.00" timeLoss="83.50" rerouteNo="0" devices="tripinfo_f_0_1.3" vType="type1" speedFactor="0.95" vaporized=""/>
    <tripinfo id="f_0_2.7" depart="58.00" departLane="np2_nt2_0" departPos="8.61" departSpeed="0.00" departDelay="0.73" arrival="223.00" arrivalLane="nt15_np10_0" arrivalPos="75.00" arrivalSpeed="8.99" duration="165.00" routeLength="942.47" waitingTime="45.00" waitingCount="6" stopTime="0.00" timeLoss="81.04" rerouteNo="0" devices="tripinfo_f_0_2.7" vType="type1" speedFactor="0.95" vaporized=""/>
    <tripinfo id="f_0_2.8" depart="66.00" departLane="np2_nt2_0" departPos="43.82" departSpeed="0.00" departDelay="0.54" arrival="247.00" arrivalLane="nt15_np10_0" arrivalPos="75.00" arrivalSpeed="9.86" duration="181.00" routeLength="907.26" waitingTime="62.00" waitingCount="5" stopTime="0.00" timeLoss="103.99" rerouteNo="0" devices="tripinfo_f_0_2.8" vType="type1" speedFactor="0.99" vaporized=""/>
    <tripinfo id="f_0_2.9" depart="74.00" departLane="np2_nt2_0" departPos="63.74" departSpeed="0.00" departDelay="0.36" arrival="252.00" arrivalLane="nt15_np10_0" arrivalPos="75.00" arrivalSpeed="8.68" duration="178.00" routeLength="887.34" waitingTime="58.00" waitingCount="7" stopTime="0.00" timeLoss="97.45" rerouteNo="0" devices="tripinfo_f_0_2.9" vType="type1" speedFactor="0.92" vaporized=""/>
    <tripinfo id="f_0_0.2" depart="28.00" departLane="np13_nt13_0" departPos="50.76" departSpeed="0.00" departDelay="0.73" arrival="253.00" arrivalLane="nt4_np5_0" arrivalPos="75.00" arrivalSpeed="18.65" duration="225.00" routeLength="1297.13" waitingTime="91.00" waitingCount="9" stopTime="0.00" timeLoss="136.53" rerouteNo="0" devices="tripinfo_f_0_0.2" vType="type1" speedFactor="1.02" vaporized=""/>
    <tripinfo id="f_0_0.3" depart="41.00" departLane="np13_nt13_0" departPos="56.17" departSpeed="0.00" departDelay="0.09" arrival="255.00" arrivalLane="nt4_np5_0" arrivalPos="75.00" arrivalSpeed="20.22" duration="214.00" routeLength="1291.72" waitingTime="72.00" waitingCount="6" stopTime="0.00" timeLoss="124.32" rerouteNo="0" devices="tripinfo_f_0_0.3" vType="type1" speedFactor="1.01" vaporized=""/>
    <tripinfo id="f_0_1.4" depart="55.00" departLane="np16_nt1_0" departPos="9.02" departSpeed="0.00" departDelay="0.46" arrival="255.00" arrivalLane="nt16_np8_0" arrivalPos="75.00" arrivalSpeed="22.37" duration="200.00" routeLength="1338.86" waitingTime="58.00" waitingCount="5" stopTime="0.00" timeLoss="118.84" rerouteNo="0" devices="tripinfo_f_0_1.4" vType="type1" speedFactor="1.15" vaporized=""/>
    <tripinfo id="f_0_3.3" depart="25.00" departLane="np3_nt3_0" departPos="7.54" departSpeed="0.00" departDelay="0.45" arrival="257.00" arrivalLane="nt14_np11_0" arrivalPos="75.00" arrivalSpeed="10.37" duration="232.00" routeLength="943.55" waitingTime="113.00" waitingCount="7" stopTime="0.00" timeLoss="148.83" rerouteNo="0" devices="tripinfo_f_0_3.3" vType="type1" speedFactor="0.95" vaporized=""/>
    <tripinfo id="f_0_0.4" depart="55.00" departLane="np13_nt13_0" departPos="21.61" departSpeed="0.00" departDelay="0.46" arrival="257.00" arrivalLane="nt4_np5_0" arrivalPos="75.00" arrivalSpeed="21.38" duration="202.00" routeLength="1326.28" waitingTime="71.00" waitingCount="7" stopTime="0.00" timeLoss="115.65" rerouteNo="0" devices="tripinfo_f_0_0.4" vType="type1" speedFactor="1.07" vaporized=""/>
    <tripinfo id="f_0_2.10" depart="82.00" departLane="np2_nt2_0" departPos="17.41" departSpeed="0.00" departDelay="0.18" arrival="257.00" arrivalLane="nt15_np10_0" arrivalPos="75.00" arrivalSpeed="9.70" duration="175.00" routeLength="933.67" waitingTime="46.00" waitingCount="5" stopTime="0.00" timeLoss="92.83" rerouteNo="0" devices="tripinfo_f_0_2.10" vType="type1" speedFactor="0.96" vaporized=""/>
    <tripinfo id="f_0_0.5" depart="69.00" departLane="np13_nt13_0" departPos="58.95" departSpeed="0.00" departDelay="0.82" arrival="259.00" arrivalLane="nt4_np5_0" arrivalPos="75.00" arrivalSpeed="19.68" duration="190.00" routeLength="1288.94" waitingTime="57.00" waitingCount="6" stopTime="0.00" timeLoss="98.47" rerouteNo="0" devices="tripinfo_f_0_0.5" vType="type1" speedFactor="0.99" vaporized=""/>
    <tripinfo id="f_0_0.6" depart="82.00" departLane="np13_nt13_0" departPos="53.37" departSpeed="0.00" departDelay="0.18" arrival="260.00" arrivalLane="nt4_np5_0" arrivalPos="75.00" arrivalSpeed="19.78" duration="178.00" routeLength="1294.52" waitingTime="55.00" waitingCount="5" stopTime="0.00" timeLoss="88.09" rerouteNo="0" devices="tripinfo_f_0_0.6" vType="type1" speedFactor="1.01" vaporized=""/>
    <tripinfo id="f_0_1.5" depart="69.00" departLane="np16_nt1_0" departPos="52.10" departSpeed="0.00" departDelay="0.82" arrival="261.00" arrivalLane="nt16_np8_0" arrivalPos="75.00" arrivalSpeed="19.90" duration="192.00" routeLength="1295.78" waitingTime="48.00" waitingCount="5" stopTime="0.00" timeLoss="102.10" rerouteNo="0" devices="tripinfo_f_0_1.5" vType="type1" speedFactor="1.01" vaporized=""/>
    <tripinfo id="f_0_0.7" depart="96.00" departLane="np13_nt13_0" departPos="46.33" departSpeed="0.00" departDelay="0.55" arrival="262.00" arrivalLane="nt4_np5_0" arrivalPos="75.00" arrivalSpeed="18.33" duration="166.00" routeLength="1301.56" waitingTime="44.00" waitingCount="3" stopTime="0.00" timeLoss="75.20" rerouteNo="0" devices="tripinfo_f_0_0.7" vType="type1" speedFactor="1.00" vaporized=""/>
    <tripinfo id="f_0_3.4" depart="33.00" departLane="np3_nt3_0" departPos="29.41" departSpeed="0.00" departDelay="0.27" arrival="263.00" arrivalLane="nt14_np11_0" arrivalPos="75.00" arrivalSpeed="8.21" duration="230.00" routeLength="921.68" waitingTime="86.00" waitingCount="5" stopTime="0.00" timeLoss="129.13" rerouteNo="0" devices="tripinfo_f_0_3.4" vType="type1" speedFactor="0.77" vaporized=""/>
    <tripinfo id="f_0_0.8" depart="110.00" departLane="np13_nt13_0" departPos="41.99" departSpeed="0.00" departDelay="0.91" arrival="264.00" arrivalLane="nt4_np5_0" arrivalPos="75.00" arrivalSpeed="22.57" duration="154.00" routeLength="1305.90" waitingTime="42.00" waitingCount="3" stopTime="0.00" timeLoss="73.29" rerouteNo="0" devices="tripinfo_f_0_0.8" vType="type1" speedFactor="1.13" vaporized=""/>
    <tripinfo id="f_0_1.6" depart="82.00" departLane="np16_nt1_0" departPos="37.07" departSpeed="0.00" departDelay="0.18" arrival="266.00" arrivalLane="nt16_np8_0" arrivalPos="75.00" arrivalSpeed="20.58" duration="184.00" routeLength="1310.81" waitingTime="42.00" waitingCount="4" stopTime="0.00" timeLoss="95.00" rerouteNo="0" devices="tripinfo_f_0_1.6" vType="type1" speedFactor="1.03" vaporized=""/>
    <tripinfo id="f_0_2.11" depart="90.00" departLane="np2_nt2_0" departPos="16.79" departSpeed="0.00" departDelay="0.00" arrival="267.00" arrivalLane="nt15_np10_0" arrivalPos="75.00" arrivalSpeed="9.69" duration="177.00" routeLength="934.29" waitingTime="45.00" waitingCount="6" stopTime="0.00" timeLoss="91.86" rerouteNo="0" devices="tripinfo_f_0_2.11" vType="type1" speedFactor="0.92" vaporized=""/>
    <tripinfo id="f_0_2.12" depart="99.00" departLane="np2_nt2_0" departPos="53.03" departSpeed="0.00" departDelay="0.82" arrival="270.00" arrivalLane="nt15_np10_0" arrivalPos="75.00" arrivalSpeed="9.46" duration="171.00" routeLength="898.05" waitingTime="46.00" waitingCount="8" stopTime="0.00" timeLoss="95.55" rerouteNo="0" devices="tripinfo_f_0_2.12" vType="type1" speedFactor="1.00" vaporized=""/>
    <tripinfo id="f_0_2.13" depart="107.00" departLane="np2_nt2_0" departPos="53.19" departSpeed="0.00" departDelay="0.63" arrival="277.00" arrivalLane="nt15_np10_0" arrivalPos="75.00" arrivalSpeed="10.66" duration="170.00" routeLength="897.89" waitingTime="60.00" waitingCount="7" stopTime="0.00" timeLoss="100.70" rerouteNo="0" devices="tripinfo_f_0_2.13" vType="type1" speedFactor="1.08" vaporized=""/>
    <tripinfo id="f_0_3.5" depart="41.00" departLane="np3_nt3_0" departPos="20.21" departSpeed="0.00" departDelay="0.09" arrival="279.00" arrivalLane="nt14_np11_0" arrivalPos="75.00" arrivalSpeed="7.70" duration="238.00" routeLength="930.88" waitingTime="90.00" waitingCount="6" stopTime="0.00" timeLoss="145.08" rerouteNo="0" devices="tripinfo_f_0_3.5" vType="type1" speedFactor="0.84" vaporized=""/>
    <tripinfo id="f_0_2.14" depart="115.00" departLane="np2_nt2_0" departPos="37.40" departSpeed="0.00" departDelay="0.45" arrival="281.00" arrivalLane="nt15_np10_0" arrivalPos="75.00" arrivalSpeed="12.12" duration="166.00" routeLength="913.68" waitingTime="47.00" waitingCount="8" stopTime="0.00" timeLoss="97.10" rerouteNo="0" devices="tripinfo_f_0_2.14" vType="type1" speedFactor="1.11" vaporized=""/>
    <tripinfo id="f_0_2.15" depart="123.00" departLane="np2_nt2_0" departPos="12.82" departSpeed="0.00" departDelay="0.27" arrival="285.00" arrivalLane="nt15_np10_0" arrivalPos="75.00" arrivalSpeed="10.16" duration="162.00" routeLength="938.26" waitingTime="29.00" waitingCount="7" stopTime="0.00" timeLoss="77.04" rerouteNo="0" devices="tripinfo_f_0_2.15" vType="type1" speedFactor="0.94" vaporized=""/>
    <tripinfo id="f_0_1.7" depart="96.00" departLane="np16_nt1_0" departPos="24.24" departSpeed="0.00" departDelay="0.55" arrival="286.00" arrivalLane="nt16_np8_0" arrivalPos="75.00" arrivalSpeed="20.73" duration="190.00" routeLength="1323.64" waitingTime="53.00" waitingCount="6" stopTime="0.00" timeLoss="103.97" rerouteNo="0" devices="tripinfo_f_0_1.7" vType="type1" speedFactor="1.08" vaporized=""/>
    <tripinfo id="f_0_2.16" depart="131.00" departLane="np2_nt2_0" departPos="26.26" departSpeed="0.00" departDelay="0.09" arrival="286.00" arrivalLane="nt15_np10_0" arrivalPos="75.00" arrivalSpeed="12.28" duration="155.00" routeLength="924.82" waitingTime="42.00" waitingCount="7" stopTime="0.00" timeLoss="86.71" rerouteNo="0" devices="tripinfo_f_0_2.16" vType="type1" speedFactor="1.13" vaporized=""/>
    <tripinfo id="f_0_0.9" depart="123.00" departLane="np13_nt13_0" departPos="41.86" departSpeed="0.00" departDelay="0.28" arrival="288.00" arrivalLane="nt4_np5_0" arrivalPos="75.00" arrivalSpeed="19.31" duration="165.00" routeLength="1306.03" waitingTime="51.00" waitingCount="5" stopTime="0.00" timeLoss="81.88" rerouteNo="0" devices="tripinfo_f_0_0.9" vType="type1" speedFactor="1.09" vaporized=""/>
    <tripinfo id="f_0_3.6" depart="50.00" departLane="np3_nt3_0" departPos="2.13" departSpeed="0.00" departDelay="0.91" arrival="298.00" arrivalLane="nt14_np11_0" arrivalPos="75.00" arrivalSpeed="10.38" duration="248.00" routeLength="948.96" waitingTime="113.00" waitingCount="8" stopTime="0.00" timeLoss="163.18" rerouteNo="0" devices="tripinfo_f_0_3.6" vType="type1" speedFactor="0.94" vaporized=""/>
    <tripinfo id="f_0_0.10" depart="137.00" departLane="np13_nt13_0" departPos="35.30" departSpeed="0.00" departDelay="0.64" arrival="298.00" arrivalLane="nt4_np5_0" arrivalPos="75.00" arrivalSpeed="19.93" duration="161.00" routeLength="1312.59" waitingTime="26.00" waitingCount="6" stopTime="0.00" timeLoss="70.21" rerouteNo="0" devices="tripinfo_f_0_0.10" vType="type1" speedFactor="1.01" vaporized=""/>
    <tripinfo id="f_0_0.11" depart="150.00" departLane="np13_nt13_0" departPos="44.74" departSpeed="0.00" departDelay="0.00" arrival="313.00" arrivalLane="nt4_np5_0" arrivalPos="75.00" arrivalSpeed="17.82" duration="163.00" routeLength="1303.15" waitingTime="22.00" waitingCount="5" stopTime="0.00" timeLoss="64.53" rerouteNo="0" devices="tripinfo_f_0_0.11" vType="type1" speedFactor="0.92" vaporized=""/>
    <tripinfo id="f_0_0.12" depart="164.00" departLane="np13_nt13_0" departPos="61.16" departSpeed="0.00" departDelay="0.37" arrival="316.00" arrivalLane="nt4_np5_0" arrivalPos="75.00" arrivalSpeed="17.76" duration="152.00" routeLength="1286.73" waitingTime="17.00" waitingCount="4" stopTime="0.00" timeLoss="57.23" rerouteNo="0" devices="tripinfo_f_0_0.12" vType="type1" speedFactor="0.95" vaporized=""/>
    <tripinfo id="f_0_2.17" depart="140.00" departLane="np2_nt2_0" departPos="6.88" departSpeed="0.00" departDelay="0.91" arrival="320.00" arrivalLane="nt15_np10_0" arrivalPos="75.00" arrivalSpeed="8.19" duration="180.00" routeLength="944.20" waitingTime="41.00" waitingCount="5" stopTime="0.00" timeLoss="76.35" rerouteNo="0" devices="tripinfo_f_0_2.17" vType="type1" speedFactor="0.77" vaporized=""/>
    <tripinfo id="f_0_2.18" depart="148.00" departLane="np2_nt2_0" departPos="38.40" departSpeed="0.00" departDelay="0.72" arrival="322.00" arrivalLane="nt15_np10_0" arrivalPos="75.00" arrivalSpeed="11.08" duration="174.00" routeLength="912.68" waitingTime="55.00" waitingCount="6" stopTime="0.00" timeLoss="99.97" rerouteNo="0" devices="tripinfo_f_0_2.18" vType="type1" speedFactor="1.04" vaporized=""/>
    <tripinfo id="f_0_3.7" depart="58.00" departLane="np3_nt3_0" departPos="2.02" departSpeed="0.00" departDelay="0.73" arrival="324.00" arrivalLane="nt14_np11_0" arrivalPos="75.00" arrivalSpeed="8.39" duration="266.00" routeLength="949.07" waitingTime="129.00" waitingCount="8" stopTime="0.00" timeLoss="174.91" rerouteNo="0" devices="tripinfo_f_0_3.7" vType="type1" speedFactor="0.88" vaporized=""/>
    <tripinfo id="f_0_3.8" depart="66.00" departLane="np3_nt3_0" departPos="1.71" departSpeed="0.00" departDelay="0.54" arrival="326.00" arrivalLane="nt14_np11_0" arrivalPos="75.00" arrivalSpeed="9.66" duration="260.00" routeLength="949.38" waitingTime="120.00" waitingCount="10" stopTime="0.00" timeLoss="175.83" rerouteNo="0" devices="tripinfo_f_0_3.8" vType="type1" speedFactor="0.95" vaporized=""/>
    <tripinfo id="f_0_3.9" depart="74.00" departLane="np3_nt3_0" departPos="6.58" departSpeed="0.00" departDelay="0.36" arrival="335.00" arrivalLane="nt14_np11_0" arrivalPos="75.00" arrivalSpeed="8.13" duration="261.00" routeLength="944.51" waitingTime="102.00" waitingCount="10" stopTime="0.00" timeLoss="164.26" rerouteNo="0" devices="tripinfo_f_0_3.9" vType="type1" speedFactor="0.82" vaporized=""/>
    <tripinfo id="f_0_2.19" depart="156.00" departLane="np2_nt2_0" departPos="46.22" departSpeed="0.00" departDelay="0.54" arrival="338.00" arrivalLane="nt15_np10_0" arrivalPos="75.00" arrivalSpeed="9.61" duration="182.00" routeLength="904.86" waitingTime="59.00" waitingCount="7" stopTime="0.00" timeLoss="102.40" rerouteNo="0" devices="tripinfo_f_0_2.19" vType="type1" speedFactor="0.95" vaporized=""/>
    <tripinfo id="f_0_0.13" depart="178.00" departLane="np13_nt13_0" departPos="13.17" departSpeed="0.00" departDelay="0.73" arrival="338.00" arrivalLane="nt4_np5_0" arrivalPos="75.00" arrivalSpeed="20.80" duration="160.00" routeLength="1334.72" waitingTime="31.00" waitingCount="7" stopTime="0.00" timeLoss="73.64" rerouteNo="0" devices="tripinfo_f_0_0.13" vType="type1" speedFactor="1.07" vaporized=""/>
    <tripinfo id="f_0_2.20" depart="164.00" departLane="np2_nt2_0" departPos="44.26" departSpeed="0.00" departDelay="0.36" arrival="341.00" arrivalLane="nt15_np10_0" arrivalPos="75.00" arrivalSpeed="7.66" duration="177.00" routeLength="906.82" waitingTime="46.00" waitingCount="6" stopTime="0.00" timeLoss="90.08" rerouteNo="0" devices="tripinfo_f_0_2.20" vType="type1" speedFactor="0.88" vaporized=""/>
    <tripinfo id="f_0_2.21" depart="172.00" departLane="np2_nt2_0" departPos="37.43" departSpeed="0.00" departDelay="0.18" arrival="346.00" arrivalLane="nt15_np10_0" arrivalPos="75.00" arrivalSpeed="11.84" duration="174.00" routeLength="913.65" waitingTime="40.00" waitingCount="6" stopTime="0.00" timeLoss="103.98" rerouteNo="0" devices="tripinfo_f_0_2.21" vType="type1" speedFactor="1.09" vaporized=""/>
    <tripinfo id="f_0_0.14" depart="191.00" departLane="np13_nt13_0" departPos="48.14" departSpeed="0.00" departDelay="0.10" arrival="347.00" arrivalLane="nt4_np5_0" arrivalPos="75.00" arrivalSpeed="17.56" duration="156.00" routeLength="1299.75" waitingTime="26.00" waitingCount="5" stopTime="0.00" timeLoss="64.22" rerouteNo="0" devices="tripinfo_f_0_0.14" vType="type1" speedFactor="0.99" vaporized=""/>
    <tripinfo id="f_0_1.8" depart="110.00" departLane="np16_nt1_0" departPos="49.07" departSpeed="0.00" departDelay="0.91" arrival="349.00" arrivalLane="nt16_np8_0" arrivalPos="75.00" arrivalSpeed="19.75" duration="239.00" routeLength="1298.81" waitingTime="82.00" waitingCount="8" stopTime="0.00" timeLoss="156.30" rerouteNo="0" devices="tripinfo_f_0_1.8" vType="type1" speedFactor="1.11" vaporized=""/>
    <tripinfo id="f_0_1.9" depart="123.00" departLane="np16_nt1_0" departPos="57.73" departSpeed="0.00" departDelay="0.28" arrival="354.00" arrivalLane="nt16_np8_0" arrivalPos="75.00" arrivalSpeed="17.79" duration="231.00" routeLength="1290.15" waitingTime="76.00" waitingCount="8" stopTime="0.00" timeLoss="134.67" rerouteNo="0" devices="tripinfo_f_0_1.9" vType="type1" speedFactor="0.94" vaporized=""/>
    <tripinfo id="f_0_2.22" depart="180.00" departLane="np2_nt2_0" departPos="38.28" departSpeed="0.00" departDelay="0.00" arrival="358.00" arrivalLane="nt15_np10_0" arrivalPos="75.00" arrivalSpeed="9.56" duration="178.00" routeLength="912.80" waitingTime="44.00" waitingCount="6" stopTime="0.00" timeLoss="98.73" rerouteNo="0" devices="tripinfo_f_0_2.22" vType="type1" speedFactor="0.97" vaporized=""/>
    <tripinfo id="f_0_0.15" depart="205.00" departLane="np13_nt13_0" departPos="53.95" departSpeed="0.00" departDelay="0.46" arrival="361.00" arrivalLane="nt4_np5_0" arrivalPos="75.00" arrivalSpeed="17.66" duration="156.00" routeLength="1293.94" waitingTime="34.00" waitingCount="4" stopTime="0.00" timeLoss="65.94" rerouteNo="0" devices="tripinfo_f_0_0.15" vType="type1" speedFactor="1.01" vaporized=""/>
    <tripinfo id="f_0_2.23" depart="189.00" departLane="np2_nt2_0" departPos="30.93" departSpeed="0.00" departDelay="0.81" arrival="369.00" arrivalLane="nt15_np10_0" arrivalPos="75.00" arrivalSpeed="7.93" duration="180.00" routeLength="920.15" waitingTime="47.00" waitingCount="7" stopTime="0.00" timeLoss="94.09" rerouteNo="0" devices="tripinfo_f_0_2.23" vType="type1" speedFactor="0.90" vaporized=""/>
    <tripinfo id="f_0_1.10" depart="137.00" departLane="np16_nt1_0" departPos="27.50" departSpeed="0.00" departDelay="0.64" arrival="379.00" arrivalLane="nt16_np8_0" arrivalPos="75.00" arrivalSpeed="17.25" duration="242.00" routeLength="1320.38" waitingTime="66.00" waitingCount="11" stopTime="0.00" timeLoss="135.71" rerouteNo="0" devices="tripinfo_f_0_1.10" vType="type1" speedFactor="0.87" vaporized=""/>
    <tripinfo id="f_0_3.10" depart="82.00" departLane="np3_nt3_0" departPos="7.08" departSpeed="0.00" departDelay="0.18" arrival="382.00" arrivalLane="nt14_np11_0" arrivalPos="75.00" arrivalSpeed="9.08" duration="300.00" routeLength="944.01" waitingTime="146.00" waitingCount="9" stopTime="0.00" timeLoss="219.93" rerouteNo="0" devices="tripinfo_f_0_3.10" vType="type1" speedFactor="0.99" vaporized=""/>
    <tripinfo id="f_0_3.11" depart="90.00" departLane="np3_nt3_0" departPos="0.19" departSpeed="0.00" departDelay="0.00" arrival="384.00" arrivalLane="nt14_np11_0" arrivalPos="75.00" arrivalSpeed="9.94" duration="294.00" routeLength="950.90" waitingTime="141.00" waitingCount="11" stopTime="0.00" timeLoss="220.34" rerouteNo="0" devices="tripinfo_f_0_3.11" vType="type1" speedFactor="1.09" vaporized=""/>
    <tripinfo id="f_0_2.24" depart="197.00" departLane="np2_nt2_0" departPos="13.03" departSpeed="0.00" departDelay="0.63" arrival="388.00" arrivalLane="nt15_np10_0" arrivalPos="75.00" arrivalSpeed="8.59" duration="191.00" routeLength="938.05" waitingTime="62.00" waitingCount="7" stopTime="0.00" timeLoss="107.69" rerouteNo="0" devices="tripinfo_f_0_2.24" vType="type1" speedFactor="0.95" vaporized=""/>
    <tripinfo id="f_0_2.25" depart="205.00" departLane="np2_nt2_0" departPos="0.96" departSpeed="0.00" departDelay="0.45" arrival="401.00" arrivalLane="nt15_np10_0" arrivalPos="75.00" arrivalSpeed="7.49" duration="196.00" routeLength="950.12" waitingTime="51.00" waitingCount="8" stopTime="0.00" timeLoss="104.75" rerouteNo="0" devices="tripinfo_f_0_2.25" vType="type1" speedFactor="0.87" vaporized=""/>
    <tripinfo id="f_0_0.16" depart="219.00" departLane="np13_nt13_0" departPos="2.23" departSpeed="0.00" departDelay="0.82" arrival="401.00" arrivalLane="nt4_np5_0" arrivalPos="75.00" arrivalSpeed="17.29" duration="182.00" routeLength="1345.66" waitingTime="42.00" waitingCount="6" stopTime="0.00" timeLoss="81.99" rerouteNo="0" devices="tripinfo_f_0_0.16" vType="type1" speedFactor="0.93" vaporized=""/>
    <tripinfo id="f_0_3.12" depart="147.00" departLane="np3_nt3_0" departPos="0.00" departSpeed="0.00" departDelay="48.82" arrival="402.00" arrivalLane="nt14_np11_0" arrivalPos="75.00" arrivalSpeed="8.71" duration="255.00" routeLength="951.09" waitingTime="96.00" waitingCount="11" stopTime="0.00" timeLoss="176.35" rerouteNo="0" devices="tripinfo_f_0_3.12" vType="type1" speedFactor="1.01" vaporized=""/>
    <tripinfo id="f_0_2.26" depart="213.00" departLane="np2_nt2_0" departPos="19.50" departSpeed="0.00" departDelay="0.27" arrival="403.00" arrivalLane="nt15_np10_0" arrivalPos="75.00" arrivalSpeed="9.56" duration="190.00" routeLength="931.58" waitingTime="43.00" waitingCount="9" stopTime="0.00" timeLoss="110.73" rerouteNo="0" devices="tripinfo_f_0_2.26" vType="type1" speedFactor="0.99" vaporized=""/>
    <tripinfo id="f_0_3.18" depart="183.00" departLane="np3_nt3_0" departPos="64.59" departSpeed="0.00" departDelay="35.72" arrival="405.00" arrivalLane="nt14_np11_0" arrivalPos="75.00" arrivalSpeed="7.95" duration="222.00" routeLength="886.50" waitingTime="98.00" waitingCount="9" stopTime="0.00" timeLoss="141.79" rerouteNo="0" devices="tripinfo_f_0_3.18" vType="type1" speedFactor="0.92" vaporized=""/>
    <tripinfo id="f_0_3.13" depart="150.00" departLane="np3_nt3_0" departPos="0.00" departSpeed="0.00" departDelay="43.63" arrival="407.00" arrivalLane="nt14_np11_0" arrivalPos="75.00" arrivalSpeed="9.75" duration="257.00" routeLength="951.09" waitingTime="93.00" waitingCount="11" stopTime="0.00" timeLoss="177.40" rerouteNo="0" devices="tripinfo_f_0_3.13" vType="type1" speedFactor="1.00" vaporized=""/>
    <tripinfo id="f_0_3.14" depart="154.00" departLane="np3_nt3_0" departPos="0.00" departSpeed="0.00" departDelay="39.45" arrival="409.00" arrivalLane="nt14_np11_0" arrivalPos="75.00" arrivalSpeed="9.60" duration="255.00" routeLength="951.09" waitingTime="91.00" waitingCount="12" stopTime="0.00" timeLoss="174.36" rerouteNo="0" devices="tripinfo_f_0_3.14" vType="type1" speedFactor="0.99" vaporized=""/>