<?xml version="1.0" encoding="UTF-8"?>

<!-- generated on 2023-08-23 17:01:11 by Eclipse SUMO libsumo Version 1.18.0
<configuration xmlns:xsi="http://www.w3.org/2001/XMLSchema-instance" xsi:noNamespaceSchemaLocation="http://sumo.dlr.de/xsd/libsumoConfiguration.xsd">

    <input>
        <net-file value="/home/stefan/RESCO/./environments/arterial4x4/arterial4x4.net.xml"/>
        <route-files value="/home/stefan/RESCO/./environments/arterial4x4/arterial4x4_86.rou.xml"/>
    </input>

    <output>
        <tripinfo-output value="/home/stefan/results/IDDQN-tr0-arterial4x4-0-drq_norm-wait_norm/tripinfo_86.xml"/>
        <tripinfo-output.write-unfinished value="true"/>
    </output>

    <processing>
        <time-to-teleport value="-1"/>
    </processing>

    <report>
        <no-warnings value="True"/>
        <no-step-log value="True"/>
    </report>

    <random_number>
        <random value="true"/>
    </random_number>

</configuration>
-->

<tripinfos xmlns:xsi="http://www.w3.org/2001/XMLSchema-instance" xsi:noNamespaceSchemaLocation="http://sumo.dlr.de/xsd/tripinfo_file.xsd">
    <tripinfo id="f_0_3.0" depart="0.00" departLane="np3_nt3_0" departPos="48.14" departSpeed="0.00" departDelay="0.00" arrival="106.00" arrivalLane="nt14_np11_0" arrivalPos="75.00" arrivalSpeed="11.46" duration="106.00" routeLength="902.95" waitingTime="22.00" waitingCount="2" stopTime="0.00" timeLoss="37.78" rerouteNo="0" devices="tripinfo_f_0_3.0" vType="type1" speedFactor="1.10" vaporized=""/>
    <tripinfo id="f_0_3.1" depart="9.00" departLane="np3_nt3_0" departPos="29.14" departSpeed="0.00" departDelay="0.82" arrival="110.00" arrivalLane="nt14_np11_0" arrivalPos="75.00" arrivalSpeed="8.31" duration="101.00" routeLength="921.95" waitingTime="4.00" waitingCount="1" stopTime="0.00" timeLoss="19.61" rerouteNo="0" devices="tripinfo_f_0_3.1" vType="type1" speedFactor="0.95" vaporized=""/>
    <tripinfo id="f_0_3.2" depart="17.00" departLane="np3_nt3_0" departPos="43.99" departSpeed="0.00" departDelay="0.64" arrival="112.00" arrivalLane="nt14_np11_0" arrivalPos="75.00" arrivalSpeed="11.30" duration="95.00" routeLength="907.10" waitingTime="2.00" waitingCount="1" stopTime="0.00" timeLoss="32.10" rerouteNo="0" devices="tripinfo_f_0_3.2" vType="type1" speedFactor="1.22" vaporized=""/>
    <tripinfo id="f_0_2.0" depart="0.00" departLane="np2_nt2_0" departPos="11.27" departSpeed="0.00" departDelay="0.00" arrival="136.00" arrivalLane="nt15_np10_0" arrivalPos="75.00" arrivalSpeed="11.29" duration="136.00" routeLength="939.81" waitingTime="51.00" waitingCount="2" stopTime="0.00" timeLoss="68.83" rerouteNo="0" devices="tripinfo_f_0_2.0" vType="type1" speedFactor="1.17" vaporized=""/>
    <tripinfo id="f_0_2.1" depart="9.00" departLane="np2_nt2_0" departPos="52.21" departSpeed="0.00" departDelay="0.82" arrival="141.00" arrivalLane="nt15_np10_0" arrivalPos="75.00" arrivalSpeed="8.93" duration="132.00" routeLength="898.87" waitingTime="26.00" waitingCount="1" stopTime="0.00" timeLoss="45.98" rerouteNo="0" devices="tripinfo_f_0_2.1" vType="type1" speedFactor="0.88" vaporized=""/>
    <tripinfo id="f_0_3.3" depart="25.00" departLane="np3_nt3_0" departPos="21.47" departSpeed="0.00" departDelay="0.45" arrival="142.00" arrivalLane="nt14_np11_0" arrivalPos="75.00" arrivalSpeed="9.31" duration="117.00" routeLength="929.62" waitingTime="16.00" waitingCount="4" stopTime="0.00" timeLoss="43.64" rerouteNo="0" devices="tripinfo_f_0_3.3" vType="type1" speedFactor="1.07" vaporized=""/>
    <tripinfo id="f_0_2.2" depart="17.00" departLane="np2_nt2_0" departPos="52.00" departSpeed="0.00" departDelay="0.64" arrival="144.00" arrivalLane="nt15_np10_0" arrivalPos="75.00" arrivalSpeed="8.86" duration="127.00" routeLength="899.08" waitingTime="26.00" waitingCount="5" stopTime="0.00" timeLoss="48.65" rerouteNo="0" devices="tripinfo_f_0_2.2" vType="type1" speedFactor="0.97" vaporized=""/>
    <tripinfo id="f_0_1.0" depart="0.00" departLane="np16_nt1_0" departPos="0.44" departSpeed="0.00" departDelay="0.00" arrival="153.00" arrivalLane="nt16_np8_0" arrivalPos="75.00" arrivalSpeed="21.83" duration="153.00" routeLength="1347.44" waitingTime="36.00" waitingCount="4" stopTime="0.00" timeLoss="70.40" rerouteNo="0" devices="tripinfo_f_0_1.0" vType="type1" speedFactor="1.14" vaporized=""/>
    <tripinfo id="f_0_2.3" depart="25.00" departLane="np2_nt2_0" departPos="16.75" departSpeed="0.00" departDelay="0.45" arrival="153.00" arrivalLane="nt15_np10_0" arrivalPos="75.00" arrivalSpeed="10.69" duration="128.00" routeLength="934.33" waitingTime="28.00" waitingCount="2" stopTime="0.00" timeLoss="58.30" rerouteNo="0" devices="tripinfo_f_0_2.3" vType="type1" speedFactor="1.13" vaporized=""/>
    <tripinfo id="f_0_3.4" depart="33.00" departLane="np3_nt3_0" departPos="50.61" departSpeed="0.00" departDelay="0.27" arrival="153.00" arrivalLane="nt14_np11_0" arrivalPos="75.00" arrivalSpeed="9.71" duration="120.00" routeLength="900.48" waitingTime="9.00" waitingCount="4" stopTime="0.00" timeLoss="35.55" rerouteNo="0" devices="tripinfo_f_0_3.4" vType="type1" speedFactor="0.89" vaporized=""/>
    <tripinfo id="f_0_3.5" depart="41.00" departLane="np3_nt3_0" departPos="30.75" departSpeed="0.00" departDelay="0.09" arrival="155.00" arrivalLane="nt14_np11_0" arrivalPos="75.00" arrivalSpeed="10.19" duration="114.00" routeLength="920.34" waitingTime="17.00" waitingCount="4" stopTime="0.00" timeLoss="42.73" rerouteNo="0" devices="tripinfo_f_0_3.5" vType="type1" speedFactor="1.08" vaporized=""/>
    <tripinfo id="f_0_0.0" depart="0.00" departLane="np13_nt13_0" departPos="7.95" departSpeed="0.00" departDelay="0.00" arrival="163.00" arrivalLane="nt4_np5_0" arrivalPos="75.00" arrivalSpeed="16.91" duration="163.00" routeLength="1339.94" waitingTime="31.00" waitingCount="4" stopTime="0.00" timeLoss="63.07" rerouteNo="0" devices="tripinfo_f_0_0.0" vType="type1" speedFactor="0.93" vaporized=""/>
    <tripinfo id="f_0_1.1" depart="14.00" departLane="np16_nt1_0" departPos="27.71" departSpeed="0.00" departDelay="0.36" arrival="163.00" arrivalLane="nt16_np8_0" arrivalPos="75.00" arrivalSpeed="21.05" duration="149.00" routeLength="1320.17" waitingTime="22.00" waitingCount="4" stopTime="0.00" timeLoss="63.91" rerouteNo="0" devices="tripinfo_f_0_1.1" vType="type1" speedFactor="1.09" vaporized=""/>
    <tripinfo id="f_0_0.1" depart="14.00" departLane="np13_nt13_0" departPos="44.53" departSpeed="0.00" departDelay="0.36" arrival="164.00" arrivalLane="nt4_np5_0" arrivalPos="75.00" arrivalSpeed="19.53" duration="150.00" routeLength="1303.36" waitingTime="21.00" waitingCount="4" stopTime="0.00" timeLoss="65.56" rerouteNo="0" devices="tripinfo_f_0_0.1" vType="type1" speedFactor="1.08" vaporized=""/>
    <tripinfo id="f_0_1.2" depart="28.00" departLane="np16_nt1_0" departPos="56.09" departSpeed="0.00" departDelay="0.73" arrival="165.00" arrivalLane="nt16_np8_0" arrivalPos="75.00" arrivalSpeed="23.68" duration="137.00" routeLength="1291.79" waitingTime="23.00" waitingCount="5" stopTime="0.00" timeLoss="65.42" rerouteNo="0" devices="tripinfo_f_0_1.2" vType="type1" speedFactor="1.27" vaporized=""/>
    <tripinfo id="f_0_2.4" depart="33.00" departLane="np2_nt2_0" departPos="21.59" departSpeed="0.00" departDelay="0.27" arrival="176.00" arrivalLane="nt15_np10_0" arrivalPos="75.00" arrivalSpeed="10.77" duration="143.00" routeLength="929.49" waitingTime="39.00" waitingCount="5" stopTime="0.00" timeLoss="72.58" rerouteNo="0" devices="tripinfo_f_0_2.4" vType="type1" speedFactor="1.11" vaporized=""/>
    <tripinfo id="f_0_2.5" depart="41.00" departLane="np2_nt2_0" departPos="41.99" departSpeed="0.00" departDelay="0.09" arrival="180.00" arrivalLane="nt15_np10_0" arrivalPos="75.00" arrivalSpeed="9.06" duration="139.00" routeLength="909.09" waitingTime="25.00" waitingCount="4" stopTime="0.00" timeLoss="59.05" rerouteNo="0" devices="tripinfo_f_0_2.5" vType="type1" speedFactor="0.96" vaporized=""/>
    <tripinfo id="f_0_2.6" depart="50.00" departLane="np2_nt2_0" departPos="35.85" departSpeed="0.00" departDelay="0.91" arrival="182.00" arrivalLane="nt15_np10_0" arrivalPos="75.00" arrivalSpeed="10.60" duration="132.00" routeLength="915.23" waitingTime="21.00" waitingCount="4" stopTime="0.00" timeLoss="53.16" rerouteNo="0" devices="tripinfo_f_0_2.6" vType="type1" speedFactor="0.97" vaporized=""/>
    <tripinfo id="f_0_0.2" depart="28.00" departLane="np13_nt13_0" departPos="23.96" departSpeed="0.00" departDelay="0.73" arrival="183.00" arrivalLane="nt4_np5_0" arrivalPos="75.00" arrivalSpeed="16.78" duration="155.00" routeLength="1323.93" waitingTime="24.00" waitingCount="4" stopTime="0.00" timeLoss="50.25" rerouteNo="0" devices="tripinfo_f_0_0.2" vType="type1" speedFactor="0.88" vaporized=""/>
    <tripinfo id="f_0_0.3" depart="41.00" departLane="np13_nt13_0" departPos="18.10" departSpeed="0.00" departDelay="0.09" arrival="184.00" arrivalLane="nt4_np5_0" arrivalPos="75.00" arrivalSpeed="19.67" duration="143.00" routeLength="1329.79" waitingTime="11.00" waitingCount="3" stopTime="0.00" timeLoss="56.02" rerouteNo="0" devices="tripinfo_f_0_0.3" vType="type1" speedFactor="1.06" vaporized=""/>
    <tripinfo id="f_0_2.7" depart="58.00" departLane="np2_nt2_0" departPos="4.61" departSpeed="0.00" departDelay="0.73" arrival="184.00" arrivalLane="nt15_np10_0" arrivalPos="75.00" arrivalSpeed="10.68" duration="126.00" routeLength="946.47" waitingTime="17.00" waitingCount="2" stopTime="0.00" timeLoss="44.49" rerouteNo="0" devices="tripinfo_f_0_2.7" vType="type1" speedFactor="0.97" vaporized=""/>
    <tripinfo id="f_0_2.8" depart="66.00" departLane="np2_nt2_0" departPos="32.40" departSpeed="0.00" departDelay="0.54" arrival="186.00" arrivalLane="nt15_np10_0" arrivalPos="75.00" arrivalSpeed="11.20" duration="120.00" routeLength="918.68" waitingTime="20.00" waitingCount="3" stopTime="0.00" timeLoss="47.00" rerouteNo="0" devices="tripinfo_f_0_2.8" vType="type1" speedFactor="1.06" vaporized=""/>
    <tripinfo id="f_0_3.6" depart="50.00" departLane="np3_nt3_0" departPos="20.20" departSpeed="0.00" departDelay="0.91" arrival="188.00" arrivalLane="nt14_np11_0" arrivalPos="75.00" arrivalSpeed="8.23" duration="138.00" routeLength="930.89" waitingTime="22.00" waitingCount="5" stopTime="0.00" timeLoss="48.81" rerouteNo="0" devices="tripinfo_f_0_3.6" vType="type1" speedFactor="0.87" vaporized=""/>
    <tripinfo id="f_0_2.9" depart="74.00" departLane="np2_nt2_0" departPos="35.84" departSpeed="0.00" departDelay="0.36" arrival="190.00" arrivalLane="nt15_np10_0" arrivalPos="75.00" arrivalSpeed="9.74" duration="116.00" routeLength="915.24" waitingTime="6.00" waitingCount="2" stopTime="0.00" timeLoss="29.45" rerouteNo="0" devices="tripinfo_f_0_2.9" vType="type1" speedFactor="0.89" vaporized=""/>
    <tripinfo id="f_0_2.10" depart="82.00" departLane="np2_nt2_0" departPos="52.77" departSpeed="0.00" departDelay="0.18" arrival="191.00" arrivalLane="nt15_np10_0" arrivalPos="75.00" arrivalSpeed="10.63" duration="109.00" routeLength="898.31" waitingTime="5.00" waitingCount="2" stopTime="0.00" timeLoss="33.15" rerouteNo="0" devices="tripinfo_f_0_2.10" vType="type1" speedFactor="0.99" vaporized=""/>
    <tripinfo id="f_0_2.11" depart="90.00" departLane="np2_nt2_0" departPos="38.60" departSpeed="0.00" departDelay="0.00" arrival="193.00" arrivalLane="nt15_np10_0" arrivalPos="75.00" arrivalSpeed="9.60" duration="103.00" routeLength="912.48" waitingTime="7.00" waitingCount="3" stopTime="0.00" timeLoss="26.03" rerouteNo="0" devices="tripinfo_f_0_2.11" vType="type1" speedFactor="0.99" vaporized=""/>
    <tripinfo id="f_0_3.7" depart="58.00" departLane="np3_nt3_0" departPos="37.87" departSpeed="0.00" departDelay="0.73" arrival="206.00" arrivalLane="nt14_np11_0" arrivalPos="75.00" arrivalSpeed="10.79" duration="148.00" routeLength="913.22" waitingTime="45.00" waitingCount="4" stopTime="0.00" timeLoss="79.25" rerouteNo="0" devices="tripinfo_f_0_3.7" vType="type1" speedFactor="1.11" vaporized=""/>
    <tripinfo id="f_0_3.8" depart="66.00" departLane="np3_nt3_0" departPos="47.09" departSpeed="0.00" departDelay="0.54" arrival="209.00" arrivalLane="nt14_np11_0" arrivalPos="75.00" arrivalSpeed="9.83" duration="143.00" routeLength="904.00" waitingTime="42.00" waitingCount="5" stopTime="0.00" timeLoss="71.41" rerouteNo="0" devices="tripinfo_f_0_3.8" vType="type1" speedFactor="1.05" vaporized=""/>
    <tripinfo id="f_0_3.9" depart="74.00" departLane="np3_nt3_0" departPos="0.02" departSpeed="0.00" departDelay="0.36" arrival="211.00" arrivalLane="nt14_np11_0" arrivalPos="75.00" arrivalSpeed="10.56" duration="137.00" routeLength="951.07" waitingTime="33.00" waitingCount="3" stopTime="0.00" timeLoss="59.07" rerouteNo="0" devices="tripinfo_f_0_3.9" vType="type1" speedFactor="1.02" vaporized=""/>
    <tripinfo id="f_0_1.3" depart="41.00" departLane="np16_nt1_0" departPos="25.06" departSpeed="0.00" departDelay="0.09" arrival="213.00" arrivalLane="nt16_np8_0" arrivalPos="75.00" arrivalSpeed="18.29" duration="172.00" routeLength="1322.82" waitingTime="42.00" waitingCount="3" stopTime="0.00" timeLoss="71.52" rerouteNo="0" devices="tripinfo_f_0_1.3" vType="type1" speedFactor="0.92" vaporized=""/>
    <tripinfo id="f_0_3.10" depart="82.00" departLane="np3_nt3_0" departPos="5.72" departSpeed="0.00" departDelay="0.18" arrival="213.00" arrivalLane="nt14_np11_0" arrivalPos="75.00" arrivalSpeed="10.31" duration="131.00" routeLength="945.37" waitingTime="22.00" waitingCount="3" stopTime="0.00" timeLoss="48.15" rerouteNo="0" devices="tripinfo_f_0_3.10" vType="type1" speedFactor="0.95" vaporized=""/>
    <tripinfo id="f_0_0.4" depart="55.00" departLane="np13_nt13_0" departPos="13.76" departSpeed="0.00" departDelay="0.46" arrival="215.00" arrivalLane="nt4_np5_0" arrivalPos="75.00" arrivalSpeed="20.27" duration="160.00" routeLength="1334.13" waitingTime="48.00" waitingCount="4" stopTime="0.00" timeLoss="73.25" rerouteNo="0" devices="tripinfo_f_0_0.4" vType="type1" speedFactor="1.07" vaporized=""/>
    <tripinfo id="f_0_0.5" depart="69.00" departLane="np13_nt13_0" departPos="20.46" departSpeed="0.00" departDelay="0.82" arrival="222.00" arrivalLane="nt4_np5_0" arrivalPos="75.00" arrivalSpeed="23.44" duration="153.00" routeLength="1327.43" waitingTime="38.00" waitingCount="4" stopTime="0.00" timeLoss="81.44" rerouteNo="0" devices="tripinfo_f_0_0.5" vType="type1" speedFactor="1.28" vaporized=""/>
    <tripinfo id="f_0_0.6" depart="82.00" departLane="np13_nt13_0" departPos="42.72" departSpeed="0.00" departDelay="0.18" arrival="226.00" arrivalLane="nt4_np5_0" arrivalPos="75.00" arrivalSpeed="20.34" duration="144.00" routeLength="1305.17" waitingTime="27.00" waitingCount="5" stopTime="0.00" timeLoss="61.40" rerouteNo="0" devices="tripinfo_f_0_0.6" vType="type1" speedFactor="1.10" vaporized=""/>
    <tripinfo id="f_0_2.12" depart="99.00" departLane="np2_nt2_0" departPos="43.60" departSpeed="0.00" departDelay="0.82" arrival="227.00" arrivalLane="nt15_np10_0" arrivalPos="75.00" arrivalSpeed="11.26" duration="128.00" routeLength="907.48" waitingTime="25.00" waitingCount="3" stopTime="0.00" timeLoss="54.83" rerouteNo="0" devices="tripinfo_f_0_2.12" vType="type1" speedFactor="1.04" vaporized=""/>
    <tripinfo id="f_0_0.7" depart="96.00" departLane="np13_nt13_0" departPos="43.43" departSpeed="0.00" departDelay="0.55" arrival="231.00" arrivalLane="nt4_np5_0" arrivalPos="75.00" arrivalSpeed="19.98" duration="135.00" routeLength="1304.46" waitingTime="19.00" waitingCount="4" stopTime="0.00" timeLoss="49.15" rerouteNo="0" devices="tripinfo_f_0_0.7" vType="type1" speedFactor="1.06" vaporized=""/>
    <tripinfo id="f_0_3.11" depart="90.00" departLane="np3_nt3_0" departPos="2.99" departSpeed="0.00" departDelay="0.00" arrival="232.00" arrivalLane="nt14_np11_0" arrivalPos="75.00" arrivalSpeed="10.89" duration="142.00" routeLength="948.10" waitingTime="34.00" waitingCount="3" stopTime="0.00" timeLoss="61.21" rerouteNo="0" devices="tripinfo_f_0_3.11" vType="type1" speedFactor="0.99" vaporized=""/>
    <tripinfo id="f_0_3.12" depart="99.00" departLane="np3_nt3_0" departPos="20.12" departSpeed="0.00" departDelay="0.82" arrival="234.00" arrivalLane="nt14_np11_0" arrivalPos="75.00" arrivalSpeed="9.77" duration="135.00" routeLength="930.97" waitingTime="28.00" waitingCount="4" stopTime="0.00" timeLoss="60.42" rerouteNo="0" devices="tripinfo_f_0_3.12" vType="type1" speedFactor="1.04" vaporized=""/>
    <tripinfo id="f_0_2.13" depart="107.00" departLane="np2_nt2_0" departPos="5.72" departSpeed="0.00" departDelay="0.63" arrival="234.00" arrivalLane="nt15_np10_0" arrivalPos="75.00" arrivalSpeed="8.91" duration="127.00" routeLength="945.36" waitingTime="22.00" waitingCount="4" stopTime="0.00" timeLoss="48.49" rerouteNo="0" devices="tripinfo_f_0_2.13" vType="type1" speedFactor="1.01" vaporized=""/>
    <tripinfo id="f_0_2.14" depart="115.00" departLane="np2_nt2_0" departPos="32.98" departSpeed="0.00" departDelay="0.45" arrival="242.00" arrivalLane="nt15_np10_0" arrivalPos="75.00" arrivalSpeed="9.57" duration="127.00" routeLength="918.10" waitingTime="22.00" waitingCount="3" stopTime="0.00" timeLoss="47.39" rerouteNo="0" devices="tripinfo_f_0_2.14" vType="type1" speedFactor="0.97" vaporized=""/>
    <tripinfo id="f_0_1.4" depart="55.00" departLane="np16_nt1_0" departPos="43.02" departSpeed="0.00" departDelay="0.46" arrival="243.00" arrivalLane="nt16_np8_0" arrivalPos="75.00" arrivalSpeed="18.64" duration="188.00" routeLength="1304.86" waitingTime="65.00" waitingCount="5" stopTime="0.00" timeLoss="100.65" rerouteNo="0" devices="tripinfo_f_0_1.4" vType="type1" speedFactor="1.04" vaporized=""/>
    <tripinfo id="f_0_2.15" depart="123.00" departLane="np2_nt2_0" departPos="56.53" departSpeed="0.00" departDelay="0.27" arrival="244.00" arrivalLane="nt15_np10_0" arrivalPos="75.00" arrivalSpeed="9.39" duration="121.00" routeLength="894.55" waitingTime="15.00" waitingCount="4" stopTime="0.00" timeLoss="44.69" rerouteNo="0" devices="tripinfo_f_0_2.15" vType="type1" speedFactor="0.98" vaporized=""/>
    <tripinfo id="f_0_2.16" depart="131.00" departLane="np2_nt2_0" departPos="44.61" departSpeed="0.00" departDelay="0.09" arrival="249.00" arrivalLane="nt15_np10_0" arrivalPos="75.00" arrivalSpeed="9.49" duration="118.00" routeLength="906.47" waitingTime="11.00" waitingCount="3" stopTime="0.00" timeLoss="44.70" rerouteNo="0" devices="tripinfo_f_0_2.16" vType="type1" speedFactor="1.04" vaporized=""/>
    <tripinfo id="f_0_3.13" depart="107.00" departLane="np3_nt3_0" departPos="5.92" departSpeed="0.00" departDelay="0.63" arrival="252.00" arrivalLane="nt14_np11_0" arrivalPos="75.00" arrivalSpeed="8.85" duration="145.00" routeLength="945.17" waitingTime="33.00" waitingCount="3" stopTime="0.00" timeLoss="66.96" rerouteNo="0" devices="tripinfo_f_0_3.13" vType="type1" speedFactor="1.01" vaporized=""/>
    <tripinfo id="f_0_1.5" depart="69.00" departLane="np16_nt1_0" departPos="8.84" departSpeed="0.00" departDelay="0.82" arrival="253.00" arrivalLane="nt16_np8_0" arrivalPos="75.00" arrivalSpeed="19.45" duration="184.00" routeLength="1339.04" waitingTime="51.00" waitingCount="7" stopTime="0.00" timeLoss="94.88" rerouteNo="0" devices="tripinfo_f_0_1.5" vType="type1" speedFactor="1.04" vaporized=""/>
    <tripinfo id="f_0_1.6" depart="82.00" departLane="np16_nt1_0" departPos="48.18" departSpeed="0.00" departDelay="0.18" arrival="255.00" arrivalLane="nt16_np8_0" arrivalPos="75.00" arrivalSpeed="19.67" duration="173.00" routeLength="1299.70" waitingTime="39.00" waitingCount="7" stopTime="0.00" timeLoss="86.82" rerouteNo="0" devices="tripinfo_f_0_1.6" vType="type1" speedFactor="1.06" vaporized=""/>
    <tripinfo id="f_0_0.8" depart="110.00" departLane="np13_nt13_0" departPos="0.59" departSpeed="0.00" departDelay="0.91" arrival="257.00" arrivalLane="nt4_np5_0" arrivalPos="75.00" arrivalSpeed="17.40" duration="147.00" routeLength="1347.30" waitingTime="16.00" waitingCount="4" stopTime="0.00" timeLoss="47.50" rerouteNo="0" devices="tripinfo_f_0_0.8" vType="type1" speedFactor="0.94" vaporized=""/>
    <tripinfo id="f_0_3.14" depart="115.00" departLane="np3_nt3_0" departPos="33.17" departSpeed="0.00" departDelay="0.45" arrival="257.00" arrivalLane="nt14_np11_0" arrivalPos="75.00" arrivalSpeed="8.60" duration="142.00" routeLength="917.92" waitingTime="23.00" waitingCount="3" stopTime="0.00" timeLoss="46.24" rerouteNo="0" devices="tripinfo_f_0_3.14" vType="type1" speedFactor="0.81" vaporized=""/>
    <tripinfo id="f_0_3.15" depart="123.00" departLane="np3_nt3_0" departPos="3.22" departSpeed="0.00" departDelay="0.27" arrival="259.00" arrivalLane="nt14_np11_0" arrivalPos="75.00" arrivalSpeed="9.07" duration="136.00" routeLength="947.87" waitingTime="21.00" waitingCount="3" stopTime="0.00" timeLoss="46.88" rerouteNo="0" devices="tripinfo_f_0_3.15" vType="type1" speedFactor="0.90" vaporized=""/>
    <tripinfo id="f_0_3.16" depart="131.00" departLane="np3_nt3_0" departPos="25.47" departSpeed="0.00" departDelay="0.09" arrival="260.00" arrivalLane="nt14_np11_0" arrivalPos="75.00" arrivalSpeed="10.84" duration="129.00" routeLength="925.62" waitingTime="18.00" waitingCount="4" stopTime="0.00" timeLoss="52.16" rerouteNo="0" devices="tripinfo_f_0_3.16" vType="type1" speedFactor="1.00" vaporized=""/>
    <tripinfo id="f_0_3.17" depart="140.00" departLane="np3_nt3_0" departPos="36.30" departSpeed="0.00" departDelay="0.91" arrival="263.00" arrivalLane="nt14_np11_0" arrivalPos="75.00" arrivalSpeed="9.51" duration="123.00" routeLength="914.79" waitingTime="9.00" waitingCount="3" stopTime="0.00" timeLoss="43.36" rerouteNo="0" devices="tripinfo_f_0_3.17" vType="type1" speedFactor="0.97" vaporized=""/>
    <tripinfo id="f_0_1.7" depart="96.00" departLane="np16_nt1_0" departPos="59.19" departSpeed="0.00" departDelay="0.55" arrival="264.00" arrivalLane="nt16_np8_0" arrivalPos="75.00" arrivalSpeed="17.42" duration="168.00" routeLength="1288.69" waitingTime="30.00" waitingCount="6" stopTime="0.00" timeLoss="76.99" rerouteNo="0" devices="tripinfo_f_0_1.7" vType="type1" speedFactor="1.00" vaporized=""/>
    <tripinfo id="f_0_3.18" depart="148.00" departLane="np3_nt3_0" departPos="41.00" departSpeed="0.00" departDelay="0.72" arrival="264.00" arrivalLane="nt14_np11_0" arrivalPos="75.00" arrivalSpeed="8.66" duration="116.00" routeLength="910.09" waitingTime="13.00" waitingCount="3" stopTime="0.00" timeLoss="39.13" rerouteNo="0" devices="tripinfo_f_0_3.18" vType="type1" speedFactor="0.99" vaporized=""/>
    <tripinfo id="f_0_0.9" depart="123.00" departLane="np13_nt13_0" departPos="37.50" departSpeed="0.00" departDelay="0.28" arrival="272.00" arrivalLane="nt4_np5_0" arrivalPos="75.00" arrivalSpeed="18.06" duration="149.00" routeLength="1310.39" waitingTime="23.00" waitingCount="6" stopTime="0.00" timeLoss="58.17" rerouteNo="0" devices="tripinfo_f_0_0.9" vType="type1" speedFactor="1.00" vaporized=""/>
    <tripinfo id="f_0_1.8" depart="110.00" departLane="np16_nt1_0" departPos="11.12" departSpeed="0.00" departDelay="0.91" arrival="273.00" arrivalLane="nt16_np8_0" arrivalPos="75.00" arrivalSpeed="17.49" duration="163.00" routeLength="1336.76" waitingTime="25.00" waitingCount="5" stopTime="0.00" timeLoss="69.16" rerouteNo="0" devices="tripinfo_f_0_1.8" vType="type1" speedFactor="0.98" vaporized=""/>
    <tripinfo id="f_0_1.9" depart="123.00" departLane="np16_nt1_0" departPos="49.13" departSpeed="0.00" departDelay="0.28" arrival="275.00" arrivalLane="nt16_np8_0" arrivalPos="75.00" arrivalSpeed="19.40" duration="152.00" routeLength="1298.75" waitingTime="20.00" waitingCount="4" stopTime="0.00" timeLoss="61.15" rerouteNo="0" devices="tripinfo_f_0_1.9" vType="type1" speedFactor="1.00" vaporized=""/>
    <tripinfo id="f_0_1.10" depart="137.00" departLane="np16_nt1_0" departPos="12.35" departSpeed="0.00" departDelay="0.64" arrival="283.00" arrivalLane="nt16_np8_0" arrivalPos="75.00" arrivalSpeed="20.68" duration="146.00" routeLength="1335.53" waitingTime="14.00" waitingCount="4" stopTime="0.00" timeLoss="59.77" rerouteNo="0" devices="tripinfo_f_0_1.10" vType="type1" speedFactor="1.07" vaporized=""/>
    <tripinfo id="f_0_3.19" depart="156.00" departLane="np3_nt3_0" departPos="12.99" departSpeed="0.00" departDelay="0.54" arrival="283.00" arrivalLane="nt14_np11_0" arrivalPos="75.00" arrivalSpeed="10.32" duration="127.00" routeLength="938.10" waitingTime="16.00" waitingCount="3" stopTime="0.00" timeLoss="43.28" rerouteNo="0" devices="tripinfo_f_0_3.19" vType="type1" speedFactor="0.95" vaporized=""/>
    <tripinfo id="f_0_1.11" depart="150.00" departLane="np16_nt1_0" departPos="10.58" departSpeed="0.00" departDelay="0.00" arrival="285.00" arrivalLane="nt16_np8_0" arrivalPos="75.00" arrivalSpeed="21.31" duration="135.00" routeLength="1337.30" waitingTime="13.00" waitingCount="3" stopTime="0.00" timeLoss="49.32" rerouteNo="0" devices="tripinfo_f_0_1.11" vType="type1" speedFactor="1.08" vaporized=""/>
    <tripinfo id="f_0_0.10" depart="137.00" departLane="np13_nt13_0" departPos="49.83" departSpeed="0.00" departDelay="0.64" arrival="288.00" arrivalLane="nt4_np5_0" arrivalPos="75.00" arrivalSpeed="20.71" duration="151.00" routeLength="1298.06" waitingTime="32.00" waitingCount="5" stopTime="0.00" timeLoss="69.36" rerouteNo="0" devices="tripinfo_f_0_0.10" vType="type1" speedFactor="1.12" vaporized=""/>
    <tripinfo id="f_0_2.17" depart="140.00" departLane="np2_nt2_0" departPos="36.23" departSpeed="0.00" departDelay="0.91" arrival="292.00" arrivalLane="nt15_np10_0" arrivalPos="75.00" arrivalSpeed="9.98" duration="152.00" routeLength="914.85" waitingTime="51.00" waitingCount="4" stopTime="0.00" timeLoss="76.50" rerouteNo="0" devices="tripinfo_f_0_2.17" vType="type1" speedFactor="1.02" vaporized=""/>
    <tripinfo id="f_0_2.18" depart="148.00" departLane="np2_nt2_0" departPos="31.60" departSpeed="0.00" departDelay="0.72" arrival="296.00" arrivalLane="nt15_np10_0" arrivalPos="75.00" arrivalSpeed="11.84" duration="148.00" routeLength="919.48" waitingTime="40.00" waitingCount="7" stopTime="0.00" timeLoss="79.46" rerouteNo="0" devices="tripinfo_f_0_2.18" vType="type1" speedFactor="1.13" vaporized=""/>
    <tripinfo id="f_0_2.19" depart="156.00" departLane="np2_nt2_0" departPos="39.83" departSpeed="0.00" departDelay="0.54" arrival="300.00" arrivalLane="nt15_np10_0" arrivalPos="75.00" arrivalSpeed="9.71" duration="144.00" routeLength="911.25" waitingTime="31.00" waitingCount="5" stopTime="0.00" timeLoss="62.30" rerouteNo="0" devices="tripinfo_f_0_2.19" vType="type1" speedFactor="0.94" vaporized=""/>
    <tripinfo id="f_0_1.12" depart="164.00" departLane="np16_nt1_0" departPos="47.80" departSpeed="0.00" departDelay="0.37" arrival="301.00" arrivalLane="nt16_np8_0" arrivalPos="75.00" arrivalSpeed="18.93" duration="137.00" routeLength="1300.08" waitingTime="25.00" waitingCount="5" stopTime="0.00" timeLoss="51.29" rerouteNo="0" devices="tripinfo_f_0_1.12" vType="type1" speedFactor="1.06" vaporized=""/>
    <tripinfo id="f_0_2.20" depart="164.00" departLane="np2_nt2_0" departPos="37.91" departSpeed="0.00" departDelay="0.36" arrival="302.00" arrivalLane="nt15_np10_0" arrivalPos="75.00" arrivalSpeed="11.20" duration="138.00" routeLength="913.17" waitingTime="22.00" waitingCount="6" stopTime="0.00" timeLoss="70.17" rerouteNo="0" devices="tripinfo_f_0_2.20" vType="type1" speedFactor="1.14" vaporized=""/>
    <tripinfo id="f_0_3.20" depart="164.00" departLane="np3_nt3_0" departPos="38.36" departSpeed="0.00" departDelay="0.36" arrival="310.00" arrivalLane="nt14_np11_0" arrivalPos="75.00" arrivalSpeed="7.49" duration="146.00" routeLength="912.73" waitingTime="17.00" waitingCount="2" stopTime="0.00" timeLoss="43.98" rerouteNo="0" devices="tripinfo_f_0_3.20" vType="type1" speedFactor="0.75" vaporized=""/>
    <tripinfo id="f_0_3.21" depart="172.00" departLane="np3_nt3_0" departPos="21.25" departSpeed="0.00" departDelay="0.18" arrival="312.00" arrivalLane="nt14_np11_0" arrivalPos="75.00" arrivalSpeed="9.66" duration="140.00" routeLength="929.84" waitingTime="20.00" waitingCount="3" stopTime="0.00" timeLoss="67.89" rerouteNo="0" devices="tripinfo_f_0_3.21" vType="type1" speedFactor="1.09" vaporized=""/>
    <tripinfo id="f_0_0.11" depart="150.00" departLane="np13_nt13_0" departPos="56.64" departSpeed="0.00" departDelay="0.00" arrival="313.00" arrivalLane="nt4_np5_0" arrivalPos="75.00" arrivalSpeed="19.57" duration="163.00" routeLength="1291.25" waitingTime="46.00" waitingCount="4" stopTime="0.00" timeLoss="71.90" rerouteNo="0" devices="tripinfo_f_0_0.11" vType="type1" speedFactor="0.99" vaporized=""/>
    <tripinfo id="f_0_3.22" depart="180.00" departLane="np3_nt3_0" departPos="2.88" departSpeed="0.00" departDelay="0.00" arrival="314.00" arrivalLane="nt14_np11_0" arrivalPos="75.00" arrivalSpeed="8.22" duration="134.00" routeLength="948.21" waitingTime="14.00" waitingCount="1" stopTime="0.00" timeLoss="49.51" rerouteNo="0" devices="tripinfo_f_0_3.22" vType="type1" speedFactor="0.95" vaporized=""/>
    <tripinfo id="f_0_0.12" depart="164.00" departLane="np13_nt13_0" departPos="2.60" departSpeed="0.00" departDelay="0.37" arrival="315.00" arrivalLane="nt4_np5_0" arrivalPos="75.00" arrivalSpeed="19.23" duration="151.00" routeLength="1345.29" waitingTime="26.00" waitingCount="4" stopTime="0.00" timeLoss="59.47" rerouteNo="0" devices="tripinfo_f_0_0.12" vType="type1" speedFactor="1.03" vaporized=""/>
    <tripinfo id="f_0_1.13" depart="178.00" departLane="np16_nt1_0" departPos="4.93" departSpeed="0.00" departDelay="0.73" arrival="316.00" arrivalLane="nt16_np8_0" arrivalPos="75.00" arrivalSpeed="17.98" duration="138.00" routeLength="1342.95" waitingTime="7.00" waitingCount="2" stopTime="0.00" timeLoss="37.98" rerouteNo="0" devices="tripinfo_f_0_1.13" vType="type1" speedFactor="0.93" vaporized=""/>