<?xml version="1.0" encoding="UTF-8"?>

<!-- generated on 2023-08-23 17:02:51 by Eclipse SUMO libsumo Version 1.18.0
<configuration xmlns:xsi="http://www.w3.org/2001/XMLSchema-instance" xsi:noNamespaceSchemaLocation="http://sumo.dlr.de/xsd/libsumoConfiguration.xsd">

    <input>
        <net-file value="/home/stefan/RESCO/./environments/arterial4x4/arterial4x4.net.xml"/>
        <route-files value="/home/stefan/RESCO/./environments/arterial4x4/arterial4x4_88.rou.xml"/>
    </input>

    <output>
        <tripinfo-output value="/home/stefan/results/IDDQN-tr0-arterial4x4-0-drq_norm-wait_norm/tripinfo_88.xml"/>
        <tripinfo-output.write-unfinished value="true"/>
    </output>

    <processing>
        <time-to-teleport value="-1"/>
    </processing>

    <report>
        <no-warnings value="True"/>
        <no-step-log value="True"/>
    </report>

    <random_number>
        <random value="true"/>
    </random_number>

</configuration>
-->

<tripinfos xmlns:xsi="http://www.w3.org/2001/XMLSchema-instance" xsi:noNamespaceSchemaLocation="http://sumo.dlr.de/xsd/tripinfo_file.xsd">
    <tripinfo id="f_0_2.0" depart="0.00" departLane="np2_nt2_0" departPos="56.80" departSpeed="0.00" departDelay="0.00" arrival="107.00" arrivalLane="nt15_np10_0" arrivalPos="75.00" arrivalSpeed="9.84" duration="107.00" routeLength="894.28" waitingTime="5.00" waitingCount="2" stopTime="0.00" timeLoss="29.71" rerouteNo="0" devices="tripinfo_f_0_2.0" vType="type1" speedFactor="0.96" vaporized=""/>
    <tripinfo id="f_0_2.1" depart="9.00" departLane="np2_nt2_0" departPos="9.79" departSpeed="0.00" departDelay="0.82" arrival="128.00" arrivalLane="nt15_np10_0" arrivalPos="75.00" arrivalSpeed="7.24" duration="119.00" routeLength="941.29" waitingTime="1.00" waitingCount="1" stopTime="0.00" timeLoss="21.41" rerouteNo="0" devices="tripinfo_f_0_2.1" vType="type1" speedFactor="0.81" vaporized=""/>
    <tripinfo id="f_0_1.0" depart="0.00" departLane="np16_nt1_0" departPos="48.61" departSpeed="0.00" departDelay="0.00" arrival="136.00" arrivalLane="nt16_np8_0" arrivalPos="75.00" arrivalSpeed="17.80" duration="136.00" routeLength="1299.27" waitingTime="12.00" waitingCount="2" stopTime="0.00" timeLoss="38.36" rerouteNo="0" devices="tripinfo_f_0_1.0" vType="type1" speedFactor="0.93" vaporized=""/>
    <tripinfo id="f_0_2.2" depart="17.00" departLane="np2_nt2_0" departPos="19.77" departSpeed="0.00" departDelay="0.64" arrival="138.00" arrivalLane="nt15_np10_0" arrivalPos="75.00" arrivalSpeed="12.26" duration="121.00" routeLength="931.31" waitingTime="27.00" waitingCount="2" stopTime="0.00" timeLoss="54.75" rerouteNo="0" devices="tripinfo_f_0_2.2" vType="type1" speedFactor="1.18" vaporized=""/>
    <tripinfo id="f_0_2.3" depart="25.00" departLane="np2_nt2_0" departPos="10.22" departSpeed="0.00" departDelay="0.45" arrival="141.00" arrivalLane="nt15_np10_0" arrivalPos="75.00" arrivalSpeed="11.50" duration="116.00" routeLength="940.86" waitingTime="19.00" waitingCount="2" stopTime="0.00" timeLoss="43.25" rerouteNo="0" devices="tripinfo_f_0_2.3" vType="type1" speedFactor="1.10" vaporized=""/>
    <tripinfo id="f_0_1.1" depart="14.00" departLane="np16_nt1_0" departPos="57.25" departSpeed="0.00" departDelay="0.36" arrival="147.00" arrivalLane="nt16_np8_0" arrivalPos="75.00" arrivalSpeed="14.64" duration="133.00" routeLength="1290.63" waitingTime="3.00" waitingCount="1" stopTime="0.00" timeLoss="24.43" rerouteNo="0" devices="tripinfo_f_0_1.1" vType="type1" speedFactor="0.83" vaporized=""/>
    <tripinfo id="f_0_0.0" depart="0.00" departLane="np13_nt13_0" departPos="17.86" departSpeed="0.00" departDelay="0.00" arrival="149.00" arrivalLane="nt4_np5_0" arrivalPos="75.00" arrivalSpeed="17.66" duration="149.00" routeLength="1330.03" waitingTime="17.00" waitingCount="4" stopTime="0.00" timeLoss="46.36" rerouteNo="0" devices="tripinfo_f_0_0.0" vType="type1" speedFactor="0.90" vaporized=""/>
    <tripinfo id="f_0_1.2" depart="28.00" departLane="np16_nt1_0" departPos="48.72" departSpeed="0.00" departDelay="0.73" arrival="161.00" arrivalLane="nt16_np8_0" arrivalPos="75.00" arrivalSpeed="20.23" duration="133.00" routeLength="1299.16" waitingTime="18.00" waitingCount="5" stopTime="0.00" timeLoss="49.01" rerouteNo="0" devices="tripinfo_f_0_1.2" vType="type1" speedFactor="1.08" vaporized=""/>
    <tripinfo id="f_0_2.4" depart="33.00" departLane="np2_nt2_0" departPos="19.88" departSpeed="0.00" departDelay="0.27" arrival="166.00" arrivalLane="nt15_np10_0" arrivalPos="75.00" arrivalSpeed="8.42" duration="133.00" routeLength="931.20" waitingTime="16.00" waitingCount="4" stopTime="0.00" timeLoss="46.62" rerouteNo="0" devices="tripinfo_f_0_2.4" vType="type1" speedFactor="0.91" vaporized=""/>
    <tripinfo id="f_0_2.5" depart="41.00" departLane="np2_nt2_0" departPos="10.91" departSpeed="0.00" departDelay="0.09" arrival="168.00" arrivalLane="nt15_np10_0" arrivalPos="75.00" arrivalSpeed="11.50" duration="127.00" routeLength="940.17" waitingTime="10.00" waitingCount="4" stopTime="0.00" timeLoss="51.69" rerouteNo="0" devices="tripinfo_f_0_2.5" vType="type1" speedFactor="1.06" vaporized=""/>
    <tripinfo id="f_0_3.0" depart="0.00" departLane="np3_nt3_0" departPos="10.28" departSpeed="0.00" departDelay="0.00" arrival="169.00" arrivalLane="nt14_np11_0" arrivalPos="75.00" arrivalSpeed="8.86" duration="169.00" routeLength="940.81" waitingTime="52.00" waitingCount="3" stopTime="0.00" timeLoss="74.89" rerouteNo="0" devices="tripinfo_f_0_3.0" vType="type1" speedFactor="0.84" vaporized=""/>
    <tripinfo id="f_0_3.1" depart="9.00" departLane="np3_nt3_0" departPos="47.00" departSpeed="0.00" departDelay="0.82" arrival="171.00" arrivalLane="nt14_np11_0" arrivalPos="75.00" arrivalSpeed="11.61" duration="162.00" routeLength="904.09" waitingTime="55.00" waitingCount="4" stopTime="0.00" timeLoss="101.38" rerouteNo="0" devices="tripinfo_f_0_3.1" vType="type1" speedFactor="1.25" vaporized=""/>
    <tripinfo id="f_0_2.6" depart="50.00" departLane="np2_nt2_0" departPos="21.75" departSpeed="0.00" departDelay="0.91" arrival="171.00" arrivalLane="nt15_np10_0" arrivalPos="75.00" arrivalSpeed="11.03" duration="121.00" routeLength="929.33" waitingTime="7.00" waitingCount="2" stopTime="0.00" timeLoss="47.82" rerouteNo="0" devices="tripinfo_f_0_2.6" vType="type1" speedFactor="1.06" vaporized=""/>
    <tripinfo id="f_0_3.2" depart="17.00" departLane="np3_nt3_0" departPos="39.37" departSpeed="0.00" departDelay="0.64" arrival="173.00" arrivalLane="nt14_np11_0" arrivalPos="75.00" arrivalSpeed="11.07" duration="156.00" routeLength="911.72" waitingTime="50.00" waitingCount="4" stopTime="0.00" timeLoss="82.62" rerouteNo="0" devices="tripinfo_f_0_3.2" vType="type1" speedFactor="1.04" vaporized=""/>
    <tripinfo id="f_0_2.7" depart="58.00" departLane="np2_nt2_0" departPos="46.57" departSpeed="0.00" departDelay="0.73" arrival="173.00" arrivalLane="nt15_np10_0" arrivalPos="75.00" arrivalSpeed="11.36" duration="115.00" routeLength="904.51" waitingTime="5.00" waitingCount="1" stopTime="0.00" timeLoss="42.25" rerouteNo="0" devices="tripinfo_f_0_2.7" vType="type1" speedFactor="1.04" vaporized=""/>
    <tripinfo id="f_0_3.3" depart="25.00" departLane="np3_nt3_0" departPos="1.09" departSpeed="0.00" departDelay="0.45" arrival="175.00" arrivalLane="nt14_np11_0" arrivalPos="75.00" arrivalSpeed="9.89" duration="150.00" routeLength="950.00" waitingTime="44.00" waitingCount="4" stopTime="0.00" timeLoss="72.90" rerouteNo="0" devices="tripinfo_f_0_3.3" vType="type1" speedFactor="1.03" vaporized=""/>
    <tripinfo id="f_0_1.3" depart="41.00" departLane="np16_nt1_0" departPos="32.06" departSpeed="0.00" departDelay="0.09" arrival="175.00" arrivalLane="nt16_np8_0" arrivalPos="75.00" arrivalSpeed="21.11" duration="134.00" routeLength="1315.82" waitingTime="12.00" waitingCount="2" stopTime="0.00" timeLoss="53.02" rerouteNo="0" devices="tripinfo_f_0_1.3" vType="type1" speedFactor="1.13" vaporized=""/>
    <tripinfo id="f_0_3.4" depart="33.00" departLane="np3_nt3_0" departPos="35.24" departSpeed="0.00" departDelay="0.27" arrival="177.00" arrivalLane="nt14_np11_0" arrivalPos="75.00" arrivalSpeed="7.90" duration="144.00" routeLength="915.85" waitingTime="32.00" waitingCount="3" stopTime="0.00" timeLoss="62.38" rerouteNo="0" devices="tripinfo_f_0_3.4" vType="type1" speedFactor="0.94" vaporized=""/>
    <tripinfo id="f_0_3.5" depart="41.00" departLane="np3_nt3_0" departPos="14.07" departSpeed="0.00" departDelay="0.09" arrival="179.00" arrivalLane="nt14_np11_0" arrivalPos="75.00" arrivalSpeed="10.42" duration="138.00" routeLength="937.02" waitingTime="26.00" waitingCount="4" stopTime="0.00" timeLoss="55.72" rerouteNo="0" devices="tripinfo_f_0_3.5" vType="type1" speedFactor="0.96" vaporized=""/>
    <tripinfo id="f_0_3.6" depart="50.00" departLane="np3_nt3_0" departPos="25.72" departSpeed="0.00" departDelay="0.91" arrival="181.00" arrivalLane="nt14_np11_0" arrivalPos="75.00" arrivalSpeed="9.86" duration="131.00" routeLength="925.37" waitingTime="16.00" waitingCount="3" stopTime="0.00" timeLoss="47.83" rerouteNo="0" devices="tripinfo_f_0_3.6" vType="type1" speedFactor="0.93" vaporized=""/>
    <tripinfo id="f_0_1.4" depart="55.00" departLane="np16_nt1_0" departPos="37.54" departSpeed="0.00" departDelay="0.46" arrival="182.00" arrivalLane="nt16_np8_0" arrivalPos="75.00" arrivalSpeed="20.25" duration="127.00" routeLength="1310.34" waitingTime="13.00" waitingCount="2" stopTime="0.00" timeLoss="43.43" rerouteNo="0" devices="tripinfo_f_0_1.4" vType="type1" speedFactor="1.10" vaporized=""/>
    <tripinfo id="f_0_3.7" depart="58.00" departLane="np3_nt3_0" departPos="43.92" departSpeed="0.00" departDelay="0.73" arrival="183.00" arrivalLane="nt14_np11_0" arrivalPos="75.00" arrivalSpeed="9.19" duration="125.00" routeLength="907.17" waitingTime="16.00" waitingCount="4" stopTime="0.00" timeLoss="52.73" rerouteNo="0" devices="tripinfo_f_0_3.7" vType="type1" speedFactor="1.05" vaporized=""/>
    <tripinfo id="f_0_3.8" depart="66.00" departLane="np3_nt3_0" departPos="44.15" departSpeed="0.00" departDelay="0.54" arrival="185.00" arrivalLane="nt14_np11_0" arrivalPos="75.00" arrivalSpeed="9.21" duration="119.00" routeLength="906.94" waitingTime="12.00" waitingCount="5" stopTime="0.00" timeLoss="43.93" rerouteNo="0" devices="tripinfo_f_0_3.8" vType="type1" speedFactor="1.01" vaporized=""/>
    <tripinfo id="f_0_2.8" depart="66.00" departLane="np2_nt2_0" departPos="18.43" departSpeed="0.00" departDelay="0.54" arrival="191.00" arrivalLane="nt15_np10_0" arrivalPos="75.00" arrivalSpeed="8.12" duration="125.00" routeLength="932.65" waitingTime="11.00" waitingCount="2" stopTime="0.00" timeLoss="36.71" rerouteNo="0" devices="tripinfo_f_0_2.8" vType="type1" speedFactor="0.89" vaporized=""/>
    <tripinfo id="f_0_2.9" depart="74.00" departLane="np2_nt2_0" departPos="18.10" departSpeed="0.00" departDelay="0.36" arrival="193.00" arrivalLane="nt15_np10_0" arrivalPos="75.00" arrivalSpeed="11.40" duration="119.00" routeLength="932.98" waitingTime="7.00" waitingCount="1" stopTime="0.00" timeLoss="45.21" rerouteNo="0" devices="tripinfo_f_0_2.9" vType="type1" speedFactor="1.07" vaporized=""/>
    <tripinfo id="f_0_0.1" depart="14.00" departLane="np13_nt13_0" departPos="26.23" departSpeed="0.00" departDelay="0.36" arrival="194.00" arrivalLane="nt4_np5_0" arrivalPos="75.00" arrivalSpeed="21.21" duration="180.00" routeLength="1321.66" waitingTime="61.00" waitingCount="5" stopTime="0.00" timeLoss="92.83" rerouteNo="0" devices="tripinfo_f_0_0.1" vType="type1" speedFactor="1.06" vaporized=""/>
    <tripinfo id="f_0_0.2" depart="28.00" departLane="np13_nt13_0" departPos="2.66" departSpeed="0.00" departDelay="0.73" arrival="195.00" arrivalLane="nt4_np5_0" arrivalPos="75.00" arrivalSpeed="20.78" duration="167.00" routeLength="1345.23" waitingTime="37.00" waitingCount="5" stopTime="0.00" timeLoss="80.62" rerouteNo="0" devices="tripinfo_f_0_0.2" vType="type1" speedFactor="1.08" vaporized=""/>
    <tripinfo id="f_0_0.3" depart="41.00" departLane="np13_nt13_0" departPos="39.48" departSpeed="0.00" departDelay="0.09" arrival="197.00" arrivalLane="nt4_np5_0" arrivalPos="75.00" arrivalSpeed="17.70" duration="156.00" routeLength="1308.41" waitingTime="24.00" waitingCount="5" stopTime="0.00" timeLoss="65.12" rerouteNo="0" devices="tripinfo_f_0_0.3" vType="type1" speedFactor="1.01" vaporized=""/>
    <tripinfo id="f_0_0.4" depart="55.00" departLane="np13_nt13_0" departPos="47.95" departSpeed="0.00" departDelay="0.46" arrival="198.00" arrivalLane="nt4_np5_0" arrivalPos="75.00" arrivalSpeed="21.05" duration="143.00" routeLength="1299.94" waitingTime="14.00" waitingCount="3" stopTime="0.00" timeLoss="58.67" rerouteNo="0" devices="tripinfo_f_0_0.4" vType="type1" speedFactor="1.07" vaporized=""/>
    <tripinfo id="f_0_2.10" depart="82.00" departLane="np2_nt2_0" departPos="42.96" departSpeed="0.00" departDelay="0.18" arrival="200.00" arrivalLane="nt15_np10_0" arrivalPos="75.00" arrivalSpeed="7.87" duration="118.00" routeLength="908.12" waitingTime="10.00" waitingCount="2" stopTime="0.00" timeLoss="33.89" rerouteNo="0" devices="tripinfo_f_0_2.10" vType="type1" speedFactor="0.91" vaporized=""/>
    <tripinfo id="f_0_3.9" depart="74.00" departLane="np3_nt3_0" departPos="57.42" departSpeed="0.00" departDelay="0.36" arrival="203.00" arrivalLane="nt14_np11_0" arrivalPos="75.00" arrivalSpeed="8.37" duration="129.00" routeLength="893.67" waitingTime="25.00" waitingCount="4" stopTime="0.00" timeLoss="50.46" rerouteNo="0" devices="tripinfo_f_0_3.9" vType="type1" speedFactor="0.95" vaporized=""/>
    <tripinfo id="f_0_1.5" depart="69.00" departLane="np16_nt1_0" departPos="41.67" departSpeed="0.00" departDelay="0.82" arrival="208.00" arrivalLane="nt16_np8_0" arrivalPos="75.00" arrivalSpeed="19.14" duration="139.00" routeLength="1306.21" waitingTime="25.00" waitingCount="4" stopTime="0.00" timeLoss="54.44" rerouteNo="0" devices="tripinfo_f_0_1.5" vType="type1" speedFactor="1.08" vaporized=""/>
    <tripinfo id="f_0_3.10" depart="82.00" departLane="np3_nt3_0" departPos="15.73" departSpeed="0.00" departDelay="0.18" arrival="212.00" arrivalLane="nt14_np11_0" arrivalPos="75.00" arrivalSpeed="11.02" duration="130.00" routeLength="935.36" waitingTime="26.00" waitingCount="6" stopTime="0.00" timeLoss="55.95" rerouteNo="0" devices="tripinfo_f_0_3.10" vType="type1" speedFactor="1.07" vaporized=""/>
    <tripinfo id="f_0_2.11" depart="90.00" departLane="np2_nt2_0" departPos="11.74" departSpeed="0.00" departDelay="0.00" arrival="212.00" arrivalLane="nt15_np10_0" arrivalPos="75.00" arrivalSpeed="7.84" duration="122.00" routeLength="939.34" waitingTime="13.00" waitingCount="3" stopTime="0.00" timeLoss="36.34" rerouteNo="0" devices="tripinfo_f_0_2.11" vType="type1" speedFactor="0.93" vaporized=""/>
    <tripinfo id="f_0_2.12" depart="99.00" departLane="np2_nt2_0" departPos="18.10" departSpeed="0.00" departDelay="0.82" arrival="213.00" arrivalLane="nt15_np10_0" arrivalPos="75.00" arrivalSpeed="11.05" duration="114.00" routeLength="932.98" waitingTime="7.00" waitingCount="3" stopTime="0.00" timeLoss="36.55" rerouteNo="0" devices="tripinfo_f_0_2.12" vType="type1" speedFactor="1.01" vaporized=""/>
    <tripinfo id="f_0_3.11" depart="90.00" departLane="np3_nt3_0" departPos="14.56" departSpeed="0.00" departDelay="0.00" arrival="223.00" arrivalLane="nt14_np11_0" arrivalPos="75.00" arrivalSpeed="6.90" duration="133.00" routeLength="936.53" waitingTime="7.00" waitingCount="2" stopTime="0.00" timeLoss="35.31" rerouteNo="0" devices="tripinfo_f_0_3.11" vType="type1" speedFactor="0.81" vaporized=""/>
    <tripinfo id="f_0_0.5" depart="69.00" departLane="np13_nt13_0" departPos="59.93" departSpeed="0.00" departDelay="0.82" arrival="224.00" arrivalLane="nt4_np5_0" arrivalPos="75.00" arrivalSpeed="20.72" duration="155.00" routeLength="1287.96" waitingTime="42.00" waitingCount="3" stopTime="0.00" timeLoss="70.86" rerouteNo="0" devices="tripinfo_f_0_0.5" vType="type1" speedFactor="1.08" vaporized=""/>
    <tripinfo id="f_0_3.12" depart="99.00" departLane="np3_nt3_0" departPos="38.56" departSpeed="0.00" departDelay="0.82" arrival="225.00" arrivalLane="nt14_np11_0" arrivalPos="75.00" arrivalSpeed="10.88" duration="126.00" routeLength="912.53" waitingTime="6.00" waitingCount="1" stopTime="0.00" timeLoss="49.91" rerouteNo="0" devices="tripinfo_f_0_3.12" vType="type1" speedFactor="1.01" vaporized=""/>
    <tripinfo id="f_0_3.13" depart="107.00" departLane="np3_nt3_0" departPos="39.51" departSpeed="0.00" departDelay="0.63" arrival="226.00" arrivalLane="nt14_np11_0" arrivalPos="75.00" arrivalSpeed="9.81" duration="119.00" routeLength="911.58" waitingTime="8.00" waitingCount="2" stopTime="0.00" timeLoss="37.75" rerouteNo="0" devices="tripinfo_f_0_3.13" vType="type1" speedFactor="0.93" vaporized=""/>
    <tripinfo id="f_0_1.6" depart="82.00" departLane="np16_nt1_0" departPos="10.73" departSpeed="0.00" departDelay="0.18" arrival="232.00" arrivalLane="nt16_np8_0" arrivalPos="75.00" arrivalSpeed="16.37" duration="150.00" routeLength="1337.15" waitingTime="16.00" waitingCount="4" stopTime="0.00" timeLoss="43.19" rerouteNo="0" devices="tripinfo_f_0_1.6" vType="type1" speedFactor="0.87" vaporized=""/>
    <tripinfo id="f_0_3.14" depart="115.00" departLane="np3_nt3_0" departPos="27.96" departSpeed="0.00" departDelay="0.45" arrival="233.00" arrivalLane="nt14_np11_0" arrivalPos="75.00" arrivalSpeed="9.33" duration="118.00" routeLength="923.13" waitingTime="4.00" waitingCount="2" stopTime="0.00" timeLoss="36.96" rerouteNo="0" devices="tripinfo_f_0_3.14" vType="type1" speedFactor="0.96" vaporized=""/>
    <tripinfo id="f_0_1.7" depart="96.00" departLane="np16_nt1_0" departPos="34.36" departSpeed="0.00" departDelay="0.55" arrival="236.00" arrivalLane="nt16_np8_0" arrivalPos="75.00" arrivalSpeed="17.39" duration="140.00" routeLength="1313.52" waitingTime="4.00" waitingCount="2" stopTime="0.00" timeLoss="34.71" rerouteNo="0" devices="tripinfo_f_0_1.7" vType="type1" speedFactor="0.87" vaporized=""/>
    <tripinfo id="f_0_3.15" depart="123.00" departLane="np3_nt3_0" departPos="28.67" departSpeed="0.00" departDelay="0.27" arrival="248.00" arrivalLane="nt14_np11_0" arrivalPos="75.00" arrivalSpeed="9.39" duration="125.00" routeLength="922.42" waitingTime="27.00" waitingCount="3" stopTime="0.00" timeLoss="46.85" rerouteNo="0" devices="tripinfo_f_0_3.15" vType="type1" speedFactor="0.99" vaporized=""/>
    <tripinfo id="f_0_3.16" depart="131.00" departLane="np3_nt3_0" departPos="48.62" departSpeed="0.00" departDelay="0.09" arrival="251.00" arrivalLane="nt14_np11_0" arrivalPos="75.00" arrivalSpeed="9.45" duration="120.00" routeLength="902.47" waitingTime="15.00" waitingCount="3" stopTime="0.00" timeLoss="41.81" rerouteNo="0" devices="tripinfo_f_0_3.16" vType="type1" speedFactor="0.97" vaporized=""/>
    <tripinfo id="f_0_3.17" depart="140.00" departLane="np3_nt3_0" departPos="18.58" departSpeed="0.00" departDelay="0.91" arrival="253.00" arrivalLane="nt14_np11_0" arrivalPos="75.00" arrivalSpeed="9.37" duration="113.00" routeLength="932.51" waitingTime="6.00" waitingCount="2" stopTime="0.00" timeLoss="31.17" rerouteNo="0" devices="tripinfo_f_0_3.17" vType="type1" speedFactor="0.96" vaporized=""/>
    <tripinfo id="f_0_2.13" depart="107.00" departLane="np2_nt2_0" departPos="24.27" departSpeed="0.00" departDelay="0.63" arrival="260.00" arrivalLane="nt15_np10_0" arrivalPos="75.00" arrivalSpeed="8.69" duration="153.00" routeLength="926.81" waitingTime="29.00" waitingCount="3" stopTime="0.00" timeLoss="58.50" rerouteNo="0" devices="tripinfo_f_0_2.13" vType="type1" speedFactor="0.83" vaporized=""/>
    <tripinfo id="f_0_2.14" depart="115.00" departLane="np2_nt2_0" departPos="33.48" departSpeed="0.00" departDelay="0.45" arrival="262.00" arrivalLane="nt15_np10_0" arrivalPos="75.00" arrivalSpeed="8.06" duration="147.00" routeLength="917.60" waitingTime="32.00" waitingCount="4" stopTime="0.00" timeLoss="64.97" rerouteNo="0" devices="tripinfo_f_0_2.14" vType="type1" speedFactor="0.94" vaporized=""/>
    <tripinfo id="f_0_3.18" depart="148.00" departLane="np3_nt3_0" departPos="43.87" departSpeed="0.00" departDelay="0.72" arrival="262.00" arrivalLane="nt14_np11_0" arrivalPos="75.00" arrivalSpeed="11.09" duration="114.00" routeLength="907.22" waitingTime="14.00" waitingCount="3" stopTime="0.00" timeLoss="38.76" rerouteNo="0" devices="tripinfo_f_0_3.18" vType="type1" speedFactor="1.01" vaporized=""/>
    <tripinfo id="f_0_1.8" depart="110.00" departLane="np16_nt1_0" departPos="1.68" departSpeed="0.00" departDelay="0.91" arrival="271.00" arrivalLane="nt16_np8_0" arrivalPos="75.00" arrivalSpeed="16.16" duration="161.00" routeLength="1346.20" waitingTime="27.00" waitingCount="4" stopTime="0.00" timeLoss="56.68" rerouteNo="0" devices="tripinfo_f_0_1.8" vType="type1" speedFactor="0.89" vaporized=""/>
    <tripinfo id="f_0_0.6" depart="82.00" departLane="np13_nt13_0" departPos="23.99" departSpeed="0.00" departDelay="0.18" arrival="274.00" arrivalLane="nt4_np5_0" arrivalPos="75.00" arrivalSpeed="16.07" duration="192.00" routeLength="1323.90" waitingTime="49.00" waitingCount="5" stopTime="0.00" timeLoss="82.49" rerouteNo="0" devices="tripinfo_f_0_0.6" vType="type1" speedFactor="0.84" vaporized=""/>
    <tripinfo id="f_0_3.19" depart="156.00" departLane="np3_nt3_0" departPos="39.76" departSpeed="0.00" departDelay="0.54" arrival="274.00" arrivalLane="nt14_np11_0" arrivalPos="75.00" arrivalSpeed="9.60" duration="118.00" routeLength="911.33" waitingTime="14.00" waitingCount="3" stopTime="0.00" timeLoss="37.97" rerouteNo="0" devices="tripinfo_f_0_3.19" vType="type1" speedFactor="0.96" vaporized=""/>
    <tripinfo id="f_0_0.7" depart="96.00" departLane="np13_nt13_0" departPos="1.44" departSpeed="0.00" departDelay="0.55" arrival="276.00" arrivalLane="nt4_np5_0" arrivalPos="75.00" arrivalSpeed="17.82" duration="180.00" routeLength="1346.45" waitingTime="32.00" waitingCount="5" stopTime="0.00" timeLoss="86.92" rerouteNo="0" devices="tripinfo_f_0_0.7" vType="type1" speedFactor="1.00" vaporized=""/>
    <tripinfo id="f_0_0.8" depart="110.00" departLane="np13_nt13_0" departPos="15.47" departSpeed="0.00" departDelay="0.91" arrival="277.00" arrivalLane="nt4_np5_0" arrivalPos="75.00" arrivalSpeed="20.55" duration="167.00" routeLength="1332.42" waitingTime="24.00" waitingCount="5" stopTime="0.00" timeLoss="84.06" rerouteNo="0" devices="tripinfo_f_0_0.8" vType="type1" speedFactor="1.11" vaporized=""/>
    <tripinfo id="f_0_1.9" depart="123.00" departLane="np16_nt1_0" departPos="67.45" departSpeed="0.00" departDelay="0.28" arrival="278.00" arrivalLane="nt16_np8_0" arrivalPos="75.00" arrivalSpeed="16.79" duration="155.00" routeLength="1280.43" waitingTime="13.00" waitingCount="4" stopTime="0.00" timeLoss="48.17" rerouteNo="0" devices="tripinfo_f_0_1.9" vType="type1" speedFactor="0.85" vaporized=""/>
    <tripinfo id="f_0_0.9" depart="123.00" departLane="np13_nt13_0" departPos="67.32" departSpeed="0.00" departDelay="0.28" arrival="279.00" arrivalLane="nt4_np5_0" arrivalPos="75.00" arrivalSpeed="21.41" duration="156.00" routeLength="1280.57" waitingTime="22.00" waitingCount="5" stopTime="0.00" timeLoss="73.53" rerouteNo="0" devices="tripinfo_f_0_0.9" vType="type1" speedFactor="1.10" vaporized=""/>
    <tripinfo id="f_0_3.20" depart="164.00" departLane="np3_nt3_0" departPos="3.62" departSpeed="0.00" departDelay="0.36" arrival="286.00" arrivalLane="nt14_np11_0" arrivalPos="75.00" arrivalSpeed="10.56" duration="122.00" routeLength="947.47" waitingTime="23.00" waitingCount="3" stopTime="0.00" timeLoss="50.56" rerouteNo="0" devices="tripinfo_f_0_3.20" vType="type1" speedFactor="1.11" vaporized=""/>
    <tripinfo id="f_0_2.15" depart="123.00" departLane="np2_nt2_0" departPos="3.84" departSpeed="0.00" departDelay="0.27" arrival="287.00" arrivalLane="nt15_np10_0" arrivalPos="75.00" arrivalSpeed="9.67" duration="164.00" routeLength="947.24" waitingTime="32.00" waitingCount="4" stopTime="0.00" timeLoss="83.27" rerouteNo="0" devices="tripinfo_f_0_2.15" vType="type1" speedFactor="0.98" vaporized=""/>
    <tripinfo id="f_0_3.21" depart="172.00" departLane="np3_nt3_0" departPos="15.53" departSpeed="0.00" departDelay="0.18" arrival="288.00" arrivalLane="nt14_np11_0" arrivalPos="75.00" arrivalSpeed="11.35" duration="116.00" routeLength="935.56" waitingTime="17.00" waitingCount="2" stopTime="0.00" timeLoss="49.73" rerouteNo="0" devices="tripinfo_f_0_3.21" vType="type1" speedFactor="1.19" vaporized=""/>
    <tripinfo id="f_0_2.16" depart="131.00" departLane="np2_nt2_0" departPos="52.25" departSpeed="0.00" departDelay="0.09" arrival="289.00" arrivalLane="nt15_np10_0" arrivalPos="75.00" arrivalSpeed="11.37" duration="158.00" routeLength="898.83" waitingTime="42.00" waitingCount="6" stopTime="0.00" timeLoss="89.16" rerouteNo="0" devices="tripinfo_f_0_2.16" vType="type1" speedFactor="1.09" vaporized=""/>
    <tripinfo id="f_0_0.10" depart="137.00" departLane="np13_nt13_0" departPos="40.52" departSpeed="0.00" departDelay="0.64" arrival="293.00" arrivalLane="nt4_np5_0" arrivalPos="75.00" arrivalSpeed="19.95" duration="156.00" routeLength="1307.37" waitingTime="17.00" waitingCount="4" stopTime="0.00" timeLoss="71.19" rerouteNo="0" devices="tripinfo_f_0_0.10" vType="type1" speedFactor="1.07" vaporized=""/>
    <tripinfo id="f_0_3.22" depart="180.00" departLane="np3_nt3_0" departPos="51.70" departSpeed="0.00" departDelay="0.00" arrival="293.00" arrivalLane="nt14_np11_0" arrivalPos="75.00" arrivalSpeed="7.27" duration="113.00" routeLength="899.39" waitingTime="6.00" waitingCount="2" stopTime="0.00" timeLoss="26.32" rerouteNo="0" devices="tripinfo_f_0_3.22" vType="type1" speedFactor="0.87" vaporized=""/>
    <tripinfo id="f_0_2.17" depart="140.00" departLane="np2_nt2_0" departPos="2.18" departSpeed="0.00" departDelay="0.91" arrival="294.00" arrivalLane="nt15_np10_0" arrivalPos="75.00" arrivalSpeed="12.43" duration="154.00" routeLength="948.90" waitingTime="29.00" waitingCount="5" stopTime="0.00" timeLoss="87.13" rerouteNo="0" devices="tripinfo_f_0_2.17" vType="type1" speedFactor="1.19" vaporized=""/>
    <tripinfo id="f_0_3.23" depart="189.00" departLane="np3_nt3_0" departPos="16.03" departSpeed="0.00" departDelay="0.81" arrival="295.00" arrivalLane="nt14_np11_0" arrivalPos="75.00" arrivalSpeed="10.94" duration="106.00" routeLength="935.06" waitingTime="18.00" waitingCount="3" stopTime="0.00" timeLoss="37.32" rerouteNo="0" devices="tripinfo_f_0_3.23" vType="type1" speedFactor="1.15" vaporized=""/>
    <tripinfo id="f_0_3.24" depart="197.00" departLane="np3_nt3_0" departPos="43.48" departSpeed="0.00" departDelay="0.63" arrival="296.00" arrivalLane="nt14_np11_0" arrivalPos="75.00" arrivalSpeed="10.76" duration="99.00" routeLength="907.61" waitingTime="12.00" waitingCount="3" stopTime="0.00" timeLoss="36.28" rerouteNo="0" devices="tripinfo_f_0_3.24" vType="type1" speedFactor="1.20" vaporized=""/>
    <tripinfo id="f_0_2.18" depart="148.00" departLane="np2_nt2_0" departPos="1.03" departSpeed="0.00" departDelay="0.72" arrival="297.00" arrivalLane="nt15_np10_0" arrivalPos="75.00" arrivalSpeed="10.56" duration="149.00" routeLength="950.05" waitingTime="25.00" waitingCount="4" stopTime="0.00" timeLoss="74.79" rerouteNo="0" devices="tripinfo_f_0_2.18" vType="type1" speedFactor="1.08" vaporized=""/>
    <tripinfo id="f_0_2.19" depart="156.00" departLane="np2_nt2_0" departPos="43.71" departSpeed="0.00" departDelay="0.54" arrival="299.00" arrivalLane="nt15_np10_0" arrivalPos="75.00" arrivalSpeed="10.42" duration="143.00" routeLength="907.37" waitingTime="21.00" waitingCount="4" stopTime="0.00" timeLoss="69.20" rerouteNo="0" devices="tripinfo_f_0_2.19" vType="type1" speedFactor="1.03" vaporized=""/>
    <tripinfo id="f_0_1.10" depart="137.00" departLane="np16_nt1_0" departPos="22.27" departSpeed="0.00" departDelay="0.64" arrival="302.00" arrivalLane="nt16_np8_0" arrivalPos="75.00" arrivalSpeed="16.30" duration="165.00" routeLength="1325.61" waitingTime="26.00" waitingCount="4" stopTime="0.00" timeLoss="56.11" rerouteNo="0" devices="tripinfo_f_0_1.10" vType="type1" speedFactor="0.85" vaporized=""/>
    <tripinfo id="f_0_2.20" depart="164.00" departLane="np2_nt2_0" departPos="32.04" departSpeed="0.00" departDelay="0.36" arrival="302.00" arrivalLane="nt15_np10_0" arrivalPos="75.00" arrivalSpeed="10.03" duration="138.00" routeLength="919.04" waitingTime="17.00" waitingCount="4" stopTime="0.00" timeLoss="53.98" rerouteNo="0" devices="tripinfo_f_0_2.20" vType="type1" speedFactor="0.92" vaporized=""/>
    <tripinfo id="f_0_2.21" depart="172.00" departLane="np2_nt2_0" departPos="49.14" departSpeed="0.00" departDelay="0.18" arrival="304.00" arrivalLane="nt15_np10_0" arrivalPos="75.00" arrivalSpeed="9.09" duration="132.00" routeLength="901.94" waitingTime="10.00" waitingCount="3" stopTime="0.00" timeLoss="54.92" rerouteNo="0" devices="tripinfo_f_0_2.21" vType="type1" speedFactor="0.99" vaporized=""/>
    <tripinfo id="f_0_1.11" depart="150.00" departLane="np16_nt1_0" departPos="16.03" departSpeed="0.00" departDelay="0.00" arrival="311.00" arrivalLane="nt16_np8_0" arrivalPos="75.00" arrivalSpeed="21.73" duration="161.00" routeLength="1331.85" waitingTime="39.00" waitingCount="6" stopTime="0.00" timeLoss="79.69" rerouteNo="0" devices="tripinfo_f_0_1.11" vType="type1" speedFactor="1.13" vaporized=""/>
    <tripinfo id="f_0_1.12" depart="164.00" departLane="np16_nt1_0" departPos="62.98" departSpeed="0.00" departDelay="0.37" arrival="315.00" arrivalLane="nt16_np8_0" arrivalPos="75.00" arrivalSpeed="19.09" duration="151.00" routeLength="1284.90" waitingTime="22.00" waitingCount="4" stopTime="0.00" timeLoss="65.72" rerouteNo="0" devices="tripinfo_f_0_1.12" vType="type1" speedFactor="1.06" vaporized=""/>