<?xml version="1.0" encoding="UTF-8"?>

<!-- generated on 2023-08-23 16:18:23 by Eclipse SUMO libsumo Version 1.18.0
<configuration xmlns:xsi="http://www.w3.org/2001/XMLSchema-instance" xsi:noNamespaceSchemaLocation="http://sumo.dlr.de/xsd/libsumoConfiguration.xsd">

    <input>
        <net-file value="/home/stefan/RESCO/./environments/arterial4x4/arterial4x4.net.xml"/>
        <route-files value="/home/stefan/RESCO/./environments/arterial4x4/arterial4x4_35.rou.xml"/>
    </input>

    <output>
        <tripinfo-output value="/home/stefan/results/IDDQN-tr0-arterial4x4-0-drq_norm-wait_norm/tripinfo_35.xml"/>
        <tripinfo-output.write-unfinished value="true"/>
    </output>

    <processing>
        <time-to-teleport value="-1"/>
    </processing>

    <report>
        <no-warnings value="True"/>
        <no-step-log value="True"/>
    </report>

    <random_number>
        <random value="true"/>
    </random_number>

</configuration>
-->

<tripinfos xmlns:xsi="http://www.w3.org/2001/XMLSchema-instance" xsi:noNamespaceSchemaLocation="http://sumo.dlr.de/xsd/tripinfo_file.xsd">
    <tripinfo id="f_0_3.0" depart="0.00" departLane="np3_nt3_0" departPos="12.16" departSpeed="0.00" departDelay="0.00" arrival="138.00" arrivalLane="nt14_np11_0" arrivalPos="75.00" arrivalSpeed="10.48" duration="138.00" routeLength="938.93" waitingTime="37.00" waitingCount="4" stopTime="0.00" timeLoss="56.35" rerouteNo="0" devices="tripinfo_f_0_3.0" vType="type1" speedFactor="0.97" vaporized=""/>
    <tripinfo id="f_0_0.0" depart="0.00" departLane="np13_nt13_0" departPos="37.66" departSpeed="0.00" departDelay="0.00" arrival="143.00" arrivalLane="nt4_np5_0" arrivalPos="75.00" arrivalSpeed="20.18" duration="143.00" routeLength="1310.23" waitingTime="28.00" waitingCount="5" stopTime="0.00" timeLoss="54.54" rerouteNo="0" devices="tripinfo_f_0_0.0" vType="type1" speedFactor="1.03" vaporized=""/>
    <tripinfo id="f_0_2.0" depart="0.00" departLane="np2_nt2_0" departPos="51.65" departSpeed="0.00" departDelay="0.00" arrival="143.00" arrivalLane="nt15_np10_0" arrivalPos="75.00" arrivalSpeed="9.73" duration="143.00" routeLength="899.43" waitingTime="38.00" waitingCount="4" stopTime="0.00" timeLoss="59.07" rerouteNo="0" devices="tripinfo_f_0_2.0" vType="type1" speedFactor="0.90" vaporized=""/>
    <tripinfo id="f_0_2.1" depart="9.00" departLane="np2_nt2_0" departPos="9.30" departSpeed="0.00" departDelay="0.82" arrival="145.00" arrivalLane="nt15_np10_0" arrivalPos="75.00" arrivalSpeed="10.80" duration="136.00" routeLength="941.78" waitingTime="25.00" waitingCount="4" stopTime="0.00" timeLoss="55.80" rerouteNo="0" devices="tripinfo_f_0_2.1" vType="type1" speedFactor="0.99" vaporized=""/>
    <tripinfo id="f_0_2.2" depart="17.00" departLane="np2_nt2_0" departPos="29.36" departSpeed="0.00" departDelay="0.64" arrival="152.00" arrivalLane="nt15_np10_0" arrivalPos="75.00" arrivalSpeed="10.67" duration="135.00" routeLength="921.72" waitingTime="20.00" waitingCount="6" stopTime="0.00" timeLoss="60.64" rerouteNo="0" devices="tripinfo_f_0_2.2" vType="type1" speedFactor="1.04" vaporized=""/>
    <tripinfo id="f_0_3.1" depart="9.00" departLane="np3_nt3_0" departPos="40.77" departSpeed="0.00" departDelay="0.82" arrival="157.00" arrivalLane="nt14_np11_0" arrivalPos="75.00" arrivalSpeed="8.17" duration="148.00" routeLength="910.32" waitingTime="43.00" waitingCount="4" stopTime="0.00" timeLoss="65.76" rerouteNo="0" devices="tripinfo_f_0_3.1" vType="type1" speedFactor="0.93" vaporized=""/>
    <tripinfo id="f_0_3.2" depart="17.00" departLane="np3_nt3_0" departPos="16.49" departSpeed="0.00" departDelay="0.64" arrival="160.00" arrivalLane="nt14_np11_0" arrivalPos="75.00" arrivalSpeed="8.12" duration="143.00" routeLength="934.60" waitingTime="34.00" waitingCount="4" stopTime="0.00" timeLoss="55.44" rerouteNo="0" devices="tripinfo_f_0_3.2" vType="type1" speedFactor="0.90" vaporized=""/>
    <tripinfo id="f_0_2.3" depart="25.00" departLane="np2_nt2_0" departPos="4.05" departSpeed="0.00" departDelay="0.45" arrival="167.00" arrivalLane="nt15_np10_0" arrivalPos="75.00" arrivalSpeed="10.98" duration="142.00" routeLength="947.03" waitingTime="30.00" waitingCount="4" stopTime="0.00" timeLoss="65.40" rerouteNo="0" devices="tripinfo_f_0_2.3" vType="type1" speedFactor="1.04" vaporized=""/>
    <tripinfo id="f_0_0.1" depart="14.00" departLane="np13_nt13_0" departPos="1.17" departSpeed="0.00" departDelay="0.36" arrival="173.00" arrivalLane="nt4_np5_0" arrivalPos="75.00" arrivalSpeed="19.02" duration="159.00" routeLength="1346.72" waitingTime="32.00" waitingCount="5" stopTime="0.00" timeLoss="62.20" rerouteNo="0" devices="tripinfo_f_0_0.1" vType="type1" speedFactor="0.96" vaporized=""/>
    <tripinfo id="f_0_1.0" depart="0.00" departLane="np16_nt1_0" departPos="16.02" departSpeed="0.00" departDelay="0.00" arrival="178.00" arrivalLane="nt16_np8_0" arrivalPos="75.00" arrivalSpeed="20.71" duration="178.00" routeLength="1331.86" waitingTime="35.00" waitingCount="6" stopTime="0.00" timeLoss="89.93" rerouteNo="0" devices="tripinfo_f_0_1.0" vType="type1" speedFactor="1.05" vaporized=""/>
    <tripinfo id="f_0_1.1" depart="14.00" departLane="np16_nt1_0" departPos="5.05" departSpeed="0.00" departDelay="0.36" arrival="180.00" arrivalLane="nt16_np8_0" arrivalPos="75.00" arrivalSpeed="18.18" duration="166.00" routeLength="1342.83" waitingTime="30.00" waitingCount="2" stopTime="0.00" timeLoss="68.19" rerouteNo="0" devices="tripinfo_f_0_1.1" vType="type1" speedFactor="0.95" vaporized=""/>
    <tripinfo id="f_0_0.2" depart="28.00" departLane="np13_nt13_0" departPos="7.59" departSpeed="0.00" departDelay="0.73" arrival="183.00" arrivalLane="nt4_np5_0" arrivalPos="75.00" arrivalSpeed="17.86" duration="155.00" routeLength="1340.30" waitingTime="28.00" waitingCount="4" stopTime="0.00" timeLoss="54.45" rerouteNo="0" devices="tripinfo_f_0_0.2" vType="type1" speedFactor="0.93" vaporized=""/>
    <tripinfo id="f_0_0.3" depart="41.00" departLane="np13_nt13_0" departPos="0.17" departSpeed="0.00" departDelay="0.09" arrival="189.00" arrivalLane="nt4_np5_0" arrivalPos="75.00" arrivalSpeed="19.28" duration="148.00" routeLength="1347.72" waitingTime="17.00" waitingCount="5" stopTime="0.00" timeLoss="53.33" rerouteNo="0" devices="tripinfo_f_0_0.3" vType="type1" speedFactor="0.98" vaporized=""/>
    <tripinfo id="f_0_0.4" depart="55.00" departLane="np13_nt13_0" departPos="6.30" departSpeed="0.00" departDelay="0.46" arrival="193.00" arrivalLane="nt4_np5_0" arrivalPos="75.00" arrivalSpeed="18.46" duration="138.00" routeLength="1341.59" waitingTime="9.00" waitingCount="3" stopTime="0.00" timeLoss="39.64" rerouteNo="0" devices="tripinfo_f_0_0.4" vType="type1" speedFactor="0.94" vaporized=""/>
    <tripinfo id="f_0_2.4" depart="33.00" departLane="np2_nt2_0" departPos="15.37" departSpeed="0.00" departDelay="0.27" arrival="198.00" arrivalLane="nt15_np10_0" arrivalPos="75.00" arrivalSpeed="10.01" duration="165.00" routeLength="935.71" waitingTime="51.00" waitingCount="5" stopTime="0.00" timeLoss="80.00" rerouteNo="0" devices="tripinfo_f_0_2.4" vType="type1" speedFactor="0.93" vaporized=""/>
    <tripinfo id="f_0_2.5" depart="41.00" departLane="np2_nt2_0" departPos="21.78" departSpeed="0.00" departDelay="0.09" arrival="201.00" arrivalLane="nt15_np10_0" arrivalPos="75.00" arrivalSpeed="9.20" duration="160.00" routeLength="929.30" waitingTime="38.00" waitingCount="5" stopTime="0.00" timeLoss="71.26" rerouteNo="0" devices="tripinfo_f_0_2.5" vType="type1" speedFactor="0.88" vaporized=""/>
    <tripinfo id="f_0_2.6" depart="50.00" departLane="np2_nt2_0" departPos="52.63" departSpeed="0.00" departDelay="0.91" arrival="217.00" arrivalLane="nt15_np10_0" arrivalPos="75.00" arrivalSpeed="9.85" duration="167.00" routeLength="898.45" waitingTime="48.00" waitingCount="8" stopTime="0.00" timeLoss="90.67" rerouteNo="0" devices="tripinfo_f_0_2.6" vType="type1" speedFactor="0.98" vaporized=""/>
    <tripinfo id="f_0_2.7" depart="58.00" departLane="np2_nt2_0" departPos="2.58" departSpeed="0.00" departDelay="0.73" arrival="219.00" arrivalLane="nt15_np10_0" arrivalPos="75.00" arrivalSpeed="11.07" duration="161.00" routeLength="948.50" waitingTime="61.00" waitingCount="5" stopTime="0.00" timeLoss="90.11" rerouteNo="0" devices="tripinfo_f_0_2.7" vType="type1" speedFactor="1.12" vaporized=""/>
    <tripinfo id="f_0_2.8" depart="66.00" departLane="np2_nt2_0" departPos="51.09" departSpeed="0.00" departDelay="0.54" arrival="221.00" arrivalLane="nt15_np10_0" arrivalPos="75.00" arrivalSpeed="11.82" duration="155.00" routeLength="899.99" waitingTime="54.00" waitingCount="5" stopTime="0.00" timeLoss="85.16" rerouteNo="0" devices="tripinfo_f_0_2.8" vType="type1" speedFactor="1.09" vaporized=""/>
    <tripinfo id="f_0_0.5" depart="69.00" departLane="np13_nt13_0" departPos="47.54" departSpeed="0.00" departDelay="0.82" arrival="223.00" arrivalLane="nt4_np5_0" arrivalPos="75.00" arrivalSpeed="20.86" duration="154.00" routeLength="1300.35" waitingTime="37.00" waitingCount="6" stopTime="0.00" timeLoss="68.28" rerouteNo="0" devices="tripinfo_f_0_0.5" vType="type1" speedFactor="1.05" vaporized=""/>
    <tripinfo id="f_0_2.9" depart="74.00" departLane="np2_nt2_0" departPos="62.46" departSpeed="0.00" departDelay="0.36" arrival="223.00" arrivalLane="nt15_np10_0" arrivalPos="75.00" arrivalSpeed="10.90" duration="149.00" routeLength="888.62" waitingTime="53.00" waitingCount="5" stopTime="0.00" timeLoss="80.10" rerouteNo="0" devices="tripinfo_f_0_2.9" vType="type1" speedFactor="1.08" vaporized=""/>
    <tripinfo id="f_0_0.6" depart="82.00" departLane="np13_nt13_0" departPos="14.48" departSpeed="0.00" departDelay="0.18" arrival="229.00" arrivalLane="nt4_np5_0" arrivalPos="75.00" arrivalSpeed="18.42" duration="147.00" routeLength="1333.41" waitingTime="17.00" waitingCount="3" stopTime="0.00" timeLoss="46.49" rerouteNo="0" devices="tripinfo_f_0_0.6" vType="type1" speedFactor="0.93" vaporized=""/>
    <tripinfo id="f_0_1.2" depart="28.00" departLane="np16_nt1_0" departPos="45.94" departSpeed="0.00" departDelay="0.73" arrival="234.00" arrivalLane="nt16_np8_0" arrivalPos="75.00" arrivalSpeed="17.03" duration="206.00" routeLength="1301.94" waitingTime="71.00" waitingCount="6" stopTime="0.00" timeLoss="109.60" rerouteNo="0" devices="tripinfo_f_0_1.2" vType="type1" speedFactor="0.95" vaporized=""/>
    <tripinfo id="f_0_2.10" depart="82.00" departLane="np2_nt2_0" departPos="12.88" departSpeed="0.00" departDelay="0.18" arrival="241.00" arrivalLane="nt15_np10_0" arrivalPos="75.00" arrivalSpeed="11.16" duration="159.00" routeLength="938.20" waitingTime="48.00" waitingCount="6" stopTime="0.00" timeLoss="84.32" rerouteNo="0" devices="tripinfo_f_0_2.10" vType="type1" speedFactor="1.06" vaporized=""/>
    <tripinfo id="f_0_1.3" depart="41.00" departLane="np16_nt1_0" departPos="43.58" departSpeed="0.00" departDelay="0.09" arrival="248.00" arrivalLane="nt16_np8_0" arrivalPos="75.00" arrivalSpeed="21.45" duration="207.00" routeLength="1304.30" waitingTime="72.00" waitingCount="7" stopTime="0.00" timeLoss="122.69" rerouteNo="0" devices="tripinfo_f_0_1.3" vType="type1" speedFactor="1.08" vaporized=""/>
    <tripinfo id="f_0_0.7" depart="96.00" departLane="np13_nt13_0" departPos="51.88" departSpeed="0.00" departDelay="0.55" arrival="248.00" arrivalLane="nt4_np5_0" arrivalPos="75.00" arrivalSpeed="22.36" duration="152.00" routeLength="1296.01" waitingTime="29.00" waitingCount="4" stopTime="0.00" timeLoss="78.11" rerouteNo="0" devices="tripinfo_f_0_0.7" vType="type1" speedFactor="1.23" vaporized=""/>
    <tripinfo id="f_0_3.3" depart="25.00" departLane="np3_nt3_0" departPos="16.82" departSpeed="0.00" departDelay="0.45" arrival="257.00" arrivalLane="nt14_np11_0" arrivalPos="75.00" arrivalSpeed="8.48" duration="232.00" routeLength="934.27" waitingTime="113.00" waitingCount="5" stopTime="0.00" timeLoss="148.80" rerouteNo="0" devices="tripinfo_f_0_3.3" vType="type1" speedFactor="0.94" vaporized=""/>
    <tripinfo id="f_0_3.4" depart="33.00" departLane="np3_nt3_0" departPos="9.00" departSpeed="0.00" departDelay="0.27" arrival="259.00" arrivalLane="nt14_np11_0" arrivalPos="75.00" arrivalSpeed="10.11" duration="226.00" routeLength="942.09" waitingTime="119.00" waitingCount="4" stopTime="0.00" timeLoss="144.31" rerouteNo="0" devices="tripinfo_f_0_3.4" vType="type1" speedFactor="0.97" vaporized=""/>
    <tripinfo id="f_0_2.11" depart="90.00" departLane="np2_nt2_0" departPos="37.06" departSpeed="0.00" departDelay="0.00" arrival="264.00" arrivalLane="nt15_np10_0" arrivalPos="75.00" arrivalSpeed="9.20" duration="174.00" routeLength="914.02" waitingTime="43.00" waitingCount="7" stopTime="0.00" timeLoss="90.12" rerouteNo="0" devices="tripinfo_f_0_2.11" vType="type1" speedFactor="0.92" vaporized=""/>
    <tripinfo id="f_0_2.12" depart="99.00" departLane="np2_nt2_0" departPos="3.62" departSpeed="0.00" departDelay="0.82" arrival="266.00" arrivalLane="nt15_np10_0" arrivalPos="75.00" arrivalSpeed="10.55" duration="167.00" routeLength="947.46" waitingTime="29.00" waitingCount="7" stopTime="0.00" timeLoss="84.18" rerouteNo="0" devices="tripinfo_f_0_2.12" vType="type1" speedFactor="0.97" vaporized=""/>
    <tripinfo id="f_0_3.5" depart="41.00" departLane="np3_nt3_0" departPos="10.93" departSpeed="0.00" departDelay="0.09" arrival="267.00" arrivalLane="nt14_np11_0" arrivalPos="75.00" arrivalSpeed="9.91" duration="226.00" routeLength="940.16" waitingTime="110.00" waitingCount="6" stopTime="0.00" timeLoss="146.88" rerouteNo="0" devices="tripinfo_f_0_3.5" vType="type1" speedFactor="1.00" vaporized=""/>
    <tripinfo id="f_0_3.6" depart="50.00" departLane="np3_nt3_0" departPos="4.71" departSpeed="0.00" departDelay="0.91" arrival="269.00" arrivalLane="nt14_np11_0" arrivalPos="75.00" arrivalSpeed="11.07" duration="219.00" routeLength="946.38" waitingTime="96.00" waitingCount="5" stopTime="0.00" timeLoss="144.01" rerouteNo="0" devices="tripinfo_f_0_3.6" vType="type1" speedFactor="1.07" vaporized=""/>
    <tripinfo id="f_0_2.13" depart="107.00" departLane="np2_nt2_0" departPos="54.78" departSpeed="0.00" departDelay="0.63" arrival="275.00" arrivalLane="nt15_np10_0" arrivalPos="75.00" arrivalSpeed="7.13" duration="168.00" routeLength="896.30" waitingTime="26.00" waitingCount="6" stopTime="0.00" timeLoss="75.82" rerouteNo="0" devices="tripinfo_f_0_2.13" vType="type1" speedFactor="0.81" vaporized=""/>
    <tripinfo id="f_0_3.7" depart="58.00" departLane="np3_nt3_0" departPos="2.48" departSpeed="0.00" departDelay="0.73" arrival="276.00" arrivalLane="nt14_np11_0" arrivalPos="75.00" arrivalSpeed="7.71" duration="218.00" routeLength="948.61" waitingTime="63.00" waitingCount="6" stopTime="0.00" timeLoss="109.30" rerouteNo="0" devices="tripinfo_f_0_3.7" vType="type1" speedFactor="0.74" vaporized=""/>
    <tripinfo id="f_0_3.8" depart="66.00" departLane="np3_nt3_0" departPos="14.32" departSpeed="0.00" departDelay="0.54" arrival="277.00" arrivalLane="nt14_np11_0" arrivalPos="75.00" arrivalSpeed="10.87" duration="211.00" routeLength="936.77" waitingTime="61.00" waitingCount="6" stopTime="0.00" timeLoss="135.17" rerouteNo="0" devices="tripinfo_f_0_3.8" vType="type1" speedFactor="1.03" vaporized=""/>
    <tripinfo id="f_0_2.14" depart="115.00" departLane="np2_nt2_0" departPos="15.12" departSpeed="0.00" departDelay="0.45" arrival="286.00" arrivalLane="nt15_np10_0" arrivalPos="75.00" arrivalSpeed="11.98" duration="171.00" routeLength="935.96" waitingTime="35.00" waitingCount="7" stopTime="0.00" timeLoss="102.48" rerouteNo="0" devices="tripinfo_f_0_2.14" vType="type1" speedFactor="1.15" vaporized=""/>
    <tripinfo id="f_0_3.9" depart="74.00" departLane="np3_nt3_0" departPos="20.32" departSpeed="0.00" departDelay="0.36" arrival="297.00" arrivalLane="nt14_np11_0" arrivalPos="75.00" arrivalSpeed="9.49" duration="223.00" routeLength="930.77" waitingTime="84.00" waitingCount="7" stopTime="0.00" timeLoss="143.52" rerouteNo="0" devices="tripinfo_f_0_3.9" vType="type1" speedFactor="0.98" vaporized=""/>
    <tripinfo id="f_0_3.10" depart="82.00" departLane="np3_nt3_0" departPos="2.73" departSpeed="0.00" departDelay="0.18" arrival="300.00" arrivalLane="nt14_np11_0" arrivalPos="75.00" arrivalSpeed="9.09" duration="218.00" routeLength="948.36" waitingTime="81.00" waitingCount="8" stopTime="0.00" timeLoss="132.36" rerouteNo="0" devices="tripinfo_f_0_3.10" vType="type1" speedFactor="0.93" vaporized=""/>
    <tripinfo id="f_0_3.11" depart="90.00" departLane="np3_nt3_0" departPos="13.07" departSpeed="0.00" departDelay="0.00" arrival="302.00" arrivalLane="nt14_np11_0" arrivalPos="75.00" arrivalSpeed="9.46" duration="212.00" routeLength="938.02" waitingTime="75.00" waitingCount="8" stopTime="0.00" timeLoss="122.33" rerouteNo="0" devices="tripinfo_f_0_3.11" vType="type1" speedFactor="0.88" vaporized=""/>
    <tripinfo id="f_0_0.8" depart="110.00" departLane="np13_nt13_0" departPos="57.94" departSpeed="0.00" departDelay="0.91" arrival="303.00" arrivalLane="nt4_np5_0" arrivalPos="75.00" arrivalSpeed="14.83" duration="193.00" routeLength="1289.95" waitingTime="53.00" waitingCount="4" stopTime="0.00" timeLoss="85.22" rerouteNo="0" devices="tripinfo_f_0_0.8" vType="type1" speedFactor="0.84" vaporized=""/>
    <tripinfo id="f_0_3.12" depart="99.00" departLane="np3_nt3_0" departPos="24.98" departSpeed="0.00" departDelay="0.82" arrival="304.00" arrivalLane="nt14_np11_0" arrivalPos="75.00" arrivalSpeed="10.41" duration="205.00" routeLength="926.11" waitingTime="79.00" waitingCount="7" stopTime="0.00" timeLoss="135.67" rerouteNo="0" devices="tripinfo_f_0_3.12" vType="type1" speedFactor="1.12" vaporized=""/>
    <tripinfo id="f_0_0.9" depart="123.00" departLane="np13_nt13_0" departPos="0.59" departSpeed="0.00" departDelay="0.28" arrival="304.00" arrivalLane="nt4_np5_0" arrivalPos="75.00" arrivalSpeed="19.18" duration="181.00" routeLength="1347.30" waitingTime="42.00" waitingCount="6" stopTime="0.00" timeLoss="90.98" rerouteNo="0" devices="tripinfo_f_0_0.9" vType="type1" speedFactor="1.03" vaporized=""/>
    <tripinfo id="f_0_1.4" depart="55.00" departLane="np16_nt1_0" departPos="48.42" departSpeed="0.00" departDelay="0.46" arrival="306.00" arrivalLane="nt16_np8_0" arrivalPos="75.00" arrivalSpeed="16.58" duration="251.00" routeLength="1299.46" waitingTime="84.00" waitingCount="9" stopTime="0.00" timeLoss="143.88" rerouteNo="0" devices="tripinfo_f_0_1.4" vType="type1" speedFactor="0.85" vaporized=""/>
    <tripinfo id="f_0_1.5" depart="69.00" departLane="np16_nt1_0" departPos="17.07" departSpeed="0.00" departDelay="0.82" arrival="307.00" arrivalLane="nt16_np8_0" arrivalPos="75.00" arrivalSpeed="20.15" duration="238.00" routeLength="1330.81" waitingTime="67.00" waitingCount="7" stopTime="0.00" timeLoss="152.19" rerouteNo="0" devices="tripinfo_f_0_1.5" vType="type1" speedFactor="1.07" vaporized=""/>
    <tripinfo id="f_0_3.13" depart="107.00" departLane="np3_nt3_0" departPos="28.57" departSpeed="0.00" departDelay="0.63" arrival="318.00" arrivalLane="nt14_np11_0" arrivalPos="75.00" arrivalSpeed="8.75" duration="211.00" routeLength="922.52" waitingTime="87.00" waitingCount="8" stopTime="0.00" timeLoss="131.22" rerouteNo="0" devices="tripinfo_f_0_3.13" vType="type1" speedFactor="0.97" vaporized=""/>
    <tripinfo id="f_0_3.14" depart="115.00" departLane="np3_nt3_0" departPos="27.43" departSpeed="0.00" departDelay="0.45" arrival="321.00" arrivalLane="nt14_np11_0" arrivalPos="75.00" arrivalSpeed="7.16" duration="206.00" routeLength="923.66" waitingTime="71.00" waitingCount="7" stopTime="0.00" timeLoss="115.35" rerouteNo="0" devices="tripinfo_f_0_3.14" vType="type1" speedFactor="0.86" vaporized=""/>
    <tripinfo id="f_0_2.15" depart="123.00" departLane="np2_nt2_0" departPos="5.40" departSpeed="0.00" departDelay="0.27" arrival="323.00" arrivalLane="nt15_np10_0" arrivalPos="75.00" arrivalSpeed="9.23" duration="200.00" routeLength="945.68" waitingTime="45.00" waitingCount="6" stopTime="0.00" timeLoss="122.86" rerouteNo="0" devices="tripinfo_f_0_2.15" vType="type1" speedFactor="1.04" vaporized=""/>
    <tripinfo id="f_0_3.15" depart="123.00" departLane="np3_nt3_0" departPos="18.13" departSpeed="0.00" departDelay="0.27" arrival="323.00" arrivalLane="nt14_np11_0" arrivalPos="75.00" arrivalSpeed="11.22" duration="200.00" routeLength="932.96" waitingTime="64.00" waitingCount="7" stopTime="0.00" timeLoss="126.66" rerouteNo="0" devices="tripinfo_f_0_3.15" vType="type1" speedFactor="1.07" vaporized=""/>
    <tripinfo id="f_0_0.10" depart="137.00" departLane="np13_nt13_0" departPos="34.80" departSpeed="0.00" departDelay="0.64" arrival="323.00" arrivalLane="nt4_np5_0" arrivalPos="75.00" arrivalSpeed="20.23" duration="186.00" routeLength="1313.09" waitingTime="47.00" waitingCount="5" stopTime="0.00" timeLoss="96.43" rerouteNo="0" devices="tripinfo_f_0_0.10" vType="type1" speedFactor="1.02" vaporized=""/>
    <tripinfo id="f_0_3.16" depart="131.00" departLane="np3_nt3_0" departPos="13.82" departSpeed="0.00" departDelay="0.09" arrival="324.00" arrivalLane="nt14_np11_0" arrivalPos="75.00" arrivalSpeed="11.27" duration="193.00" routeLength="937.27" waitingTime="73.00" waitingCount="7" stopTime="0.00" timeLoss="117.80" rerouteNo="0" devices="tripinfo_f_0_3.16" vType="type1" speedFactor="1.05" vaporized=""/>
    <tripinfo id="f_0_3.17" depart="140.00" departLane="np3_nt3_0" departPos="9.97" departSpeed="0.00" departDelay="0.91" arrival="327.00" arrivalLane="nt14_np11_0" arrivalPos="75.00" arrivalSpeed="10.13" duration="187.00" routeLength="941.12" waitingTime="58.00" waitingCount="7" stopTime="0.00" timeLoss="110.51" rerouteNo="0" devices="tripinfo_f_0_3.17" vType="type1" speedFactor="1.04" vaporized=""/>
    <tripinfo id="f_0_0.11" depart="150.00" departLane="np13_nt13_0" departPos="45.92" departSpeed="0.00" departDelay="0.00" arrival="327.00" arrivalLane="nt4_np5_0" arrivalPos="75.00" arrivalSpeed="15.93" duration="177.00" routeLength="1301.97" waitingTime="30.00" waitingCount="2" stopTime="0.00" timeLoss="76.83" rerouteNo="0" devices="tripinfo_f_0_0.11" vType="type1" speedFactor="0.90" vaporized=""/>
    <tripinfo id="f_0_3.18" depart="148.00" departLane="np3_nt3_0" departPos="10.83" departSpeed="0.00" departDelay="0.72" arrival="328.00" arrivalLane="nt14_np11_0" arrivalPos="75.00" arrivalSpeed="9.53" duration="180.00" routeLength="940.26" waitingTime="49.00" waitingCount="7" stopTime="0.00" timeLoss="102.74" rerouteNo="0" devices="tripinfo_f_0_3.18" vType="type1" speedFactor="1.01" vaporized=""/>
    <tripinfo id="f_0_3.19" depart="156.00" departLane="np3_nt3_0" departPos="4.39" departSpeed="0.00" departDelay="0.54" arrival="330.00" arrivalLane="nt14_np11_0" arrivalPos="75.00" arrivalSpeed="10.44" duration="174.00" routeLength="946.70" waitingTime="42.00" waitingCount="6" stopTime="0.00" timeLoss="100.71" rerouteNo="0" devices="tripinfo_f_0_3.19" vType="type1" speedFactor="1.08" vaporized=""/>
    <tripinfo id="f_0_2.16" depart="131.00" departLane="np2_nt2_0" departPos="11.38" departSpeed="0.00" departDelay="0.09" arrival="338.00" arrivalLane="nt15_np10_0" arrivalPos="75.00" arrivalSpeed="9.67" duration="207.00" routeLength="939.70" waitingTime="47.00" waitingCount="7" stopTime="0.00" timeLoss="122.25" rerouteNo="0" devices="tripinfo_f_0_2.16" vType="type1" speedFactor="0.94" vaporized=""/>
    <tripinfo id="f_0_3.20" depart="164.00" departLane="np3_nt3_0" departPos="5.11" departSpeed="0.00" departDelay="0.36" arrival="362.00" arrivalLane="nt14_np11_0" arrivalPos="75.00" arrivalSpeed="9.42" duration="198.00" routeLength="945.98" waitingTime="62.00" waitingCount="6" stopTime="0.00" timeLoss="124.41" rerouteNo="0" devices="tripinfo_f_0_3.20" vType="type1" speedFactor="1.08" vaporized=""/>
    <tripinfo id="f_0_0.12" depart="164.00" departLane="np13_nt13_0" departPos="25.30" departSpeed="0.00" departDelay="0.37" arrival="363.00" arrivalLane="nt4_np5_0" arrivalPos="75.00" arrivalSpeed="20.06" duration="199.00" routeLength="1322.59" waitingTime="69.00" waitingCount="7" stopTime="0.00" timeLoss="111.58" rerouteNo="0" devices="tripinfo_f_0_0.12" vType="type1" speedFactor="1.06" vaporized=""/>
    <tripinfo id="f_0_2.17" depart="140.00" departLane="np2_nt2_0" departPos="42.65" departSpeed="0.00" departDelay="0.91" arrival="373.00" arrivalLane="nt15_np10_0" arrivalPos="75.00" arrivalSpeed="7.70" duration="233.00" routeLength="908.43" waitingTime="74.00" waitingCount="8" stopTime="0.00" timeLoss="149.93" rerouteNo="0" devices="tripinfo_f_0_2.17" vType="type1" speedFactor="0.91" vaporized=""/>
    <tripinfo id="f_0_2.18" depart="148.00" departLane="np2_nt2_0" departPos="45.59" departSpeed="0.00" departDelay="0.72" arrival="382.00" arrivalLane="nt15_np10_0" arrivalPos="75.00" arrivalSpeed="8.84" duration="234.00" routeLength="905.49" waitingTime="64.00" waitingCount="7" stopTime="0.00" timeLoss="142.85" rerouteNo="0" devices="tripinfo_f_0_2.18" vType="type1" speedFactor="0.84" vaporized=""/>
    <tripinfo id="f_0_2.19" depart="156.00" departLane="np2_nt2_0" departPos="22.85" departSpeed="0.00" departDelay="0.54" arrival="384.00" arrivalLane="nt15_np10_0" arrivalPos="75.00" arrivalSpeed="10.44" duration="228.00" routeLength="928.23" waitingTime="60.00" waitingCount="6" stopTime="0.00" timeLoss="149.27" rerouteNo="0" devices="tripinfo_f_0_2.19" vType="type1" speedFactor="1.00" vaporized=""/>
    <tripinfo id="f_0_2.20" depart="164.00" departLane="np2_nt2_0" departPos="3.45" departSpeed="0.00" departDelay="0.36" arrival="387.00" arrivalLane="nt15_np10_0" arrivalPos="75.00" arrivalSpeed="9.13" duration="223.00" routeLength="947.63" waitingTime="62.00" waitingCount="9" stopTime="0.00" timeLoss="146.27" rerouteNo="0" devices="tripinfo_f_0_2.20" vType="type1" speedFactor="1.04" vaporized=""/>
    <tripinfo id="f_0_2.21" depart="172.00" departLane="np2_nt2_0" departPos="34.93" departSpeed="0.00" departDelay="0.18" arrival="389.00" arrivalLane="nt15_np10_0" arrivalPos="75.00" arrivalSpeed="11.32" duration="217.00" routeLength="916.15" waitingTime="60.00" waitingCount="6" stopTime="0.00" timeLoss="142.54" rerouteNo="0" devices="tripinfo_f_0_2.21" vType="type1" speedFactor="1.03" vaporized=""/>
    <tripinfo id="f_0_1.6" depart="82.00" departLane="np16_nt1_0" departPos="13.21" departSpeed="0.00" departDelay="0.18" arrival="399.00" arrivalLane="nt16_np8_0" arrivalPos="75.00" arrivalSpeed="14.19" duration="317.00" routeLength="1334.67" waitingTime="118.00" waitingCount="12" stopTime="0.00" timeLoss="205.34" rerouteNo="0" devices="tripinfo_f_0_1.6" vType="type1" speedFactor="0.83" vaporized=""/>
    <tripinfo id="f_0_2.22" depart="180.00" departLane="np2_nt2_0" departPos="4.40" departSpeed="0.00" departDelay="0.00" arrival="407.00" arrivalLane="nt15_np10_0" arrivalPos="75.00" arrivalSpeed="9.95" duration="227.00" routeLength="946.68" waitingTime="67.00" waitingCount="7" stopTime="0.00" timeLoss="144.46" rerouteNo="0" devices="tripinfo_f_0_2.22" vType="type1" speedFactor="0.96" vaporized=""/>
    <tripinfo id="f_0_1.7" depart="96.00" departLane="np16_nt1_0" departPos="4.17" departSpeed="0.00" departDelay="0.55" arrival="408.00" arrivalLane="nt16_np8_0" arrivalPos="75.00" arrivalSpeed="18.41" duration="312.00" routeLength="1343.71" waitingTime="101.00" waitingCount="12" stopTime="0.00" timeLoss="220.14" rerouteNo="0" devices="tripinfo_f_0_1.7" vType="type1" speedFactor="1.01" vaporized=""/>
    <tripinfo id="f_0_1.8" depart="110.00" departLane="np16_nt1_0" departPos="33.26" departSpeed="0.00" departDelay="0.91" arrival="410.00" arrivalLane="nt16_np8_0" arrivalPos="75.00" arrivalSpeed="16.37" duration="300.00" routeLength="1314.62" waitingTime="87.00" waitingCount="11" stopTime="0.00" timeLoss="197.12" rerouteNo="0" devices="tripinfo_f_0_1.8" vType="type1" speedFactor="0.89" vaporized=""/>
    <tripinfo id="f_0_2.23" depart="189.00" departLane="np2_nt2_0" departPos="48.43" departSpeed="0.00" departDelay="0.81" arrival="418.00" arrivalLane="nt15_np10_0" arrivalPos="75.00" arrivalSpeed="8.83" duration="229.00" routeLength="902.65" waitingTime="78.00" waitingCount="9" stopTime="0.00" timeLoss="147.68" rerouteNo="0" devices="tripinfo_f_0_2.23" vType="type1" speedFactor="0.93" vaporized=""/>
    <tripinfo id="f_0_2.24" depart="197.00" departLane="np2_nt2_0" departPos="22.07" departSpeed="0.00" departDelay="0.63" arrival="420.00" arrivalLane="nt15_np10_0" arrivalPos="75.00" arrivalSpeed="9.23" duration="223.00" routeLength="929.01" waitingTime="66.00" waitingCount="9" stopTime="0.00" timeLoss="136.31" rerouteNo="0" devices="tripinfo_f_0_2.24" vType="type1" speedFactor="0.90" vaporized=""/>
    <tripinfo id="f_0_0.13" depart="178.00" departLane="np13_nt13_0" departPos="29.43" departSpeed="0.00" departDelay="0.73" arrival="424.00" arrivalLane="nt4_np5_0" arrivalPos="75.00" arrivalSpeed="21.24" duration="246.00" routeLength="1318.46" waitingTime="124.00" waitingCount="6" stopTime="0.00" timeLoss="160.40" rerouteNo="0" devices="tripinfo_f_0_0.13" vType="type1" speedFactor="1.07" vaporized=""/>
    <tripinfo id="f_0_1.17" depart="232.00" departLane="np16_nt1_0" departPos="36.78" departSpeed="0.00" departDelay="0.19" arrival="433.00" arrivalLane="nt16_np8_0" arrivalPos="75.00" arrivalSpeed="21.17" duration="201.00" routeLength="1311.10" waitingTime="60.00" waitingCount="7" stopTime="0.00" timeLoss="121.15" rerouteNo="0" devices="tripinfo_f_0_1.17" vType="type1" speedFactor="1.15" vaporized=""/>
    <tripinfo id="f_0_1.9" depart="123.00" departLane="np16_nt1_0" departPos="17.47" departSpeed="0.00" departDelay="0.28" arrival="434.00" arrivalLane="nt16_np8_0" arrivalPos="75.00" arrivalSpeed="20.03" duration="311.00" routeLength="1330.41" waitingTime="130.00" waitingCount="10" stopTime="0.00" timeLoss="223.65" rerouteNo="0" devices="tripinfo_f_0_1.9" vType="type1" speedFactor="1.06" vaporized=""/>