<?xml version="1.0" encoding="UTF-8"?>

<!-- generated on 2023-08-23 16:12:32 by Eclipse SUMO libsumo Version 1.18.0
<configuration xmlns:xsi="http://www.w3.org/2001/XMLSchema-instance" xsi:noNamespaceSchemaLocation="http://sumo.dlr.de/xsd/libsumoConfiguration.xsd">

    <input>
        <net-file value="/home/stefan/RESCO/./environments/arterial4x4/arterial4x4.net.xml"/>
        <route-files value="/home/stefan/RESCO/./environments/arterial4x4/arterial4x4_28.rou.xml"/>
    </input>

    <output>
        <tripinfo-output value="/home/stefan/results/IDDQN-tr0-arterial4x4-0-drq_norm-wait_norm/tripinfo_28.xml"/>
        <tripinfo-output.write-unfinished value="true"/>
    </output>

    <processing>
        <time-to-teleport value="-1"/>
    </processing>

    <report>
        <no-warnings value="True"/>
        <no-step-log value="True"/>
    </report>

    <random_number>
        <random value="true"/>
    </random_number>

</configuration>
-->

<tripinfos xmlns:xsi="http://www.w3.org/2001/XMLSchema-instance" xsi:noNamespaceSchemaLocation="http://sumo.dlr.de/xsd/tripinfo_file.xsd">
    <tripinfo id="f_0_2.0" depart="0.00" departLane="np2_nt2_0" departPos="26.04" departSpeed="0.00" departDelay="0.00" arrival="99.00" arrivalLane="nt15_np10_0" arrivalPos="75.00" arrivalSpeed="10.28" duration="99.00" routeLength="925.04" waitingTime="0.00" waitingCount="0" stopTime="0.00" timeLoss="16.23" rerouteNo="0" devices="tripinfo_f_0_2.0" vType="type1" speedFactor="0.94" vaporized=""/>
    <tripinfo id="f_0_3.0" depart="0.00" departLane="np3_nt3_0" departPos="47.62" departSpeed="0.00" departDelay="0.00" arrival="124.00" arrivalLane="nt14_np11_0" arrivalPos="75.00" arrivalSpeed="10.04" duration="124.00" routeLength="903.47" waitingTime="25.00" waitingCount="2" stopTime="0.00" timeLoss="46.35" rerouteNo="0" devices="tripinfo_f_0_3.0" vType="type1" speedFactor="0.97" vaporized=""/>
    <tripinfo id="f_0_1.0" depart="0.00" departLane="np16_nt1_0" departPos="60.56" departSpeed="0.00" departDelay="0.00" arrival="143.00" arrivalLane="nt16_np8_0" arrivalPos="75.00" arrivalSpeed="20.46" duration="143.00" routeLength="1287.32" waitingTime="36.00" waitingCount="3" stopTime="0.00" timeLoss="57.65" rerouteNo="0" devices="tripinfo_f_0_1.0" vType="type1" speedFactor="1.06" vaporized=""/>
    <tripinfo id="f_0_0.0" depart="0.00" departLane="np13_nt13_0" departPos="61.72" departSpeed="0.00" departDelay="0.00" arrival="159.00" arrivalLane="nt4_np5_0" arrivalPos="75.00" arrivalSpeed="16.49" duration="159.00" routeLength="1286.17" waitingTime="34.00" waitingCount="5" stopTime="0.00" timeLoss="62.93" rerouteNo="0" devices="tripinfo_f_0_0.0" vType="type1" speedFactor="0.94" vaporized=""/>
    <tripinfo id="f_0_3.1" depart="9.00" departLane="np3_nt3_0" departPos="21.44" departSpeed="0.00" departDelay="0.82" arrival="172.00" arrivalLane="nt14_np11_0" arrivalPos="75.00" arrivalSpeed="10.88" duration="163.00" routeLength="929.65" waitingTime="60.00" waitingCount="4" stopTime="0.00" timeLoss="87.96" rerouteNo="0" devices="tripinfo_f_0_3.1" vType="type1" speedFactor="1.05" vaporized=""/>
    <tripinfo id="f_0_3.2" depart="17.00" departLane="np3_nt3_0" departPos="11.41" departSpeed="0.00" departDelay="0.64" arrival="184.00" arrivalLane="nt14_np11_0" arrivalPos="75.00" arrivalSpeed="7.94" duration="167.00" routeLength="939.68" waitingTime="41.00" waitingCount="5" stopTime="0.00" timeLoss="77.54" rerouteNo="0" devices="tripinfo_f_0_3.2" vType="type1" speedFactor="0.89" vaporized=""/>
    <tripinfo id="f_0_2.1" depart="9.00" departLane="np2_nt2_0" departPos="58.75" departSpeed="0.00" departDelay="0.82" arrival="186.00" arrivalLane="nt15_np10_0" arrivalPos="75.00" arrivalSpeed="10.49" duration="177.00" routeLength="892.33" waitingTime="78.00" waitingCount="6" stopTime="0.00" timeLoss="108.22" rerouteNo="0" devices="tripinfo_f_0_2.1" vType="type1" speedFactor="1.08" vaporized=""/>
    <tripinfo id="f_0_0.1" depart="14.00" departLane="np13_nt13_0" departPos="10.17" departSpeed="0.00" departDelay="0.36" arrival="189.00" arrivalLane="nt4_np5_0" arrivalPos="75.00" arrivalSpeed="17.04" duration="175.00" routeLength="1337.72" waitingTime="34.00" waitingCount="4" stopTime="0.00" timeLoss="68.65" rerouteNo="0" devices="tripinfo_f_0_0.1" vType="type1" speedFactor="0.87" vaporized=""/>
    <tripinfo id="f_0_1.1" depart="14.00" departLane="np16_nt1_0" departPos="16.75" departSpeed="0.00" departDelay="0.36" arrival="197.00" arrivalLane="nt16_np8_0" arrivalPos="75.00" arrivalSpeed="19.43" duration="183.00" routeLength="1331.13" waitingTime="63.00" waitingCount="5" stopTime="0.00" timeLoss="96.90" rerouteNo="0" devices="tripinfo_f_0_1.1" vType="type1" speedFactor="1.08" vaporized=""/>
    <tripinfo id="f_0_2.2" depart="17.00" departLane="np2_nt2_0" departPos="9.53" departSpeed="0.00" departDelay="0.64" arrival="197.00" arrivalLane="nt15_np10_0" arrivalPos="75.00" arrivalSpeed="10.67" duration="180.00" routeLength="941.55" waitingTime="66.00" waitingCount="9" stopTime="0.00" timeLoss="106.48" rerouteNo="0" devices="tripinfo_f_0_2.2" vType="type1" speedFactor="1.09" vaporized=""/>
    <tripinfo id="f_0_3.3" depart="25.00" departLane="np3_nt3_0" departPos="16.19" departSpeed="0.00" departDelay="0.45" arrival="198.00" arrivalLane="nt14_np11_0" arrivalPos="75.00" arrivalSpeed="8.33" duration="173.00" routeLength="934.90" waitingTime="48.00" waitingCount="6" stopTime="0.00" timeLoss="88.23" rerouteNo="0" devices="tripinfo_f_0_3.3" vType="type1" speedFactor="0.92" vaporized=""/>
    <tripinfo id="f_0_3.4" depart="33.00" departLane="np3_nt3_0" departPos="19.30" departSpeed="0.00" departDelay="0.27" arrival="200.00" arrivalLane="nt14_np11_0" arrivalPos="75.00" arrivalSpeed="9.98" duration="167.00" routeLength="931.79" waitingTime="44.00" waitingCount="6" stopTime="0.00" timeLoss="97.76" rerouteNo="0" devices="tripinfo_f_0_3.4" vType="type1" speedFactor="1.13" vaporized=""/>
    <tripinfo id="f_0_2.3" depart="25.00" departLane="np2_nt2_0" departPos="0.94" departSpeed="0.00" departDelay="0.45" arrival="211.00" arrivalLane="nt15_np10_0" arrivalPos="75.00" arrivalSpeed="11.17" duration="186.00" routeLength="950.14" waitingTime="71.00" waitingCount="9" stopTime="0.00" timeLoss="116.67" rerouteNo="0" devices="tripinfo_f_0_2.3" vType="type1" speedFactor="1.14" vaporized=""/>
    <tripinfo id="f_0_2.4" depart="33.00" departLane="np2_nt2_0" departPos="54.44" departSpeed="0.00" departDelay="0.27" arrival="216.00" arrivalLane="nt15_np10_0" arrivalPos="75.00" arrivalSpeed="8.05" duration="183.00" routeLength="896.64" waitingTime="49.00" waitingCount="8" stopTime="0.00" timeLoss="96.59" rerouteNo="0" devices="tripinfo_f_0_2.4" vType="type1" speedFactor="0.87" vaporized=""/>
    <tripinfo id="f_0_0.2" depart="28.00" departLane="np13_nt13_0" departPos="13.80" departSpeed="0.00" departDelay="0.73" arrival="223.00" arrivalLane="nt4_np5_0" arrivalPos="75.00" arrivalSpeed="23.19" duration="195.00" routeLength="1334.09" waitingTime="51.00" waitingCount="4" stopTime="0.00" timeLoss="121.77" rerouteNo="0" devices="tripinfo_f_0_0.2" vType="type1" speedFactor="1.27" vaporized=""/>
    <tripinfo id="f_0_0.3" depart="41.00" departLane="np13_nt13_0" departPos="54.32" departSpeed="0.00" departDelay="0.09" arrival="225.00" arrivalLane="nt4_np5_0" arrivalPos="75.00" arrivalSpeed="17.49" duration="184.00" routeLength="1293.57" waitingTime="50.00" waitingCount="4" stopTime="0.00" timeLoss="84.87" rerouteNo="0" devices="tripinfo_f_0_0.3" vType="type1" speedFactor="0.91" vaporized=""/>
    <tripinfo id="f_0_3.5" depart="41.00" departLane="np3_nt3_0" departPos="24.52" departSpeed="0.00" departDelay="0.09" arrival="227.00" arrivalLane="nt14_np11_0" arrivalPos="75.00" arrivalSpeed="10.28" duration="186.00" routeLength="926.57" waitingTime="60.00" waitingCount="8" stopTime="0.00" timeLoss="110.16" rerouteNo="0" devices="tripinfo_f_0_3.5" vType="type1" speedFactor="1.02" vaporized=""/>
    <tripinfo id="f_0_0.4" depart="55.00" departLane="np13_nt13_0" departPos="31.19" departSpeed="0.00" departDelay="0.46" arrival="227.00" arrivalLane="nt4_np5_0" arrivalPos="75.00" arrivalSpeed="18.22" duration="172.00" routeLength="1316.70" waitingTime="38.00" waitingCount="5" stopTime="0.00" timeLoss="72.83" rerouteNo="0" devices="tripinfo_f_0_0.4" vType="type1" speedFactor="0.93" vaporized=""/>
    <tripinfo id="f_0_2.5" depart="41.00" departLane="np2_nt2_0" departPos="9.51" departSpeed="0.00" departDelay="0.09" arrival="229.00" arrivalLane="nt15_np10_0" arrivalPos="75.00" arrivalSpeed="10.25" duration="188.00" routeLength="941.57" waitingTime="38.00" waitingCount="7" stopTime="0.00" timeLoss="108.37" rerouteNo="0" devices="tripinfo_f_0_2.5" vType="type1" speedFactor="1.00" vaporized=""/>
    <tripinfo id="f_0_2.6" depart="50.00" departLane="np2_nt2_0" departPos="18.08" departSpeed="0.00" departDelay="0.91" arrival="230.00" arrivalLane="nt15_np10_0" arrivalPos="75.00" arrivalSpeed="10.67" duration="180.00" routeLength="933.00" waitingTime="28.00" waitingCount="7" stopTime="0.00" timeLoss="110.81" rerouteNo="0" devices="tripinfo_f_0_2.6" vType="type1" speedFactor="1.12" vaporized=""/>
    <tripinfo id="f_0_3.6" depart="50.00" departLane="np3_nt3_0" departPos="12.42" departSpeed="0.00" departDelay="0.91" arrival="233.00" arrivalLane="nt14_np11_0" arrivalPos="75.00" arrivalSpeed="7.57" duration="183.00" routeLength="938.67" waitingTime="40.00" waitingCount="4" stopTime="0.00" timeLoss="77.35" rerouteNo="0" devices="tripinfo_f_0_3.6" vType="type1" speedFactor="0.75" vaporized=""/>
    <tripinfo id="f_0_2.7" depart="58.00" departLane="np2_nt2_0" departPos="36.65" departSpeed="0.00" departDelay="0.73" arrival="233.00" arrivalLane="nt15_np10_0" arrivalPos="75.00" arrivalSpeed="9.36" duration="175.00" routeLength="914.43" waitingTime="15.00" waitingCount="6" stopTime="0.00" timeLoss="94.10" rerouteNo="0" devices="tripinfo_f_0_2.7" vType="type1" speedFactor="0.95" vaporized=""/>
    <tripinfo id="f_0_1.2" depart="28.00" departLane="np16_nt1_0" departPos="26.25" departSpeed="0.00" departDelay="0.73" arrival="234.00" arrivalLane="nt16_np8_0" arrivalPos="75.00" arrivalSpeed="16.11" duration="206.00" routeLength="1321.63" waitingTime="39.00" waitingCount="8" stopTime="0.00" timeLoss="98.90" rerouteNo="0" devices="tripinfo_f_0_1.2" vType="type1" speedFactor="0.86" vaporized=""/>
    <tripinfo id="f_0_1.3" depart="41.00" departLane="np16_nt1_0" departPos="49.20" departSpeed="0.00" departDelay="0.09" arrival="235.00" arrivalLane="nt16_np8_0" arrivalPos="75.00" arrivalSpeed="18.21" duration="194.00" routeLength="1298.68" waitingTime="34.00" waitingCount="7" stopTime="0.00" timeLoss="101.80" rerouteNo="0" devices="tripinfo_f_0_1.3" vType="type1" speedFactor="0.98" vaporized=""/>
    <tripinfo id="f_0_3.7" depart="58.00" departLane="np3_nt3_0" departPos="14.06" departSpeed="0.00" departDelay="0.73" arrival="235.00" arrivalLane="nt14_np11_0" arrivalPos="75.00" arrivalSpeed="11.00" duration="177.00" routeLength="937.03" waitingTime="33.00" waitingCount="5" stopTime="0.00" timeLoss="113.70" rerouteNo="0" devices="tripinfo_f_0_3.7" vType="type1" speedFactor="1.24" vaporized=""/>
    <tripinfo id="f_0_3.8" depart="66.00" departLane="np3_nt3_0" departPos="3.02" departSpeed="0.00" departDelay="0.54" arrival="237.00" arrivalLane="nt14_np11_0" arrivalPos="75.00" arrivalSpeed="7.72" duration="171.00" routeLength="948.07" waitingTime="40.00" waitingCount="4" stopTime="0.00" timeLoss="77.65" rerouteNo="0" devices="tripinfo_f_0_3.8" vType="type1" speedFactor="0.85" vaporized=""/>
    <tripinfo id="f_0_3.9" depart="74.00" departLane="np3_nt3_0" departPos="0.00" departSpeed="0.00" departDelay="0.36" arrival="239.00" arrivalLane="nt14_np11_0" arrivalPos="75.00" arrivalSpeed="9.39" duration="165.00" routeLength="951.09" waitingTime="38.00" waitingCount="5" stopTime="0.00" timeLoss="80.26" rerouteNo="0" devices="tripinfo_f_0_3.9" vType="type1" speedFactor="0.94" vaporized=""/>
    <tripinfo id="f_0_2.8" depart="66.00" departLane="np2_nt2_0" departPos="47.03" departSpeed="0.00" departDelay="0.54" arrival="247.00" arrivalLane="nt15_np10_0" arrivalPos="75.00" arrivalSpeed="10.33" duration="181.00" routeLength="904.05" waitingTime="20.00" waitingCount="4" stopTime="0.00" timeLoss="107.90" rerouteNo="0" devices="tripinfo_f_0_2.8" vType="type1" speedFactor="1.03" vaporized=""/>
    <tripinfo id="f_0_0.5" depart="69.00" departLane="np13_nt13_0" departPos="13.79" departSpeed="0.00" departDelay="0.82" arrival="252.00" arrivalLane="nt4_np5_0" arrivalPos="75.00" arrivalSpeed="16.04" duration="183.00" routeLength="1334.10" waitingTime="44.00" waitingCount="5" stopTime="0.00" timeLoss="82.13" rerouteNo="0" devices="tripinfo_f_0_0.5" vType="type1" speedFactor="0.91" vaporized=""/>
    <tripinfo id="f_0_1.4" depart="55.00" departLane="np16_nt1_0" departPos="12.60" departSpeed="0.00" departDelay="0.46" arrival="259.00" arrivalLane="nt16_np8_0" arrivalPos="75.00" arrivalSpeed="18.00" duration="204.00" routeLength="1335.28" waitingTime="27.00" waitingCount="7" stopTime="0.00" timeLoss="113.10" rerouteNo="0" devices="tripinfo_f_0_1.4" vType="type1" speedFactor="1.02" vaporized=""/>
    <tripinfo id="f_0_0.6" depart="82.00" departLane="np13_nt13_0" departPos="38.31" departSpeed="0.00" departDelay="0.18" arrival="268.00" arrivalLane="nt4_np5_0" arrivalPos="75.00" arrivalSpeed="17.50" duration="186.00" routeLength="1309.58" waitingTime="39.00" waitingCount="7" stopTime="0.00" timeLoss="89.21" rerouteNo="0" devices="tripinfo_f_0_0.6" vType="type1" speedFactor="0.95" vaporized=""/>
    <tripinfo id="f_0_2.9" depart="74.00" departLane="np2_nt2_0" departPos="5.32" departSpeed="0.00" departDelay="0.36" arrival="271.00" arrivalLane="nt15_np10_0" arrivalPos="75.00" arrivalSpeed="10.77" duration="197.00" routeLength="945.76" waitingTime="35.00" waitingCount="6" stopTime="0.00" timeLoss="125.93" rerouteNo="0" devices="tripinfo_f_0_2.9" vType="type1" speedFactor="1.13" vaporized=""/>
    <tripinfo id="f_0_2.10" depart="82.00" departLane="np2_nt2_0" departPos="19.94" departSpeed="0.00" departDelay="0.18" arrival="274.00" arrivalLane="nt15_np10_0" arrivalPos="75.00" arrivalSpeed="9.03" duration="192.00" routeLength="931.14" waitingTime="45.00" waitingCount="5" stopTime="0.00" timeLoss="114.92" rerouteNo="0" devices="tripinfo_f_0_2.10" vType="type1" speedFactor="1.02" vaporized=""/>
    <tripinfo id="f_0_3.10" depart="82.00" departLane="np3_nt3_0" departPos="22.69" departSpeed="0.00" departDelay="0.18" arrival="274.00" arrivalLane="nt14_np11_0" arrivalPos="75.00" arrivalSpeed="9.11" duration="192.00" routeLength="928.40" waitingTime="57.00" waitingCount="7" stopTime="0.00" timeLoss="98.48" rerouteNo="0" devices="tripinfo_f_0_3.10" vType="type1" speedFactor="0.83" vaporized=""/>
    <tripinfo id="f_0_3.11" depart="90.00" departLane="np3_nt3_0" departPos="17.53" departSpeed="0.00" departDelay="0.00" arrival="276.00" arrivalLane="nt14_np11_0" arrivalPos="75.00" arrivalSpeed="12.17" duration="186.00" routeLength="933.56" waitingTime="60.00" waitingCount="7" stopTime="0.00" timeLoss="119.54" rerouteNo="0" devices="tripinfo_f_0_3.11" vType="type1" speedFactor="1.19" vaporized=""/>
    <tripinfo id="f_0_0.7" depart="96.00" departLane="np13_nt13_0" departPos="27.19" departSpeed="0.00" departDelay="0.55" arrival="284.00" arrivalLane="nt4_np5_0" arrivalPos="75.00" arrivalSpeed="17.76" duration="188.00" routeLength="1320.70" waitingTime="43.00" waitingCount="5" stopTime="0.00" timeLoss="92.20" rerouteNo="0" devices="tripinfo_f_0_0.7" vType="type1" speedFactor="0.96" vaporized=""/>
    <tripinfo id="f_0_2.11" depart="90.00" departLane="np2_nt2_0" departPos="52.75" departSpeed="0.00" departDelay="0.00" arrival="286.00" arrivalLane="nt15_np10_0" arrivalPos="75.00" arrivalSpeed="9.24" duration="196.00" routeLength="898.33" waitingTime="51.00" waitingCount="8" stopTime="0.00" timeLoss="119.72" rerouteNo="0" devices="tripinfo_f_0_2.11" vType="type1" speedFactor="0.99" vaporized=""/>
    <tripinfo id="f_0_2.12" depart="99.00" departLane="np2_nt2_0" departPos="8.96" departSpeed="0.00" departDelay="0.82" arrival="288.00" arrivalLane="nt15_np10_0" arrivalPos="75.00" arrivalSpeed="10.78" duration="189.00" routeLength="942.12" waitingTime="47.00" waitingCount="8" stopTime="0.00" timeLoss="108.76" rerouteNo="0" devices="tripinfo_f_0_2.12" vType="type1" speedFactor="0.99" vaporized=""/>
    <tripinfo id="f_0_1.5" depart="69.00" departLane="np16_nt1_0" departPos="26.79" departSpeed="0.00" departDelay="0.82" arrival="293.00" arrivalLane="nt16_np8_0" arrivalPos="75.00" arrivalSpeed="19.28" duration="224.00" routeLength="1321.09" waitingTime="54.00" waitingCount="9" stopTime="0.00" timeLoss="135.24" rerouteNo="0" devices="tripinfo_f_0_1.5" vType="type1" speedFactor="1.03" vaporized=""/>
    <tripinfo id="f_0_1.6" depart="82.00" departLane="np16_nt1_0" departPos="10.32" departSpeed="0.00" departDelay="0.18" arrival="294.00" arrivalLane="nt16_np8_0" arrivalPos="75.00" arrivalSpeed="18.58" duration="212.00" routeLength="1337.56" waitingTime="45.00" waitingCount="7" stopTime="0.00" timeLoss="116.06" rerouteNo="0" devices="tripinfo_f_0_1.6" vType="type1" speedFactor="0.97" vaporized=""/>
    <tripinfo id="f_0_3.12" depart="99.00" departLane="np3_nt3_0" departPos="21.80" departSpeed="0.00" departDelay="0.82" arrival="299.00" arrivalLane="nt14_np11_0" arrivalPos="75.00" arrivalSpeed="6.93" duration="200.00" routeLength="929.29" waitingTime="72.00" waitingCount="6" stopTime="0.00" timeLoss="108.89" rerouteNo="0" devices="tripinfo_f_0_3.12" vType="type1" speedFactor="0.86" vaporized=""/>
    <tripinfo id="f_0_0.8" depart="110.00" departLane="np13_nt13_0" departPos="50.39" departSpeed="0.00" departDelay="0.91" arrival="299.00" arrivalLane="nt4_np5_0" arrivalPos="75.00" arrivalSpeed="15.69" duration="189.00" routeLength="1297.50" waitingTime="46.00" waitingCount="7" stopTime="0.00" timeLoss="80.20" rerouteNo="0" devices="tripinfo_f_0_0.8" vType="type1" speedFactor="0.83" vaporized=""/>
    <tripinfo id="f_0_0.9" depart="123.00" departLane="np13_nt13_0" departPos="55.80" departSpeed="0.00" departDelay="0.28" arrival="300.00" arrivalLane="nt4_np5_0" arrivalPos="75.00" arrivalSpeed="17.53" duration="177.00" routeLength="1292.09" waitingTime="28.00" waitingCount="4" stopTime="0.00" timeLoss="85.74" rerouteNo="0" devices="tripinfo_f_0_0.9" vType="type1" speedFactor="0.99" vaporized=""/>
    <tripinfo id="f_0_3.13" depart="107.00" departLane="np3_nt3_0" departPos="16.43" departSpeed="0.00" departDelay="0.63" arrival="301.00" arrivalLane="nt14_np11_0" arrivalPos="75.00" arrivalSpeed="9.76" duration="194.00" routeLength="934.66" waitingTime="64.00" waitingCount="6" stopTime="0.00" timeLoss="121.20" rerouteNo="0" devices="tripinfo_f_0_3.13" vType="type1" speedFactor="1.09" vaporized=""/>
    <tripinfo id="f_0_3.14" depart="115.00" departLane="np3_nt3_0" departPos="16.85" departSpeed="0.00" departDelay="0.45" arrival="302.00" arrivalLane="nt14_np11_0" arrivalPos="75.00" arrivalSpeed="11.74" duration="187.00" routeLength="934.24" waitingTime="55.00" waitingCount="6" stopTime="0.00" timeLoss="117.95" rerouteNo="0" devices="tripinfo_f_0_3.14" vType="type1" speedFactor="1.13" vaporized=""/>
    <tripinfo id="f_0_0.10" depart="137.00" departLane="np13_nt13_0" departPos="22.66" departSpeed="0.00" departDelay="0.64" arrival="302.00" arrivalLane="nt4_np5_0" arrivalPos="75.00" arrivalSpeed="15.69" duration="165.00" routeLength="1325.23" waitingTime="20.00" waitingCount="3" stopTime="0.00" timeLoss="61.21" rerouteNo="0" devices="tripinfo_f_0_0.10" vType="type1" speedFactor="0.89" vaporized=""/>
    <tripinfo id="f_0_3.15" depart="123.00" departLane="np3_nt3_0" departPos="26.41" departSpeed="0.00" departDelay="0.27" arrival="305.00" arrivalLane="nt14_np11_0" arrivalPos="75.00" arrivalSpeed="9.58" duration="182.00" routeLength="924.68" waitingTime="52.00" waitingCount="7" stopTime="0.00" timeLoss="104.42" rerouteNo="0" devices="tripinfo_f_0_3.15" vType="type1" speedFactor="1.01" vaporized=""/>
    <tripinfo id="f_0_2.13" depart="107.00" departLane="np2_nt2_0" departPos="41.56" departSpeed="0.00" departDelay="0.63" arrival="324.00" arrivalLane="nt15_np10_0" arrivalPos="75.00" arrivalSpeed="8.85" duration="217.00" routeLength="909.52" waitingTime="80.00" waitingCount="9" stopTime="0.00" timeLoss="134.96" rerouteNo="0" devices="tripinfo_f_0_2.13" vType="type1" speedFactor="0.93" vaporized=""/>
    <tripinfo id="f_0_2.14" depart="115.00" departLane="np2_nt2_0" departPos="13.17" departSpeed="0.00" departDelay="0.45" arrival="325.00" arrivalLane="nt15_np10_0" arrivalPos="75.00" arrivalSpeed="10.06" duration="210.00" routeLength="937.91" waitingTime="76.00" waitingCount="5" stopTime="0.00" timeLoss="132.78" rerouteNo="0" devices="tripinfo_f_0_2.14" vType="type1" speedFactor="1.02" vaporized=""/>
    <tripinfo id="f_0_3.16" depart="131.00" departLane="np3_nt3_0" departPos="4.91" departSpeed="0.00" departDelay="0.09" arrival="329.00" arrivalLane="nt14_np11_0" arrivalPos="75.00" arrivalSpeed="8.98" duration="198.00" routeLength="946.18" waitingTime="59.00" waitingCount="6" stopTime="0.00" timeLoss="104.25" rerouteNo="0" devices="tripinfo_f_0_3.16" vType="type1" speedFactor="0.86" vaporized=""/>
    <tripinfo id="f_0_3.17" depart="140.00" departLane="np3_nt3_0" departPos="22.90" departSpeed="0.00" departDelay="0.91" arrival="336.00" arrivalLane="nt14_np11_0" arrivalPos="75.00" arrivalSpeed="10.17" duration="196.00" routeLength="928.19" waitingTime="69.00" waitingCount="6" stopTime="0.00" timeLoss="125.84" rerouteNo="0" devices="tripinfo_f_0_3.17" vType="type1" speedFactor="1.11" vaporized=""/>
    <tripinfo id="f_0_3.18" depart="148.00" departLane="np3_nt3_0" departPos="1.34" departSpeed="0.00" departDelay="0.72" arrival="338.00" arrivalLane="nt14_np11_0" arrivalPos="75.00" arrivalSpeed="11.33" duration="190.00" routeLength="949.75" waitingTime="72.00" waitingCount="8" stopTime="0.00" timeLoss="117.11" rerouteNo="0" devices="tripinfo_f_0_3.18" vType="type1" speedFactor="1.09" vaporized=""/>
    <tripinfo id="f_0_2.15" depart="123.00" departLane="np2_nt2_0" departPos="19.66" departSpeed="0.00" departDelay="0.27" arrival="345.00" arrivalLane="nt15_np10_0" arrivalPos="75.00" arrivalSpeed="7.78" duration="222.00" routeLength="931.42" waitingTime="80.00" waitingCount="8" stopTime="0.00" timeLoss="125.91" rerouteNo="0" devices="tripinfo_f_0_2.15" vType="type1" speedFactor="0.82" vaporized=""/>
    <tripinfo id="f_0_3.19" depart="156.00" departLane="np3_nt3_0" departPos="7.74" departSpeed="0.00" departDelay="0.54" arrival="354.00" arrivalLane="nt14_np11_0" arrivalPos="75.00" arrivalSpeed="7.24" duration="198.00" routeLength="943.35" waitingTime="62.00" waitingCount="9" stopTime="0.00" timeLoss="108.21" rerouteNo="0" devices="tripinfo_f_0_3.19" vType="type1" speedFactor="0.88" vaporized=""/>
    <tripinfo id="f_0_3.20" depart="164.00" departLane="np3_nt3_0" departPos="0.00" departSpeed="0.00" departDelay="0.36" arrival="356.00" arrivalLane="nt14_np11_0" arrivalPos="75.00" arrivalSpeed="8.30" duration="192.00" routeLength="951.09" waitingTime="49.00" waitingCount="7" stopTime="0.00" timeLoss="98.31" rerouteNo="0" devices="tripinfo_f_0_3.20" vType="type1" speedFactor="0.85" vaporized=""/>
    <tripinfo id="f_0_3.21" depart="172.00" departLane="np3_nt3_0" departPos="25.29" departSpeed="0.00" departDelay="0.18" arrival="358.00" arrivalLane="nt14_np11_0" arrivalPos="75.00" arrivalSpeed="10.14" duration="186.00" routeLength="925.80" waitingTime="44.00" waitingCount="7" stopTime="0.00" timeLoss="110.80" rerouteNo="0" devices="tripinfo_f_0_3.21" vType="type1" speedFactor="1.03" vaporized=""/>
    <tripinfo id="f_0_3.22" depart="180.00" departLane="np3_nt3_0" departPos="3.85" departSpeed="0.00" departDelay="0.00" arrival="360.00" arrivalLane="nt14_np11_0" arrivalPos="75.00" arrivalSpeed="13.77" duration="180.00" routeLength="947.24" waitingTime="36.00" waitingCount="7" stopTime="0.00" timeLoss="116.67" rerouteNo="0" devices="tripinfo_f_0_3.22" vType="type1" speedFactor="1.26" vaporized=""/>
    <tripinfo id="f_0_2.16" depart="131.00" departLane="np2_nt2_0" departPos="10.90" departSpeed="0.00" departDelay="0.09" arrival="362.00" arrivalLane="nt15_np10_0" arrivalPos="75.00" arrivalSpeed="11.61" duration="231.00" routeLength="940.18" waitingTime="87.00" waitingCount="10" stopTime="0.00" timeLoss="157.49" rerouteNo="0" devices="tripinfo_f_0_2.16" vType="type1" speedFactor="1.09" vaporized=""/>
    <tripinfo id="f_0_3.23" depart="189.00" departLane="np3_nt3_0" departPos="22.04" departSpeed="0.00" departDelay="0.81" arrival="362.00" arrivalLane="nt14_np11_0" arrivalPos="75.00" arrivalSpeed="8.46" duration="173.00" routeLength="929.05" waitingTime="38.00" waitingCount="4" stopTime="0.00" timeLoss="93.75" rerouteNo="0" devices="tripinfo_f_0_3.23" vType="type1" speedFactor="0.98" vaporized=""/>
    <tripinfo id="f_0_1.7" depart="96.00" departLane="np16_nt1_0" departPos="41.52" departSpeed="0.00" departDelay="0.55" arrival="364.00" arrivalLane="nt16_np8_0" arrivalPos="75.00" arrivalSpeed="18.86" duration="268.00" routeLength="1306.36" waitingTime="113.00" waitingCount="9" stopTime="0.00" timeLoss="173.21" rerouteNo="0" devices="tripinfo_f_0_1.7" vType="type1" speedFactor="0.97" vaporized=""/>
    <tripinfo id="f_0_3.24" depart="197.00" departLane="np3_nt3_0" departPos="8.73" departSpeed="0.00" departDelay="0.63" arrival="364.00" arrivalLane="nt14_np11_0" arrivalPos="75.00" arrivalSpeed="9.78" duration="167.00" routeLength="942.36" waitingTime="41.00" waitingCount="7" stopTime="0.00" timeLoss="88.31" rerouteNo="0" devices="tripinfo_f_0_3.24" vType="type1" speedFactor="1.00" vaporized=""/>
    <tripinfo id="f_0_1.8" depart="110.00" departLane="np16_nt1_0" departPos="39.01" departSpeed="0.00" departDelay="0.91" arrival="365.00" arrivalLane="nt16_np8_0" arrivalPos="75.00" arrivalSpeed="22.15" duration="255.00" routeLength="1308.87" waitingTime="91.00" waitingCount="10" stopTime="0.00" timeLoss="174.54" rerouteNo="0" devices="tripinfo_f_0_1.8" vType="type1" speedFactor="1.14" vaporized=""/>
    <tripinfo id="f_0_3.25" depart="205.00" departLane="np3_nt3_0" departPos="2.85" departSpeed="0.00" departDelay="0.45" arrival="372.00" arrivalLane="nt14_np11_0" arrivalPos="75.00" arrivalSpeed="10.66" duration="167.00" routeLength="948.24" waitingTime="44.00" waitingCount="8" stopTime="0.00" timeLoss="92.86" rerouteNo="0" devices="tripinfo_f_0_3.25" vType="type1" speedFactor="1.08" vaporized=""/>
    <tripinfo id="f_0_2.17" depart="140.00" departLane="np2_nt2_0" departPos="28.02" departSpeed="0.00" departDelay="0.91" arrival="373.00" arrivalLane="nt15_np10_0" arrivalPos="75.00" arrivalSpeed="7.98" duration="233.00" routeLength="923.06" waitingTime="82.00" waitingCount="11" stopTime="0.00" timeLoss="146.98" rerouteNo="0" devices="tripinfo_f_0_2.17" vType="type1" speedFactor="0.90" vaporized=""/>
    <tripinfo id="f_0_3.26" depart="213.00" departLane="np3_nt3_0" departPos="10.47" departSpeed="0.00" departDelay="0.27" arrival="374.00" arrivalLane="nt14_np11_0" arrivalPos="75.00" arrivalSpeed="10.56" duration="161.00" routeLength="940.62" waitingTime="43.00" waitingCount="6" stopTime="0.00" timeLoss="80.93" rerouteNo="0" devices="tripinfo_f_0_3.26" vType="type1" speedFactor="0.99" vaporized=""/>
    <tripinfo id="f_0_1.9" depart="123.00" departLane="np16_nt1_0" departPos="5.79" departSpeed="0.00" departDelay="0.28" arrival="387.00" arrivalLane="nt16_np8_0" arrivalPos="75.00" arrivalSpeed="16.45" duration="264.00" routeLength="1342.09" waitingTime="86.00" waitingCount="14" stopTime="0.00" timeLoss="156.63" rerouteNo="0" devices="tripinfo_f_0_1.9" vType="type1" speedFactor="0.86" vaporized=""/>
    <tripinfo id="f_0_0.11" depart="150.00" departLane="np13_nt13_0" departPos="27.85" departSpeed="0.00" departDelay="0.00" arrival="387.00" arrivalLane="nt4_np5_0" arrivalPos="75.00" arrivalSpeed="18.29" duration="237.00" routeLength="1320.04" waitingTime="110.00" waitingCount="5" stopTime="0.00" timeLoss="139.60" rerouteNo="0" devices="tripinfo_f_0_0.11" vType="type1" speedFactor="0.95" vaporized=""/>
    <tripinfo id="f_0_2.18" depart="148.00" departLane="np2_nt2_0" departPos="9.80" departSpeed="0.00" departDelay="0.72" arrival="392.00" arrivalLane="nt15_np10_0" arrivalPos="75.00" arrivalSpeed="10.36" duration="244.00" routeLength="941.28" waitingTime="76.00" waitingCount="14" stopTime="0.00" timeLoss="171.50" rerouteNo="0" devices="tripinfo_f_0_2.18" vType="type1" speedFactor="1.09" vaporized=""/>
    <tripinfo id="f_0_2.19" depart="156.00" departLane="np2_nt2_0" departPos="13.87" departSpeed="0.00" departDelay="0.54" arrival="394.00" arrivalLane="nt15_np10_0" arrivalPos="75.00" arrivalSpeed="9.60" duration="238.00" routeLength="937.21" waitingTime="100.00" waitingCount="9" stopTime="0.00" timeLoss="163.62" rerouteNo="0" devices="tripinfo_f_0_2.19" vType="type1" speedFactor="1.06" vaporized=""/>
    <tripinfo id="f_0_0.12" depart="164.00" departLane="np13_nt13_0" departPos="20.07" departSpeed="0.00" departDelay="0.37" arrival="399.00" arrivalLane="nt4_np5_0" arrivalPos="75.00" arrivalSpeed="21.72" duration="235.00" routeLength="1327.82" waitingTime="106.00" waitingCount="7" stopTime="0.00" timeLoss="153.08" rerouteNo="0" devices="tripinfo_f_0_0.12" vType="type1" speedFactor="1.12" vaporized=""/>
    <tripinfo id="f_0_2.20" depart="164.00" departLane="np2_nt2_0" departPos="20.93" departSpeed="0.00" departDelay="0.36" arrival="399.00" arrivalLane="nt15_np10_0" arrivalPos="75.00" arrivalSpeed="9.88" duration="235.00" routeLength="930.15" waitingTime="88.00" waitingCount="7" stopTime="0.00" timeLoss="151.37" rerouteNo="0" devices="tripinfo_f_0_2.20" vType="type1" speedFactor="0.94" vaporized=""/>