<?xml version="1.0" encoding="UTF-8"?>

<!-- generated on 2023-08-23 16:14:13 by Eclipse SUMO libsumo Version 1.18.0
<configuration xmlns:xsi="http://www.w3.org/2001/XMLSchema-instance" xsi:noNamespaceSchemaLocation="http://sumo.dlr.de/xsd/libsumoConfiguration.xsd">

    <input>
        <net-file value="/home/stefan/RESCO/./environments/arterial4x4/arterial4x4.net.xml"/>
        <route-files value="/home/stefan/RESCO/./environments/arterial4x4/arterial4x4_30.rou.xml"/>
    </input>

    <output>
        <tripinfo-output value="/home/stefan/results/IDDQN-tr0-arterial4x4-0-drq_norm-wait_norm/tripinfo_30.xml"/>
        <tripinfo-output.write-unfinished value="true"/>
    </output>

    <processing>
        <time-to-teleport value="-1"/>
    </processing>

    <report>
        <no-warnings value="True"/>
        <no-step-log value="True"/>
    </report>

    <random_number>
        <random value="true"/>
    </random_number>

</configuration>
-->

<tripinfos xmlns:xsi="http://www.w3.org/2001/XMLSchema-instance" xsi:noNamespaceSchemaLocation="http://sumo.dlr.de/xsd/tripinfo_file.xsd">
    <tripinfo id="f_0_3.0" depart="0.00" departLane="np3_nt3_0" departPos="6.80" departSpeed="0.00" departDelay="0.00" arrival="107.00" arrivalLane="nt14_np11_0" arrivalPos="75.00" arrivalSpeed="8.97" duration="107.00" routeLength="944.29" waitingTime="9.00" waitingCount="3" stopTime="0.00" timeLoss="29.75" rerouteNo="0" devices="tripinfo_f_0_3.0" vType="type1" speedFactor="1.02" vaporized=""/>
    <tripinfo id="f_0_2.0" depart="0.00" departLane="np2_nt2_0" departPos="59.68" departSpeed="0.00" departDelay="0.00" arrival="130.00" arrivalLane="nt15_np10_0" arrivalPos="75.00" arrivalSpeed="9.68" duration="130.00" routeLength="891.40" waitingTime="23.00" waitingCount="3" stopTime="0.00" timeLoss="45.32" rerouteNo="0" devices="tripinfo_f_0_2.0" vType="type1" speedFactor="0.88" vaporized=""/>
    <tripinfo id="f_0_2.1" depart="9.00" departLane="np2_nt2_0" departPos="30.41" departSpeed="0.00" departDelay="0.82" arrival="141.00" arrivalLane="nt15_np10_0" arrivalPos="75.00" arrivalSpeed="11.09" duration="132.00" routeLength="920.67" waitingTime="24.00" waitingCount="4" stopTime="0.00" timeLoss="63.45" rerouteNo="0" devices="tripinfo_f_0_2.1" vType="type1" speedFactor="1.13" vaporized=""/>
    <tripinfo id="f_0_3.1" depart="9.00" departLane="np3_nt3_0" departPos="51.52" departSpeed="0.00" departDelay="0.82" arrival="163.00" arrivalLane="nt14_np11_0" arrivalPos="75.00" arrivalSpeed="8.82" duration="154.00" routeLength="899.57" waitingTime="48.00" waitingCount="3" stopTime="0.00" timeLoss="74.90" rerouteNo="0" devices="tripinfo_f_0_3.1" vType="type1" speedFactor="0.95" vaporized=""/>
    <tripinfo id="f_0_0.0" depart="0.00" departLane="np13_nt13_0" departPos="21.05" departSpeed="0.00" departDelay="0.00" arrival="164.00" arrivalLane="nt4_np5_0" arrivalPos="75.00" arrivalSpeed="14.05" duration="164.00" routeLength="1326.84" waitingTime="20.00" waitingCount="4" stopTime="0.00" timeLoss="51.08" rerouteNo="0" devices="tripinfo_f_0_0.0" vType="type1" speedFactor="0.82" vaporized=""/>
    <tripinfo id="f_0_0.1" depart="14.00" departLane="np13_nt13_0" departPos="62.06" departSpeed="0.00" departDelay="0.36" arrival="166.00" arrivalLane="nt4_np5_0" arrivalPos="75.00" arrivalSpeed="15.74" duration="152.00" routeLength="1285.83" waitingTime="8.00" waitingCount="2" stopTime="0.00" timeLoss="46.04" rerouteNo="0" devices="tripinfo_f_0_0.1" vType="type1" speedFactor="0.85" vaporized=""/>
    <tripinfo id="f_0_3.2" depart="17.00" departLane="np3_nt3_0" departPos="34.09" departSpeed="0.00" departDelay="0.64" arrival="174.00" arrivalLane="nt14_np11_0" arrivalPos="75.00" arrivalSpeed="7.76" duration="157.00" routeLength="917.00" waitingTime="39.00" waitingCount="5" stopTime="0.00" timeLoss="70.35" rerouteNo="0" devices="tripinfo_f_0_3.2" vType="type1" speedFactor="0.89" vaporized=""/>
    <tripinfo id="f_0_3.3" depart="25.00" departLane="np3_nt3_0" departPos="0.24" departSpeed="0.00" departDelay="0.45" arrival="176.00" arrivalLane="nt14_np11_0" arrivalPos="75.00" arrivalSpeed="8.12" duration="151.00" routeLength="950.85" waitingTime="30.00" waitingCount="3" stopTime="0.00" timeLoss="65.31" rerouteNo="0" devices="tripinfo_f_0_3.3" vType="type1" speedFactor="0.94" vaporized=""/>
    <tripinfo id="f_0_0.2" depart="28.00" departLane="np13_nt13_0" departPos="57.69" departSpeed="0.00" departDelay="0.73" arrival="178.00" arrivalLane="nt4_np5_0" arrivalPos="75.00" arrivalSpeed="19.36" duration="150.00" routeLength="1290.20" waitingTime="30.00" waitingCount="5" stopTime="0.00" timeLoss="65.74" rerouteNo="0" devices="tripinfo_f_0_0.2" vType="type1" speedFactor="1.07" vaporized=""/>
    <tripinfo id="f_0_3.4" depart="33.00" departLane="np3_nt3_0" departPos="42.08" departSpeed="0.00" departDelay="0.27" arrival="192.00" arrivalLane="nt14_np11_0" arrivalPos="75.00" arrivalSpeed="10.80" duration="159.00" routeLength="909.01" waitingTime="48.00" waitingCount="7" stopTime="0.00" timeLoss="85.37" rerouteNo="0" devices="tripinfo_f_0_3.4" vType="type1" speedFactor="1.03" vaporized=""/>
    <tripinfo id="f_0_0.3" depart="41.00" departLane="np13_nt13_0" departPos="7.81" departSpeed="0.00" departDelay="0.09" arrival="192.00" arrivalLane="nt4_np5_0" arrivalPos="75.00" arrivalSpeed="16.93" duration="151.00" routeLength="1340.08" waitingTime="25.00" waitingCount="4" stopTime="0.00" timeLoss="52.49" rerouteNo="0" devices="tripinfo_f_0_0.3" vType="type1" speedFactor="0.94" vaporized=""/>
    <tripinfo id="f_0_3.5" depart="41.00" departLane="np3_nt3_0" departPos="26.80" departSpeed="0.00" departDelay="0.09" arrival="194.00" arrivalLane="nt14_np11_0" arrivalPos="75.00" arrivalSpeed="11.00" duration="153.00" routeLength="924.29" waitingTime="51.00" waitingCount="6" stopTime="0.00" timeLoss="82.17" rerouteNo="0" devices="tripinfo_f_0_3.5" vType="type1" speedFactor="1.10" vaporized=""/>
    <tripinfo id="f_0_3.6" depart="50.00" departLane="np3_nt3_0" departPos="19.04" departSpeed="0.00" departDelay="0.91" arrival="207.00" arrivalLane="nt14_np11_0" arrivalPos="75.00" arrivalSpeed="11.07" duration="157.00" routeLength="932.05" waitingTime="54.00" waitingCount="5" stopTime="0.00" timeLoss="83.12" rerouteNo="0" devices="tripinfo_f_0_3.6" vType="type1" speedFactor="1.06" vaporized=""/>
    <tripinfo id="f_0_3.7" depart="58.00" departLane="np3_nt3_0" departPos="11.23" departSpeed="0.00" departDelay="0.73" arrival="209.00" arrivalLane="nt14_np11_0" arrivalPos="75.00" arrivalSpeed="11.11" duration="151.00" routeLength="939.86" waitingTime="44.00" waitingCount="6" stopTime="0.00" timeLoss="78.17" rerouteNo="0" devices="tripinfo_f_0_3.7" vType="type1" speedFactor="1.09" vaporized=""/>
    <tripinfo id="f_0_3.8" depart="66.00" departLane="np3_nt3_0" departPos="34.85" departSpeed="0.00" departDelay="0.54" arrival="213.00" arrivalLane="nt14_np11_0" arrivalPos="75.00" arrivalSpeed="8.95" duration="147.00" routeLength="916.24" waitingTime="35.00" waitingCount="5" stopTime="0.00" timeLoss="71.98" rerouteNo="0" devices="tripinfo_f_0_3.8" vType="type1" speedFactor="1.02" vaporized=""/>
    <tripinfo id="f_0_2.2" depart="17.00" departLane="np2_nt2_0" departPos="9.54" departSpeed="0.00" departDelay="0.64" arrival="219.00" arrivalLane="nt15_np10_0" arrivalPos="75.00" arrivalSpeed="8.22" duration="202.00" routeLength="941.54" waitingTime="80.00" waitingCount="6" stopTime="0.00" timeLoss="112.31" rerouteNo="0" devices="tripinfo_f_0_2.2" vType="type1" speedFactor="0.88" vaporized=""/>
    <tripinfo id="f_0_3.9" depart="74.00" departLane="np3_nt3_0" departPos="20.10" departSpeed="0.00" departDelay="0.36" arrival="248.00" arrivalLane="nt14_np11_0" arrivalPos="75.00" arrivalSpeed="8.16" duration="174.00" routeLength="930.99" waitingTime="58.00" waitingCount="6" stopTime="0.00" timeLoss="89.14" rerouteNo="0" devices="tripinfo_f_0_3.9" vType="type1" speedFactor="0.92" vaporized=""/>
    <tripinfo id="f_0_0.4" depart="55.00" departLane="np13_nt13_0" departPos="28.64" departSpeed="0.00" departDelay="0.46" arrival="254.00" arrivalLane="nt4_np5_0" arrivalPos="75.00" arrivalSpeed="19.85" duration="199.00" routeLength="1319.25" waitingTime="65.00" waitingCount="6" stopTime="0.00" timeLoss="109.18" rerouteNo="0" devices="tripinfo_f_0_0.4" vType="type1" speedFactor="1.03" vaporized=""/>
    <tripinfo id="f_0_3.10" depart="82.00" departLane="np3_nt3_0" departPos="38.45" departSpeed="0.00" departDelay="0.18" arrival="262.00" arrivalLane="nt14_np11_0" arrivalPos="75.00" arrivalSpeed="9.71" duration="180.00" routeLength="912.64" waitingTime="61.00" waitingCount="7" stopTime="0.00" timeLoss="108.95" rerouteNo="0" devices="tripinfo_f_0_3.10" vType="type1" speedFactor="1.08" vaporized=""/>
    <tripinfo id="f_0_3.11" depart="90.00" departLane="np3_nt3_0" departPos="9.61" departSpeed="0.00" departDelay="0.00" arrival="264.00" arrivalLane="nt14_np11_0" arrivalPos="75.00" arrivalSpeed="10.64" duration="174.00" routeLength="941.48" waitingTime="50.00" waitingCount="6" stopTime="0.00" timeLoss="100.83" rerouteNo="0" devices="tripinfo_f_0_3.11" vType="type1" speedFactor="1.08" vaporized=""/>
    <tripinfo id="f_0_2.3" depart="25.00" departLane="np2_nt2_0" departPos="23.17" departSpeed="0.00" departDelay="0.45" arrival="267.00" arrivalLane="nt15_np10_0" arrivalPos="75.00" arrivalSpeed="11.15" duration="242.00" routeLength="927.91" waitingTime="136.00" waitingCount="6" stopTime="0.00" timeLoss="165.17" rerouteNo="0" devices="tripinfo_f_0_2.3" vType="type1" speedFactor="1.02" vaporized=""/>
    <tripinfo id="f_0_2.4" depart="33.00" departLane="np2_nt2_0" departPos="42.44" departSpeed="0.00" departDelay="0.27" arrival="271.00" arrivalLane="nt15_np10_0" arrivalPos="75.00" arrivalSpeed="6.98" duration="238.00" routeLength="908.64" waitingTime="110.00" waitingCount="5" stopTime="0.00" timeLoss="146.92" rerouteNo="0" devices="tripinfo_f_0_2.4" vType="type1" speedFactor="0.84" vaporized=""/>
    <tripinfo id="f_0_3.12" depart="99.00" departLane="np3_nt3_0" departPos="15.06" departSpeed="0.00" departDelay="0.82" arrival="273.00" arrivalLane="nt14_np11_0" arrivalPos="75.00" arrivalSpeed="8.30" duration="174.00" routeLength="936.03" waitingTime="58.00" waitingCount="5" stopTime="0.00" timeLoss="89.75" rerouteNo="0" devices="tripinfo_f_0_3.12" vType="type1" speedFactor="0.93" vaporized=""/>
    <tripinfo id="f_0_3.13" depart="107.00" departLane="np3_nt3_0" departPos="27.62" departSpeed="0.00" departDelay="0.63" arrival="275.00" arrivalLane="nt14_np11_0" arrivalPos="75.00" arrivalSpeed="9.47" duration="168.00" routeLength="923.47" waitingTime="53.00" waitingCount="6" stopTime="0.00" timeLoss="93.24" rerouteNo="0" devices="tripinfo_f_0_3.13" vType="type1" speedFactor="1.04" vaporized=""/>
    <tripinfo id="f_0_0.5" depart="69.00" departLane="np13_nt13_0" departPos="54.13" departSpeed="0.00" departDelay="0.82" arrival="283.00" arrivalLane="nt4_np5_0" arrivalPos="75.00" arrivalSpeed="19.87" duration="214.00" routeLength="1293.76" waitingTime="89.00" waitingCount="8" stopTime="0.00" timeLoss="130.79" rerouteNo="0" devices="tripinfo_f_0_0.5" vType="type1" speedFactor="1.09" vaporized=""/>
    <tripinfo id="f_0_2.5" depart="41.00" departLane="np2_nt2_0" departPos="0.71" departSpeed="0.00" departDelay="0.09" arrival="284.00" arrivalLane="nt15_np10_0" arrivalPos="75.00" arrivalSpeed="9.21" duration="243.00" routeLength="950.37" waitingTime="106.00" waitingCount="8" stopTime="0.00" timeLoss="161.47" rerouteNo="0" devices="tripinfo_f_0_2.5" vType="type1" speedFactor="0.98" vaporized=""/>
    <tripinfo id="f_0_0.6" depart="82.00" departLane="np13_nt13_0" departPos="17.86" departSpeed="0.00" departDelay="0.18" arrival="284.00" arrivalLane="nt4_np5_0" arrivalPos="75.00" arrivalSpeed="19.49" duration="202.00" routeLength="1330.03" waitingTime="64.00" waitingCount="5" stopTime="0.00" timeLoss="116.05" rerouteNo="0" devices="tripinfo_f_0_0.6" vType="type1" speedFactor="1.07" vaporized=""/>
    <tripinfo id="f_0_3.14" depart="115.00" departLane="np3_nt3_0" departPos="13.95" departSpeed="0.00" departDelay="0.45" arrival="292.00" arrivalLane="nt14_np11_0" arrivalPos="75.00" arrivalSpeed="9.51" duration="177.00" routeLength="937.14" waitingTime="55.00" waitingCount="6" stopTime="0.00" timeLoss="101.88" rerouteNo="0" devices="tripinfo_f_0_3.14" vType="type1" speedFactor="1.05" vaporized=""/>
    <tripinfo id="f_0_1.0" depart="0.00" departLane="np16_nt1_0" departPos="29.84" departSpeed="0.00" departDelay="0.00" arrival="293.00" arrivalLane="nt16_np8_0" arrivalPos="75.00" arrivalSpeed="18.24" duration="293.00" routeLength="1318.04" waitingTime="137.00" waitingCount="10" stopTime="0.00" timeLoss="200.31" rerouteNo="0" devices="tripinfo_f_0_1.0" vType="type1" speedFactor="0.99" vaporized=""/>
    <tripinfo id="f_0_2.6" depart="50.00" departLane="np2_nt2_0" departPos="25.69" departSpeed="0.00" departDelay="0.91" arrival="294.00" arrivalLane="nt15_np10_0" arrivalPos="75.00" arrivalSpeed="7.37" duration="244.00" routeLength="925.39" waitingTime="99.00" waitingCount="8" stopTime="0.00" timeLoss="156.40" rerouteNo="0" devices="tripinfo_f_0_2.6" vType="type1" speedFactor="0.88" vaporized=""/>
    <tripinfo id="f_0_1.1" depart="14.00" departLane="np16_nt1_0" departPos="54.58" departSpeed="0.00" departDelay="0.36" arrival="296.00" arrivalLane="nt16_np8_0" arrivalPos="75.00" arrivalSpeed="14.61" duration="282.00" routeLength="1293.30" waitingTime="112.00" waitingCount="9" stopTime="0.00" timeLoss="172.11" rerouteNo="0" devices="tripinfo_f_0_1.1" vType="type1" speedFactor="0.83" vaporized=""/>
    <tripinfo id="f_0_3.15" depart="123.00" departLane="np3_nt3_0" departPos="36.31" departSpeed="0.00" departDelay="0.27" arrival="296.00" arrivalLane="nt14_np11_0" arrivalPos="75.00" arrivalSpeed="8.08" duration="173.00" routeLength="914.78" waitingTime="42.00" waitingCount="6" stopTime="0.00" timeLoss="81.02" rerouteNo="0" devices="tripinfo_f_0_3.15" vType="type1" speedFactor="0.84" vaporized=""/>
    <tripinfo id="f_0_2.7" depart="58.00" departLane="np2_nt2_0" departPos="38.28" departSpeed="0.00" departDelay="0.73" arrival="300.00" arrivalLane="nt15_np10_0" arrivalPos="75.00" arrivalSpeed="7.77" duration="242.00" routeLength="912.80" waitingTime="90.00" waitingCount="9" stopTime="0.00" timeLoss="146.51" rerouteNo="0" devices="tripinfo_f_0_2.7" vType="type1" speedFactor="0.80" vaporized=""/>
    <tripinfo id="f_0_2.8" depart="66.00" departLane="np2_nt2_0" departPos="24.45" departSpeed="0.00" departDelay="0.54" arrival="306.00" arrivalLane="nt15_np10_0" arrivalPos="75.00" arrivalSpeed="11.94" duration="240.00" routeLength="926.63" waitingTime="79.00" waitingCount="9" stopTime="0.00" timeLoss="172.44" rerouteNo="0" devices="tripinfo_f_0_2.8" vType="type1" speedFactor="1.16" vaporized=""/>
    <tripinfo id="f_0_1.2" depart="28.00" departLane="np16_nt1_0" departPos="56.81" departSpeed="0.00" departDelay="0.73" arrival="314.00" arrivalLane="nt16_np8_0" arrivalPos="75.00" arrivalSpeed="15.37" duration="286.00" routeLength="1291.07" waitingTime="107.00" waitingCount="10" stopTime="0.00" timeLoss="178.19" rerouteNo="0" devices="tripinfo_f_0_1.2" vType="type1" speedFactor="0.84" vaporized=""/>
    <tripinfo id="f_0_3.16" depart="131.00" departLane="np3_nt3_0" departPos="16.60" departSpeed="0.00" departDelay="0.09" arrival="317.00" arrivalLane="nt14_np11_0" arrivalPos="75.00" arrivalSpeed="9.92" duration="186.00" routeLength="934.49" waitingTime="50.00" waitingCount="9" stopTime="0.00" timeLoss="108.11" rerouteNo="0" devices="tripinfo_f_0_3.16" vType="type1" speedFactor="1.01" vaporized=""/>
    <tripinfo id="f_0_3.17" depart="140.00" departLane="np3_nt3_0" departPos="21.83" departSpeed="0.00" departDelay="0.91" arrival="320.00" arrivalLane="nt14_np11_0" arrivalPos="75.00" arrivalSpeed="9.57" duration="180.00" routeLength="929.26" waitingTime="58.00" waitingCount="5" stopTime="0.00" timeLoss="95.64" rerouteNo="0" devices="tripinfo_f_0_3.17" vType="type1" speedFactor="0.93" vaporized=""/>
    <tripinfo id="f_0_2.9" depart="74.00" departLane="np2_nt2_0" departPos="50.68" departSpeed="0.00" departDelay="0.36" arrival="322.00" arrivalLane="nt15_np10_0" arrivalPos="75.00" arrivalSpeed="10.96" duration="248.00" routeLength="900.40" waitingTime="88.00" waitingCount="7" stopTime="0.00" timeLoss="174.31" rerouteNo="0" devices="tripinfo_f_0_2.9" vType="type1" speedFactor="1.03" vaporized=""/>
    <tripinfo id="f_0_3.18" depart="148.00" departLane="np3_nt3_0" departPos="13.33" departSpeed="0.00" departDelay="0.72" arrival="322.00" arrivalLane="nt14_np11_0" arrivalPos="75.00" arrivalSpeed="10.12" duration="174.00" routeLength="937.76" waitingTime="58.00" waitingCount="5" stopTime="0.00" timeLoss="99.91" rerouteNo="0" devices="tripinfo_f_0_3.18" vType="type1" speedFactor="1.06" vaporized=""/>
    <tripinfo id="f_0_3.19" depart="156.00" departLane="np3_nt3_0" departPos="15.69" departSpeed="0.00" departDelay="0.54" arrival="324.00" arrivalLane="nt14_np11_0" arrivalPos="75.00" arrivalSpeed="8.41" duration="168.00" routeLength="935.40" waitingTime="49.00" waitingCount="5" stopTime="0.00" timeLoss="86.41" rerouteNo="0" devices="tripinfo_f_0_3.19" vType="type1" speedFactor="0.96" vaporized=""/>
    <tripinfo id="f_0_1.3" depart="41.00" departLane="np16_nt1_0" departPos="50.89" departSpeed="0.00" departDelay="0.09" arrival="329.00" arrivalLane="nt16_np8_0" arrivalPos="75.00" arrivalSpeed="18.43" duration="288.00" routeLength="1296.99" waitingTime="97.00" waitingCount="11" stopTime="0.00" timeLoss="193.38" rerouteNo="0" devices="tripinfo_f_0_1.3" vType="type1" speedFactor="0.97" vaporized=""/>
    <tripinfo id="f_0_3.20" depart="164.00" departLane="np3_nt3_0" departPos="38.88" departSpeed="0.00" departDelay="0.36" arrival="335.00" arrivalLane="nt14_np11_0" arrivalPos="75.00" arrivalSpeed="11.67" duration="171.00" routeLength="912.21" waitingTime="51.00" waitingCount="6" stopTime="0.00" timeLoss="107.09" rerouteNo="0" devices="tripinfo_f_0_3.20" vType="type1" speedFactor="1.19" vaporized=""/>
    <tripinfo id="f_0_0.7" depart="96.00" departLane="np13_nt13_0" departPos="3.34" departSpeed="0.00" departDelay="0.55" arrival="339.00" arrivalLane="nt4_np5_0" arrivalPos="75.00" arrivalSpeed="14.96" duration="243.00" routeLength="1344.55" waitingTime="77.00" waitingCount="7" stopTime="0.00" timeLoss="124.80" rerouteNo="0" devices="tripinfo_f_0_0.7" vType="type1" speedFactor="0.79" vaporized=""/>
    <tripinfo id="f_0_3.21" depart="172.00" departLane="np3_nt3_0" departPos="1.45" departSpeed="0.00" departDelay="0.18" arrival="339.00" arrivalLane="nt14_np11_0" arrivalPos="75.00" arrivalSpeed="9.60" duration="167.00" routeLength="949.64" waitingTime="48.00" waitingCount="4" stopTime="0.00" timeLoss="90.85" rerouteNo="0" devices="tripinfo_f_0_3.21" vType="type1" speedFactor="1.06" vaporized=""/>
    <tripinfo id="f_0_3.22" depart="180.00" departLane="np3_nt3_0" departPos="3.09" departSpeed="0.00" departDelay="0.00" arrival="351.00" arrivalLane="nt14_np11_0" arrivalPos="75.00" arrivalSpeed="11.68" duration="171.00" routeLength="948.00" waitingTime="53.00" waitingCount="6" stopTime="0.00" timeLoss="105.85" rerouteNo="0" devices="tripinfo_f_0_3.22" vType="type1" speedFactor="1.23" vaporized=""/>
    <tripinfo id="f_0_1.4" depart="55.00" departLane="np16_nt1_0" departPos="12.57" departSpeed="0.00" departDelay="0.46" arrival="354.00" arrivalLane="nt16_np8_0" arrivalPos="75.00" arrivalSpeed="18.79" duration="299.00" routeLength="1335.31" waitingTime="94.00" waitingCount="11" stopTime="0.00" timeLoss="203.77" rerouteNo="0" devices="tripinfo_f_0_1.4" vType="type1" speedFactor="0.98" vaporized=""/>
    <tripinfo id="f_0_1.5" depart="69.00" departLane="np16_nt1_0" departPos="23.67" departSpeed="0.00" departDelay="0.82" arrival="355.00" arrivalLane="nt16_np8_0" arrivalPos="75.00" arrivalSpeed="18.49" duration="286.00" routeLength="1324.21" waitingTime="108.00" waitingCount="9" stopTime="0.00" timeLoss="197.94" rerouteNo="0" devices="tripinfo_f_0_1.5" vType="type1" speedFactor="1.04" vaporized=""/>
    <tripinfo id="f_0_3.23" depart="189.00" departLane="np3_nt3_0" departPos="3.50" departSpeed="0.00" departDelay="0.81" arrival="355.00" arrivalLane="nt14_np11_0" arrivalPos="75.00" arrivalSpeed="10.32" duration="166.00" routeLength="947.59" waitingTime="43.00" waitingCount="6" stopTime="0.00" timeLoss="87.29" rerouteNo="0" devices="tripinfo_f_0_3.23" vType="type1" speedFactor="1.01" vaporized=""/>
    <tripinfo id="f_0_0.8" depart="110.00" departLane="np13_nt13_0" departPos="9.97" departSpeed="0.00" departDelay="0.91" arrival="359.00" arrivalLane="nt4_np5_0" arrivalPos="75.00" arrivalSpeed="17.06" duration="249.00" routeLength="1337.92" waitingTime="101.00" waitingCount="10" stopTime="0.00" timeLoss="148.22" rerouteNo="0" devices="tripinfo_f_0_0.8" vType="type1" speedFactor="0.92" vaporized=""/>
    <tripinfo id="f_0_3.24" depart="197.00" departLane="np3_nt3_0" departPos="16.71" departSpeed="0.00" departDelay="0.63" arrival="360.00" arrivalLane="nt14_np11_0" arrivalPos="75.00" arrivalSpeed="6.73" duration="163.00" routeLength="934.38" waitingTime="26.00" waitingCount="5" stopTime="0.00" timeLoss="63.07" rerouteNo="0" devices="tripinfo_f_0_3.24" vType="type1" speedFactor="0.79" vaporized=""/>
    <tripinfo id="f_0_3.25" depart="205.00" departLane="np3_nt3_0" departPos="11.00" departSpeed="0.00" departDelay="0.45" arrival="362.00" arrivalLane="nt14_np11_0" arrivalPos="75.00" arrivalSpeed="9.74" duration="157.00" routeLength="940.09" waitingTime="39.00" waitingCount="4" stopTime="0.00" timeLoss="83.22" rerouteNo="0" devices="tripinfo_f_0_3.25" vType="type1" speedFactor="1.07" vaporized=""/>
    <tripinfo id="f_0_2.10" depart="82.00" departLane="np2_nt2_0" departPos="19.67" departSpeed="0.00" departDelay="0.18" arrival="382.00" arrivalLane="nt15_np10_0" arrivalPos="75.00" arrivalSpeed="9.79" duration="300.00" routeLength="931.41" waitingTime="150.00" waitingCount="8" stopTime="0.00" timeLoss="226.48" rerouteNo="0" devices="tripinfo_f_0_2.10" vType="type1" speedFactor="1.06" vaporized=""/>
    <tripinfo id="f_0_0.9" depart="123.00" departLane="np13_nt13_0" departPos="23.31" departSpeed="0.00" departDelay="0.28" arrival="383.00" arrivalLane="nt4_np5_0" arrivalPos="75.00" arrivalSpeed="20.36" duration="260.00" routeLength="1324.58" waitingTime="109.00" waitingCount="10" stopTime="0.00" timeLoss="173.87" rerouteNo="0" devices="tripinfo_f_0_0.9" vType="type1" speedFactor="1.07" vaporized=""/>
    <tripinfo id="f_0_0.10" depart="137.00" departLane="np13_nt13_0" departPos="62.37" departSpeed="0.00" departDelay="0.64" arrival="385.00" arrivalLane="nt4_np5_0" arrivalPos="75.00" arrivalSpeed="21.02" duration="248.00" routeLength="1285.52" waitingTime="99.00" waitingCount="10" stopTime="0.00" timeLoss="167.88" rerouteNo="0" devices="tripinfo_f_0_0.10" vType="type1" speedFactor="1.13" vaporized=""/>
    <tripinfo id="f_0_2.11" depart="90.00" departLane="np2_nt2_0" departPos="52.08" departSpeed="0.00" departDelay="0.00" arrival="392.00" arrivalLane="nt15_np10_0" arrivalPos="75.00" arrivalSpeed="9.39" duration="302.00" routeLength="899.00" waitingTime="146.00" waitingCount="9" stopTime="0.00" timeLoss="228.57" rerouteNo="0" devices="tripinfo_f_0_2.11" vType="type1" speedFactor="1.03" vaporized=""/>
    <tripinfo id="f_0_2.12" depart="99.00" departLane="np2_nt2_0" departPos="2.20" departSpeed="0.00" departDelay="0.82" arrival="394.00" arrivalLane="nt15_np10_0" arrivalPos="75.00" arrivalSpeed="11.42" duration="295.00" routeLength="948.88" waitingTime="130.00" waitingCount="9" stopTime="0.00" timeLoss="219.06" rerouteNo="0" devices="tripinfo_f_0_2.12" vType="type1" speedFactor="1.06" vaporized=""/>
    <tripinfo id="f_0_2.13" depart="107.00" departLane="np2_nt2_0" departPos="23.20" departSpeed="0.00" departDelay="0.63" arrival="417.00" arrivalLane="nt15_np10_0" arrivalPos="75.00" arrivalSpeed="9.55" duration="310.00" routeLength="927.88" waitingTime="139.00" waitingCount="8" stopTime="0.00" timeLoss="235.08" rerouteNo="0" devices="tripinfo_f_0_2.13" vType="type1" speedFactor="1.04" vaporized=""/>
    <tripinfo id="f_0_2.14" depart="115.00" departLane="np2_nt2_0" departPos="40.49" departSpeed="0.00" departDelay="0.45" arrival="433.00" arrivalLane="nt15_np10_0" arrivalPos="75.00" arrivalSpeed="7.76" duration="318.00" routeLength="910.59" waitingTime="140.00" waitingCount="12" stopTime="0.00" timeLoss="231.82" rerouteNo="0" devices="tripinfo_f_0_2.14" vType="type1" speedFactor="0.89" vaporized=""/>
    <tripinfo id="f_0_2.15" depart="123.00" departLane="np2_nt2_0" departPos="37.40" departSpeed="0.00" departDelay="0.27" arrival="436.00" arrivalLane="nt15_np10_0" arrivalPos="75.00" arrivalSpeed="7.32" duration="313.00" routeLength="913.68" waitingTime="129.00" waitingCount="11" stopTime="0.00" timeLoss="222.98" rerouteNo="0" devices="tripinfo_f_0_2.15" vType="type1" speedFactor="0.85" vaporized=""/>
    <tripinfo id="f_0_3.26" depart="213.00" departLane="np3_nt3_0" departPos="22.90" departSpeed="0.00" departDelay="0.27" arrival="436.00" arrivalLane="nt14_np11_0" arrivalPos="75.00" arrivalSpeed="9.97" duration="223.00" routeLength="928.19" waitingTime="112.00" waitingCount="7" stopTime="0.00" timeLoss="152.24" rerouteNo="0" devices="tripinfo_f_0_3.26" vType="type1" speedFactor="1.10" vaporized=""/>
    <tripinfo id="f_0_1.6" depart="82.00" departLane="np16_nt1_0" departPos="39.45" departSpeed="0.00" departDelay="0.18" arrival="438.00" arrivalLane="nt16_np8_0" arrivalPos="75.00" arrivalSpeed="18.69" duration="356.00" routeLength="1308.43" waitingTime="157.00" waitingCount="11" stopTime="0.00" timeLoss="262.04" rerouteNo="0" devices="tripinfo_f_0_1.6" vType="type1" speedFactor="0.97" vaporized=""/>
    <tripinfo id="f_0_1.7" depart="96.00" departLane="np16_nt1_0" departPos="38.67" departSpeed="0.00" departDelay="0.55" arrival="440.00" arrivalLane="nt16_np8_0" arrivalPos="75.00" arrivalSpeed="20.79" duration="344.00" routeLength="1309.21" waitingTime="143.00" waitingCount="10" stopTime="0.00" timeLoss="258.84" rerouteNo="0" devices="tripinfo_f_0_1.7" vType="type1" speedFactor="1.08" vaporized=""/>
    <tripinfo id="f_0_0.11" depart="150.00" departLane="np13_nt13_0" departPos="41.75" departSpeed="0.00" departDelay="0.00" arrival="440.00" arrivalLane="nt4_np5_0" arrivalPos="75.00" arrivalSpeed="17.73" duration="290.00" routeLength="1306.14" waitingTime="133.00" waitingCount="9" stopTime="0.00" timeLoss="199.35" rerouteNo="0" devices="tripinfo_f_0_0.11" vType="type1" speedFactor="1.00" vaporized=""/>
    <tripinfo id="f_0_3.27" depart="221.00" departLane="np3_nt3_0" departPos="25.58" departSpeed="0.00" departDelay="0.09" arrival="441.00" arrivalLane="nt14_np11_0" arrivalPos="75.00" arrivalSpeed="9.57" duration="220.00" routeLength="925.51" waitingTime="90.00" waitingCount="7" stopTime="0.00" timeLoss="130.92" rerouteNo="0" devices="tripinfo_f_0_3.27" vType="type1" speedFactor="0.87" vaporized=""/>
    <tripinfo id="f_0_2.16" depart="131.00" departLane="np2_nt2_0" departPos="13.31" departSpeed="0.00" departDelay="0.09" arrival="443.00" arrivalLane="nt15_np10_0" arrivalPos="75.00" arrivalSpeed="9.55" duration="312.00" routeLength="937.77" waitingTime="107.00" waitingCount="10" stopTime="0.00" timeLoss="237.10" rerouteNo="0" devices="tripinfo_f_0_2.16" vType="type1" speedFactor="1.06" vaporized=""/>
    <tripinfo id="f_0_3.28" depart="230.00" departLane="np3_nt3_0" departPos="20.65" departSpeed="0.00" departDelay="0.90" arrival="444.00" arrivalLane="nt14_np11_0" arrivalPos="75.00" arrivalSpeed="8.02" duration="214.00" routeLength="930.44" waitingTime="79.00" waitingCount="5" stopTime="0.00" timeLoss="121.01" rerouteNo="0" devices="tripinfo_f_0_3.28" vType="type1" speedFactor="0.84" vaporized=""/>
    <tripinfo id="f_0_3.29" depart="238.00" departLane="np3_nt3_0" departPos="21.55" departSpeed="0.00" departDelay="0.72" arrival="446.00" arrivalLane="nt14_np11_0" arrivalPos="75.00" arrivalSpeed="8.83" duration="208.00" routeLength="929.54" waitingTime="75.00" waitingCount="5" stopTime="0.00" timeLoss="131.18" rerouteNo="0" devices="tripinfo_f_0_3.29" vType="type1" speedFactor="1.02" vaporized=""/>
    <tripinfo id="f_0_3.30" depart="246.00" departLane="np3_nt3_0" departPos="13.26" departSpeed="0.00" departDelay="0.54" arrival="447.00" arrivalLane="nt14_np11_0" arrivalPos="75.00" arrivalSpeed="11.08" duration="201.00" routeLength="937.83" waitingTime="81.00" waitingCount="7" stopTime="0.00" timeLoss="124.91" rerouteNo="0" devices="tripinfo_f_0_3.30" vType="type1" speedFactor="1.03" vaporized=""/>
    <tripinfo id="f_0_3.31" depart="254.00" departLane="np3_nt3_0" departPos="8.73" departSpeed="0.00" departDelay="0.36" arrival="449.00" arrivalLane="nt14_np11_0" arrivalPos="75.00" arrivalSpeed="9.22" duration="195.00" routeLength="942.36" waitingTime="75.00" waitingCount="8" stopTime="0.00" timeLoss="120.44" rerouteNo="0" devices="tripinfo_f_0_3.31" vType="type1" speedFactor="1.06" vaporized=""/>
    <tripinfo id="f_0_1.8" depart="110.00" departLane="np16_nt1_0" departPos="58.51" departSpeed="0.00" departDelay="0.91" arrival="453.00" arrivalLane="nt16_np8_0" arrivalPos="75.00" arrivalSpeed="24.61" duration="343.00" routeLength="1289.37" waitingTime="126.00" waitingCount="13" stopTime="0.00" timeLoss="269.01" rerouteNo="0" devices="tripinfo_f_0_1.8" vType="type1" speedFactor="1.23" vaporized=""/>
    <tripinfo id="f_0_0.12" depart="164.00" departLane="np13_nt13_0" departPos="54.35" departSpeed="0.00" departDelay="0.37" arrival="458.00" arrivalLane="nt4_np5_0" arrivalPos="75.00" arrivalSpeed="19.53" duration="294.00" routeLength="1293.54" waitingTime="124.00" waitingCount="11" stopTime="0.00" timeLoss="203.43" rerouteNo="0" devices="tripinfo_f_0_0.12" vType="type1" speedFactor="1.00" vaporized=""/>