<?xml version="1.0" encoding="UTF-8"?>

<!-- generated on 2023-08-23 17:04:30 by Eclipse SUMO libsumo Version 1.18.0
<configuration xmlns:xsi="http://www.w3.org/2001/XMLSchema-instance" xsi:noNamespaceSchemaLocation="http://sumo.dlr.de/xsd/libsumoConfiguration.xsd">

    <input>
        <net-file value="/home/stefan/RESCO/./environments/arterial4x4/arterial4x4.net.xml"/>
        <route-files value="/home/stefan/RESCO/./environments/arterial4x4/arterial4x4_90.rou.xml"/>
    </input>

    <output>
        <tripinfo-output value="/home/stefan/results/IDDQN-tr0-arterial4x4-0-drq_norm-wait_norm/tripinfo_90.xml"/>
        <tripinfo-output.write-unfinished value="true"/>
    </output>

    <processing>
        <time-to-teleport value="-1"/>
    </processing>

    <report>
        <no-warnings value="True"/>
        <no-step-log value="True"/>
    </report>

    <random_number>
        <random value="true"/>
    </random_number>

</configuration>
-->

<tripinfos xmlns:xsi="http://www.w3.org/2001/XMLSchema-instance" xsi:noNamespaceSchemaLocation="http://sumo.dlr.de/xsd/tripinfo_file.xsd">
    <tripinfo id="f_0_0.0" depart="0.00" departLane="np13_nt13_0" departPos="67.63" departSpeed="0.00" departDelay="0.00" arrival="104.00" arrivalLane="nt4_np5_0" arrivalPos="75.00" arrivalSpeed="20.20" duration="104.00" routeLength="1280.26" waitingTime="4.00" waitingCount="2" stopTime="0.00" timeLoss="23.93" rerouteNo="0" devices="tripinfo_f_0_0.0" vType="type1" speedFactor="1.13" vaporized=""/>
    <tripinfo id="f_0_3.0" depart="0.00" departLane="np3_nt3_0" departPos="61.45" departSpeed="0.00" departDelay="0.00" arrival="137.00" arrivalLane="nt14_np11_0" arrivalPos="75.00" arrivalSpeed="9.18" duration="137.00" routeLength="889.64" waitingTime="43.00" waitingCount="3" stopTime="0.00" timeLoss="65.84" rerouteNo="0" devices="tripinfo_f_0_3.0" vType="type1" speedFactor="1.04" vaporized=""/>
    <tripinfo id="f_0_3.1" depart="9.00" departLane="np3_nt3_0" departPos="24.49" departSpeed="0.00" departDelay="0.82" arrival="139.00" arrivalLane="nt14_np11_0" arrivalPos="75.00" arrivalSpeed="10.44" duration="130.00" routeLength="926.60" waitingTime="31.00" waitingCount="2" stopTime="0.00" timeLoss="56.10" rerouteNo="0" devices="tripinfo_f_0_3.1" vType="type1" speedFactor="1.06" vaporized=""/>
    <tripinfo id="f_0_3.2" depart="17.00" departLane="np3_nt3_0" departPos="5.34" departSpeed="0.00" departDelay="0.64" arrival="142.00" arrivalLane="nt14_np11_0" arrivalPos="75.00" arrivalSpeed="8.35" duration="125.00" routeLength="945.75" waitingTime="21.00" waitingCount="3" stopTime="0.00" timeLoss="39.39" rerouteNo="0" devices="tripinfo_f_0_3.2" vType="type1" speedFactor="0.93" vaporized=""/>
    <tripinfo id="f_0_3.3" depart="25.00" departLane="np3_nt3_0" departPos="18.86" departSpeed="0.00" departDelay="0.45" arrival="143.00" arrivalLane="nt14_np11_0" arrivalPos="75.00" arrivalSpeed="12.76" duration="118.00" routeLength="932.23" waitingTime="19.00" waitingCount="3" stopTime="0.00" timeLoss="59.10" rerouteNo="0" devices="tripinfo_f_0_3.3" vType="type1" speedFactor="1.34" vaporized=""/>
    <tripinfo id="f_0_3.4" depart="33.00" departLane="np3_nt3_0" departPos="11.75" departSpeed="0.00" departDelay="0.27" arrival="145.00" arrivalLane="nt14_np11_0" arrivalPos="75.00" arrivalSpeed="10.29" duration="112.00" routeLength="939.34" waitingTime="13.00" waitingCount="3" stopTime="0.00" timeLoss="42.37" rerouteNo="0" devices="tripinfo_f_0_3.4" vType="type1" speedFactor="1.13" vaporized=""/>
    <tripinfo id="f_0_2.0" depart="0.00" departLane="np2_nt2_0" departPos="1.75" departSpeed="0.00" departDelay="0.00" arrival="158.00" arrivalLane="nt15_np10_0" arrivalPos="75.00" arrivalSpeed="9.88" duration="158.00" routeLength="949.33" waitingTime="53.00" waitingCount="3" stopTime="0.00" timeLoss="76.23" rerouteNo="0" devices="tripinfo_f_0_2.0" vType="type1" speedFactor="0.98" vaporized=""/>
    <tripinfo id="f_0_2.1" depart="9.00" departLane="np2_nt2_0" departPos="50.38" departSpeed="0.00" departDelay="0.82" arrival="159.00" arrivalLane="nt15_np10_0" arrivalPos="75.00" arrivalSpeed="10.94" duration="150.00" routeLength="900.70" waitingTime="46.00" waitingCount="4" stopTime="0.00" timeLoss="76.26" rerouteNo="0" devices="tripinfo_f_0_2.1" vType="type1" speedFactor="1.02" vaporized=""/>
    <tripinfo id="f_0_2.2" depart="17.00" departLane="np2_nt2_0" departPos="26.64" departSpeed="0.00" departDelay="0.64" arrival="162.00" arrivalLane="nt15_np10_0" arrivalPos="75.00" arrivalSpeed="8.81" duration="145.00" routeLength="924.44" waitingTime="37.00" waitingCount="4" stopTime="0.00" timeLoss="64.89" rerouteNo="0" devices="tripinfo_f_0_2.2" vType="type1" speedFactor="0.97" vaporized=""/>
    <tripinfo id="f_0_3.5" depart="41.00" departLane="np3_nt3_0" departPos="22.46" departSpeed="0.00" departDelay="0.09" arrival="163.00" arrivalLane="nt14_np11_0" arrivalPos="75.00" arrivalSpeed="6.66" duration="122.00" routeLength="928.63" waitingTime="0.00" waitingCount="0" stopTime="0.00" timeLoss="21.25" rerouteNo="0" devices="tripinfo_f_0_3.5" vType="type1" speedFactor="0.77" vaporized=""/>
    <tripinfo id="f_0_2.3" depart="25.00" departLane="np2_nt2_0" departPos="3.48" departSpeed="0.00" departDelay="0.45" arrival="164.00" arrivalLane="nt15_np10_0" arrivalPos="75.00" arrivalSpeed="10.39" duration="139.00" routeLength="947.60" waitingTime="29.00" waitingCount="4" stopTime="0.00" timeLoss="60.84" rerouteNo="0" devices="tripinfo_f_0_2.3" vType="type1" speedFactor="1.03" vaporized=""/>
    <tripinfo id="f_0_3.6" depart="50.00" departLane="np3_nt3_0" departPos="8.95" departSpeed="0.00" departDelay="0.91" arrival="165.00" arrivalLane="nt14_np11_0" arrivalPos="75.00" arrivalSpeed="9.46" duration="115.00" routeLength="942.14" waitingTime="4.00" waitingCount="1" stopTime="0.00" timeLoss="33.83" rerouteNo="0" devices="tripinfo_f_0_3.6" vType="type1" speedFactor="0.98" vaporized=""/>
    <tripinfo id="f_0_3.7" depart="58.00" departLane="np3_nt3_0" departPos="48.07" departSpeed="0.00" departDelay="0.73" arrival="166.00" arrivalLane="nt14_np11_0" arrivalPos="75.00" arrivalSpeed="11.00" duration="108.00" routeLength="903.02" waitingTime="0.00" waitingCount="0" stopTime="0.00" timeLoss="36.01" rerouteNo="0" devices="tripinfo_f_0_3.7" vType="type1" speedFactor="1.05" vaporized=""/>
    <tripinfo id="f_0_0.1" depart="14.00" departLane="np13_nt13_0" departPos="21.30" departSpeed="0.00" departDelay="0.36" arrival="168.00" arrivalLane="nt4_np5_0" arrivalPos="75.00" arrivalSpeed="24.15" duration="154.00" routeLength="1326.59" waitingTime="48.00" waitingCount="5" stopTime="0.00" timeLoss="80.72" rerouteNo="0" devices="tripinfo_f_0_0.1" vType="type1" speedFactor="1.26" vaporized=""/>
    <tripinfo id="f_0_0.2" depart="28.00" departLane="np13_nt13_0" departPos="35.43" departSpeed="0.00" departDelay="0.73" arrival="170.00" arrivalLane="nt4_np5_0" arrivalPos="75.00" arrivalSpeed="21.88" duration="142.00" routeLength="1312.46" waitingTime="33.00" waitingCount="4" stopTime="0.00" timeLoss="66.26" rerouteNo="0" devices="tripinfo_f_0_0.2" vType="type1" speedFactor="1.21" vaporized=""/>
    <tripinfo id="f_0_2.4" depart="33.00" departLane="np2_nt2_0" departPos="48.48" departSpeed="0.00" departDelay="0.27" arrival="170.00" arrivalLane="nt15_np10_0" arrivalPos="75.00" arrivalSpeed="8.36" duration="137.00" routeLength="902.60" waitingTime="12.00" waitingCount="3" stopTime="0.00" timeLoss="58.95" rerouteNo="0" devices="tripinfo_f_0_2.4" vType="type1" speedFactor="0.97" vaporized=""/>
    <tripinfo id="f_0_2.5" depart="41.00" departLane="np2_nt2_0" departPos="13.72" departSpeed="0.00" departDelay="0.09" arrival="177.00" arrivalLane="nt15_np10_0" arrivalPos="75.00" arrivalSpeed="9.48" duration="136.00" routeLength="937.36" waitingTime="13.00" waitingCount="5" stopTime="0.00" timeLoss="57.84" rerouteNo="0" devices="tripinfo_f_0_2.5" vType="type1" speedFactor="1.01" vaporized=""/>
    <tripinfo id="f_0_1.0" depart="0.00" departLane="np16_nt1_0" departPos="60.94" departSpeed="0.00" departDelay="0.00" arrival="178.00" arrivalLane="nt16_np8_0" arrivalPos="75.00" arrivalSpeed="15.83" duration="178.00" routeLength="1286.94" waitingTime="27.00" waitingCount="5" stopTime="0.00" timeLoss="65.94" rerouteNo="0" devices="tripinfo_f_0_1.0" vType="type1" speedFactor="0.81" vaporized=""/>
    <tripinfo id="f_0_2.6" depart="50.00" departLane="np2_nt2_0" departPos="7.04" departSpeed="0.00" departDelay="0.91" arrival="181.00" arrivalLane="nt15_np10_0" arrivalPos="75.00" arrivalSpeed="11.44" duration="131.00" routeLength="944.04" waitingTime="23.00" waitingCount="4" stopTime="0.00" timeLoss="59.72" rerouteNo="0" devices="tripinfo_f_0_2.6" vType="type1" speedFactor="1.11" vaporized=""/>
    <tripinfo id="f_0_1.1" depart="14.00" departLane="np16_nt1_0" departPos="36.02" departSpeed="0.00" departDelay="0.36" arrival="187.00" arrivalLane="nt16_np8_0" arrivalPos="75.00" arrivalSpeed="18.76" duration="173.00" routeLength="1311.86" waitingTime="33.00" waitingCount="8" stopTime="0.00" timeLoss="79.20" rerouteNo="0" devices="tripinfo_f_0_1.1" vType="type1" speedFactor="0.97" vaporized=""/>
    <tripinfo id="f_0_0.3" depart="41.00" departLane="np13_nt13_0" departPos="37.79" departSpeed="0.00" departDelay="0.09" arrival="189.00" arrivalLane="nt4_np5_0" arrivalPos="75.00" arrivalSpeed="18.96" duration="148.00" routeLength="1310.10" waitingTime="20.00" waitingCount="6" stopTime="0.00" timeLoss="59.63" rerouteNo="0" devices="tripinfo_f_0_0.3" vType="type1" speedFactor="1.04" vaporized=""/>
    <tripinfo id="f_0_1.2" depart="28.00" departLane="np16_nt1_0" departPos="49.19" departSpeed="0.00" departDelay="0.73" arrival="194.00" arrivalLane="nt16_np8_0" arrivalPos="75.00" arrivalSpeed="17.84" duration="166.00" routeLength="1298.69" waitingTime="32.00" waitingCount="6" stopTime="0.00" timeLoss="70.71" rerouteNo="0" devices="tripinfo_f_0_1.2" vType="type1" speedFactor="0.96" vaporized=""/>
    <tripinfo id="f_0_1.3" depart="41.00" departLane="np16_nt1_0" departPos="32.03" departSpeed="0.00" departDelay="0.09" arrival="199.00" arrivalLane="nt16_np8_0" arrivalPos="75.00" arrivalSpeed="15.88" duration="158.00" routeLength="1315.85" waitingTime="22.00" waitingCount="2" stopTime="0.00" timeLoss="52.02" rerouteNo="0" devices="tripinfo_f_0_1.3" vType="type1" speedFactor="0.86" vaporized=""/>
    <tripinfo id="f_0_2.7" depart="58.00" departLane="np2_nt2_0" departPos="18.92" departSpeed="0.00" departDelay="0.73" arrival="203.00" arrivalLane="nt15_np10_0" arrivalPos="75.00" arrivalSpeed="8.45" duration="145.00" routeLength="932.16" waitingTime="26.00" waitingCount="3" stopTime="0.00" timeLoss="65.33" rerouteNo="0" devices="tripinfo_f_0_2.7" vType="type1" speedFactor="0.98" vaporized=""/>
    <tripinfo id="f_0_3.8" depart="66.00" departLane="np3_nt3_0" departPos="32.49" departSpeed="0.00" departDelay="0.54" arrival="207.00" arrivalLane="nt14_np11_0" arrivalPos="75.00" arrivalSpeed="9.91" duration="141.00" routeLength="918.60" waitingTime="41.00" waitingCount="3" stopTime="0.00" timeLoss="62.68" rerouteNo="0" devices="tripinfo_f_0_3.8" vType="type1" speedFactor="0.98" vaporized=""/>
    <tripinfo id="f_0_3.9" depart="74.00" departLane="np3_nt3_0" departPos="55.34" departSpeed="0.00" departDelay="0.36" arrival="209.00" arrivalLane="nt14_np11_0" arrivalPos="75.00" arrivalSpeed="11.15" duration="135.00" routeLength="895.75" waitingTime="37.00" waitingCount="3" stopTime="0.00" timeLoss="65.17" rerouteNo="0" devices="tripinfo_f_0_3.9" vType="type1" speedFactor="1.07" vaporized=""/>
    <tripinfo id="f_0_1.4" depart="55.00" departLane="np16_nt1_0" departPos="8.94" departSpeed="0.00" departDelay="0.46" arrival="212.00" arrivalLane="nt16_np8_0" arrivalPos="75.00" arrivalSpeed="21.87" duration="157.00" routeLength="1338.94" waitingTime="34.00" waitingCount="5" stopTime="0.00" timeLoss="75.02" rerouteNo="0" devices="tripinfo_f_0_1.4" vType="type1" speedFactor="1.13" vaporized=""/>
    <tripinfo id="f_0_0.4" depart="55.00" departLane="np13_nt13_0" departPos="9.99" departSpeed="0.00" departDelay="0.46" arrival="213.00" arrivalLane="nt4_np5_0" arrivalPos="75.00" arrivalSpeed="18.81" duration="158.00" routeLength="1337.90" waitingTime="25.00" waitingCount="5" stopTime="0.00" timeLoss="70.09" rerouteNo="0" devices="tripinfo_f_0_0.4" vType="type1" speedFactor="1.05" vaporized=""/>
    <tripinfo id="f_0_0.5" depart="69.00" departLane="np13_nt13_0" departPos="44.28" departSpeed="0.00" departDelay="0.82" arrival="215.00" arrivalLane="nt4_np5_0" arrivalPos="75.00" arrivalSpeed="22.64" duration="146.00" routeLength="1303.61" waitingTime="37.00" waitingCount="4" stopTime="0.00" timeLoss="66.15" rerouteNo="0" devices="tripinfo_f_0_0.5" vType="type1" speedFactor="1.15" vaporized=""/>
    <tripinfo id="f_0_3.10" depart="82.00" departLane="np3_nt3_0" departPos="35.94" departSpeed="0.00" departDelay="0.18" arrival="221.00" arrivalLane="nt14_np11_0" arrivalPos="75.00" arrivalSpeed="11.21" duration="139.00" routeLength="915.15" waitingTime="43.00" waitingCount="3" stopTime="0.00" timeLoss="70.55" rerouteNo="0" devices="tripinfo_f_0_3.10" vType="type1" speedFactor="1.11" vaporized=""/>
    <tripinfo id="f_0_0.6" depart="82.00" departLane="np13_nt13_0" departPos="26.31" departSpeed="0.00" departDelay="0.18" arrival="234.00" arrivalLane="nt4_np5_0" arrivalPos="75.00" arrivalSpeed="15.26" duration="152.00" routeLength="1321.58" waitingTime="16.00" waitingCount="3" stopTime="0.00" timeLoss="44.40" rerouteNo="0" devices="tripinfo_f_0_0.6" vType="type1" speedFactor="0.86" vaporized=""/>
    <tripinfo id="f_0_3.11" depart="90.00" departLane="np3_nt3_0" departPos="43.74" departSpeed="0.00" departDelay="0.00" arrival="238.00" arrivalLane="nt14_np11_0" arrivalPos="75.00" arrivalSpeed="8.08" duration="148.00" routeLength="907.35" waitingTime="42.00" waitingCount="4" stopTime="0.00" timeLoss="66.41" rerouteNo="0" devices="tripinfo_f_0_3.11" vType="type1" speedFactor="0.93" vaporized=""/>
    <tripinfo id="f_0_3.12" depart="99.00" departLane="np3_nt3_0" departPos="45.63" departSpeed="0.00" departDelay="0.82" arrival="240.00" arrivalLane="nt14_np11_0" arrivalPos="75.00" arrivalSpeed="10.02" duration="141.00" routeLength="905.46" waitingTime="39.00" waitingCount="3" stopTime="0.00" timeLoss="60.93" rerouteNo="0" devices="tripinfo_f_0_3.12" vType="type1" speedFactor="0.95" vaporized=""/>
    <tripinfo id="f_0_3.13" depart="107.00" departLane="np3_nt3_0" departPos="34.42" departSpeed="0.00" departDelay="0.63" arrival="242.00" arrivalLane="nt14_np11_0" arrivalPos="75.00" arrivalSpeed="11.25" duration="135.00" routeLength="916.67" waitingTime="30.00" waitingCount="4" stopTime="0.00" timeLoss="62.02" rerouteNo="0" devices="tripinfo_f_0_3.13" vType="type1" speedFactor="1.06" vaporized=""/>
    <tripinfo id="f_0_3.14" depart="115.00" departLane="np3_nt3_0" departPos="6.63" departSpeed="0.00" departDelay="0.45" arrival="243.00" arrivalLane="nt14_np11_0" arrivalPos="75.00" arrivalSpeed="10.83" duration="128.00" routeLength="944.46" waitingTime="22.00" waitingCount="5" stopTime="0.00" timeLoss="51.27" rerouteNo="0" devices="tripinfo_f_0_3.14" vType="type1" speedFactor="1.03" vaporized=""/>
    <tripinfo id="f_0_3.15" depart="123.00" departLane="np3_nt3_0" departPos="21.82" departSpeed="0.00" departDelay="0.27" arrival="252.00" arrivalLane="nt14_np11_0" arrivalPos="75.00" arrivalSpeed="9.74" duration="129.00" routeLength="929.27" waitingTime="22.00" waitingCount="6" stopTime="0.00" timeLoss="54.35" rerouteNo="0" devices="tripinfo_f_0_3.15" vType="type1" speedFactor="1.05" vaporized=""/>
    <tripinfo id="f_0_3.16" depart="131.00" departLane="np3_nt3_0" departPos="50.30" departSpeed="0.00" departDelay="0.09" arrival="253.00" arrivalLane="nt14_np11_0" arrivalPos="75.00" arrivalSpeed="13.19" duration="122.00" routeLength="900.79" waitingTime="16.00" waitingCount="5" stopTime="0.00" timeLoss="63.00" rerouteNo="0" devices="tripinfo_f_0_3.16" vType="type1" speedFactor="1.27" vaporized=""/>
    <tripinfo id="f_0_2.8" depart="66.00" departLane="np2_nt2_0" departPos="34.09" departSpeed="0.00" departDelay="0.54" arrival="260.00" arrivalLane="nt15_np10_0" arrivalPos="75.00" arrivalSpeed="7.39" duration="194.00" routeLength="916.99" waitingTime="57.00" waitingCount="3" stopTime="0.00" timeLoss="94.22" rerouteNo="0" devices="tripinfo_f_0_2.8" vType="type1" speedFactor="0.77" vaporized=""/>
    <tripinfo id="f_0_2.9" depart="74.00" departLane="np2_nt2_0" departPos="15.37" departSpeed="0.00" departDelay="0.36" arrival="262.00" arrivalLane="nt15_np10_0" arrivalPos="75.00" arrivalSpeed="10.54" duration="188.00" routeLength="935.71" waitingTime="65.00" waitingCount="5" stopTime="0.00" timeLoss="114.25" rerouteNo="0" devices="tripinfo_f_0_2.9" vType="type1" speedFactor="1.07" vaporized=""/>
    <tripinfo id="f_0_0.7" depart="96.00" departLane="np13_nt13_0" departPos="17.55" departSpeed="0.00" departDelay="0.55" arrival="263.00" arrivalLane="nt4_np5_0" arrivalPos="75.00" arrivalSpeed="19.06" duration="167.00" routeLength="1330.34" waitingTime="49.00" waitingCount="4" stopTime="0.00" timeLoss="76.58" rerouteNo="0" devices="tripinfo_f_0_0.7" vType="type1" speedFactor="1.02" vaporized=""/>
    <tripinfo id="f_0_2.10" depart="82.00" departLane="np2_nt2_0" departPos="52.86" departSpeed="0.00" departDelay="0.18" arrival="264.00" arrivalLane="nt15_np10_0" arrivalPos="75.00" arrivalSpeed="9.60" duration="182.00" routeLength="898.22" waitingTime="57.00" waitingCount="4" stopTime="0.00" timeLoss="101.95" rerouteNo="0" devices="tripinfo_f_0_2.10" vType="type1" speedFactor="0.94" vaporized=""/>
    <tripinfo id="f_0_2.11" depart="90.00" departLane="np2_nt2_0" departPos="60.79" departSpeed="0.00" departDelay="0.00" arrival="266.00" arrivalLane="nt15_np10_0" arrivalPos="75.00" arrivalSpeed="8.32" duration="176.00" routeLength="890.29" waitingTime="55.00" waitingCount="5" stopTime="0.00" timeLoss="91.61" rerouteNo="0" devices="tripinfo_f_0_2.11" vType="type1" speedFactor="0.88" vaporized=""/>
    <tripinfo id="f_0_2.12" depart="99.00" departLane="np2_nt2_0" departPos="32.67" departSpeed="0.00" departDelay="0.82" arrival="268.00" arrivalLane="nt15_np10_0" arrivalPos="75.00" arrivalSpeed="10.12" duration="169.00" routeLength="918.41" waitingTime="62.00" waitingCount="5" stopTime="0.00" timeLoss="100.47" rerouteNo="0" devices="tripinfo_f_0_2.12" vType="type1" speedFactor="1.13" vaporized=""/>
    <tripinfo id="f_0_2.13" depart="107.00" departLane="np2_nt2_0" departPos="24.38" departSpeed="0.00" departDelay="0.63" arrival="270.00" arrivalLane="nt15_np10_0" arrivalPos="75.00" arrivalSpeed="11.30" duration="163.00" routeLength="926.70" waitingTime="53.00" waitingCount="6" stopTime="0.00" timeLoss="87.30" rerouteNo="0" devices="tripinfo_f_0_2.13" vType="type1" speedFactor="1.03" vaporized=""/>
    <tripinfo id="f_0_2.14" depart="115.00" departLane="np2_nt2_0" departPos="15.25" departSpeed="0.00" departDelay="0.45" arrival="272.00" arrivalLane="nt15_np10_0" arrivalPos="75.00" arrivalSpeed="9.54" duration="157.00" routeLength="935.83" waitingTime="42.00" waitingCount="4" stopTime="0.00" timeLoss="81.36" rerouteNo="0" devices="tripinfo_f_0_2.14" vType="type1" speedFactor="1.04" vaporized=""/>
    <tripinfo id="f_0_2.15" depart="123.00" departLane="np2_nt2_0" departPos="43.57" departSpeed="0.00" departDelay="0.27" arrival="276.00" arrivalLane="nt15_np10_0" arrivalPos="75.00" arrivalSpeed="9.13" duration="153.00" routeLength="907.51" waitingTime="32.00" waitingCount="4" stopTime="0.00" timeLoss="65.60" rerouteNo="0" devices="tripinfo_f_0_2.15" vType="type1" speedFactor="0.87" vaporized=""/>
    <tripinfo id="f_0_1.5" depart="69.00" departLane="np16_nt1_0" departPos="36.00" departSpeed="0.00" departDelay="0.82" arrival="278.00" arrivalLane="nt16_np8_0" arrivalPos="75.00" arrivalSpeed="18.85" duration="209.00" routeLength="1311.88" waitingTime="79.00" waitingCount="4" stopTime="0.00" timeLoss="115.11" rerouteNo="0" devices="tripinfo_f_0_1.5" vType="type1" speedFactor="0.98" vaporized=""/>
    <tripinfo id="f_0_2.16" depart="131.00" departLane="np2_nt2_0" departPos="30.22" departSpeed="0.00" departDelay="0.09" arrival="281.00" arrivalLane="nt15_np10_0" arrivalPos="75.00" arrivalSpeed="10.56" duration="150.00" routeLength="920.86" waitingTime="29.00" waitingCount="3" stopTime="0.00" timeLoss="69.68" rerouteNo="0" devices="tripinfo_f_0_2.16" vType="type1" speedFactor="0.96" vaporized=""/>
    <tripinfo id="f_0_1.6" depart="82.00" departLane="np16_nt1_0" departPos="57.42" departSpeed="0.00" departDelay="0.18" arrival="289.00" arrivalLane="nt16_np8_0" arrivalPos="75.00" arrivalSpeed="14.42" duration="207.00" routeLength="1290.46" waitingTime="52.00" waitingCount="6" stopTime="0.00" timeLoss="98.90" rerouteNo="0" devices="tripinfo_f_0_1.6" vType="type1" speedFactor="0.84" vaporized=""/>
    <tripinfo id="f_0_0.8" depart="110.00" departLane="np13_nt13_0" departPos="58.06" departSpeed="0.00" departDelay="0.91" arrival="289.00" arrivalLane="nt4_np5_0" arrivalPos="75.00" arrivalSpeed="17.66" duration="179.00" routeLength="1289.83" waitingTime="57.00" waitingCount="5" stopTime="0.00" timeLoss="88.28" rerouteNo="0" devices="tripinfo_f_0_0.8" vType="type1" speedFactor="1.00" vaporized=""/>
    <tripinfo id="f_0_0.9" depart="123.00" departLane="np13_nt13_0" departPos="39.60" departSpeed="0.00" departDelay="0.28" arrival="290.00" arrivalLane="nt4_np5_0" arrivalPos="75.00" arrivalSpeed="19.56" duration="167.00" routeLength="1308.29" waitingTime="37.00" waitingCount="5" stopTime="0.00" timeLoss="76.48" rerouteNo="0" devices="tripinfo_f_0_0.9" vType="type1" speedFactor="1.01" vaporized=""/>
    <tripinfo id="f_0_2.17" depart="140.00" departLane="np2_nt2_0" departPos="19.14" departSpeed="0.00" departDelay="0.91" arrival="290.00" arrivalLane="nt15_np10_0" arrivalPos="75.00" arrivalSpeed="9.47" duration="150.00" routeLength="931.94" waitingTime="27.00" waitingCount="4" stopTime="0.00" timeLoss="64.94" rerouteNo="0" devices="tripinfo_f_0_2.17" vType="type1" speedFactor="0.93" vaporized=""/>
    <tripinfo id="f_0_1.7" depart="96.00" departLane="np16_nt1_0" departPos="25.09" departSpeed="0.00" departDelay="0.55" arrival="291.00" arrivalLane="nt16_np8_0" arrivalPos="75.00" arrivalSpeed="18.19" duration="195.00" routeLength="1322.79" waitingTime="51.00" waitingCount="7" stopTime="0.00" timeLoss="103.37" rerouteNo="0" devices="tripinfo_f_0_1.7" vType="type1" speedFactor="1.01" vaporized=""/>
    <tripinfo id="f_0_2.18" depart="148.00" departLane="np2_nt2_0" departPos="32.85" departSpeed="0.00" departDelay="0.72" arrival="292.00" arrivalLane="nt15_np10_0" arrivalPos="75.00" arrivalSpeed="10.76" duration="144.00" routeLength="918.23" waitingTime="22.00" waitingCount="4" stopTime="0.00" timeLoss="73.36" rerouteNo="0" devices="tripinfo_f_0_2.18" vType="type1" speedFactor="1.10" vaporized=""/>
    <tripinfo id="f_0_1.8" depart="110.00" departLane="np16_nt1_0" departPos="26.97" departSpeed="0.00" departDelay="0.91" arrival="293.00" arrivalLane="nt16_np8_0" arrivalPos="75.00" arrivalSpeed="20.17" duration="183.00" routeLength="1320.91" waitingTime="43.00" waitingCount="5" stopTime="0.00" timeLoss="93.87" rerouteNo="0" devices="tripinfo_f_0_1.8" vType="type1" speedFactor="1.03" vaporized=""/>
    <tripinfo id="f_0_2.19" depart="156.00" departLane="np2_nt2_0" departPos="27.04" departSpeed="0.00" departDelay="0.54" arrival="294.00" arrivalLane="nt15_np10_0" arrivalPos="75.00" arrivalSpeed="9.60" duration="138.00" routeLength="924.04" waitingTime="18.00" waitingCount="4" stopTime="0.00" timeLoss="58.60" rerouteNo="0" devices="tripinfo_f_0_2.19" vType="type1" speedFactor="0.98" vaporized=""/>
    <tripinfo id="f_0_0.10" depart="137.00" departLane="np13_nt13_0" departPos="50.19" departSpeed="0.00" departDelay="0.64" arrival="299.00" arrivalLane="nt4_np5_0" arrivalPos="75.00" arrivalSpeed="16.21" duration="162.00" routeLength="1297.70" waitingTime="24.00" waitingCount="6" stopTime="0.00" timeLoss="58.56" rerouteNo="0" devices="tripinfo_f_0_0.10" vType="type1" speedFactor="0.88" vaporized=""/>
    <tripinfo id="f_0_1.9" depart="123.00" departLane="np16_nt1_0" departPos="50.93" departSpeed="0.00" departDelay="0.28" arrival="301.00" arrivalLane="nt16_np8_0" arrivalPos="75.00" arrivalSpeed="20.37" duration="178.00" routeLength="1296.95" waitingTime="46.00" waitingCount="6" stopTime="0.00" timeLoss="95.27" rerouteNo="0" devices="tripinfo_f_0_1.9" vType="type1" speedFactor="1.10" vaporized=""/>
    <tripinfo id="f_0_3.17" depart="140.00" departLane="np3_nt3_0" departPos="23.80" departSpeed="0.00" departDelay="0.91" arrival="302.00" arrivalLane="nt14_np11_0" arrivalPos="75.00" arrivalSpeed="11.13" duration="162.00" routeLength="927.29" waitingTime="62.00" waitingCount="4" stopTime="0.00" timeLoss="89.70" rerouteNo="0" devices="tripinfo_f_0_3.17" vType="type1" speedFactor="1.08" vaporized=""/>
    <tripinfo id="f_0_3.18" depart="148.00" departLane="np3_nt3_0" departPos="29.14" departSpeed="0.00" departDelay="0.72" arrival="304.00" arrivalLane="nt14_np11_0" arrivalPos="75.00" arrivalSpeed="10.31" duration="156.00" routeLength="921.95" waitingTime="53.00" waitingCount="5" stopTime="0.00" timeLoss="81.78" rerouteNo="0" devices="tripinfo_f_0_3.18" vType="type1" speedFactor="1.04" vaporized=""/>
    <tripinfo id="f_0_3.19" depart="156.00" departLane="np3_nt3_0" departPos="16.85" departSpeed="0.00" departDelay="0.54" arrival="306.00" arrivalLane="nt14_np11_0" arrivalPos="75.00" arrivalSpeed="11.32" duration="150.00" routeLength="934.24" waitingTime="40.00" waitingCount="5" stopTime="0.00" timeLoss="75.17" rerouteNo="0" devices="tripinfo_f_0_3.19" vType="type1" speedFactor="1.05" vaporized=""/>
    <tripinfo id="f_0_1.10" depart="137.00" departLane="np16_nt1_0" departPos="10.39" departSpeed="0.00" departDelay="0.64" arrival="308.00" arrivalLane="nt16_np8_0" arrivalPos="75.00" arrivalSpeed="14.87" duration="171.00" routeLength="1337.49" waitingTime="20.00" waitingCount="4" stopTime="0.00" timeLoss="62.68" rerouteNo="0" devices="tripinfo_f_0_1.10" vType="type1" speedFactor="0.86" vaporized=""/>
    <tripinfo id="f_0_0.11" depart="150.00" departLane="np13_nt13_0" departPos="14.03" departSpeed="0.00" departDelay="0.00" arrival="308.00" arrivalLane="nt4_np5_0" arrivalPos="75.00" arrivalSpeed="21.36" duration="158.00" routeLength="1333.86" waitingTime="21.00" waitingCount="5" stopTime="0.00" timeLoss="72.60" rerouteNo="0" devices="tripinfo_f_0_0.11" vType="type1" speedFactor="1.08" vaporized=""/>
    <tripinfo id="f_0_3.20" depart="164.00" departLane="np3_nt3_0" departPos="15.08" departSpeed="0.00" departDelay="0.36" arrival="310.00" arrivalLane="nt14_np11_0" arrivalPos="75.00" arrivalSpeed="9.40" duration="146.00" routeLength="936.01" waitingTime="34.00" waitingCount="3" stopTime="0.00" timeLoss="58.80" rerouteNo="0" devices="tripinfo_f_0_3.20" vType="type1" speedFactor="0.90" vaporized=""/>
    <tripinfo id="f_0_3.21" depart="172.00" departLane="np3_nt3_0" departPos="19.49" departSpeed="0.00" departDelay="0.18" arrival="312.00" arrivalLane="nt14_np11_0" arrivalPos="75.00" arrivalSpeed="9.45" duration="140.00" routeLength="931.60" waitingTime="32.00" waitingCount="5" stopTime="0.00" timeLoss="66.53" rerouteNo="0" devices="tripinfo_f_0_3.21" vType="type1" speedFactor="1.06" vaporized=""/>
    <tripinfo id="f_0_1.11" depart="150.00" departLane="np16_nt1_0" departPos="51.43" departSpeed="0.00" departDelay="0.00" arrival="314.00" arrivalLane="nt16_np8_0" arrivalPos="75.00" arrivalSpeed="17.04" duration="164.00" routeLength="1296.45" waitingTime="14.00" waitingCount="6" stopTime="0.00" timeLoss="68.95" rerouteNo="0" devices="tripinfo_f_0_1.11" vType="type1" speedFactor="0.96" vaporized=""/>
    <tripinfo id="f_0_3.22" depart="180.00" departLane="np3_nt3_0" departPos="15.89" departSpeed="0.00" departDelay="0.00" arrival="314.00" arrivalLane="nt14_np11_0" arrivalPos="75.00" arrivalSpeed="10.27" duration="134.00" routeLength="935.20" waitingTime="32.00" waitingCount="6" stopTime="0.00" timeLoss="57.34" rerouteNo="0" devices="tripinfo_f_0_3.22" vType="type1" speedFactor="1.03" vaporized=""/>
    <tripinfo id="f_0_2.20" depart="164.00" departLane="np2_nt2_0" departPos="51.78" departSpeed="0.00" departDelay="0.36" arrival="318.00" arrivalLane="nt15_np10_0" arrivalPos="75.00" arrivalSpeed="9.90" duration="154.00" routeLength="899.30" waitingTime="25.00" waitingCount="6" stopTime="0.00" timeLoss="74.64" rerouteNo="0" devices="tripinfo_f_0_2.20" vType="type1" speedFactor="0.95" vaporized=""/>
    <tripinfo id="f_0_0.12" depart="164.00" departLane="np13_nt13_0" departPos="51.26" departSpeed="0.00" departDelay="0.37" arrival="319.00" arrivalLane="nt4_np5_0" arrivalPos="75.00" arrivalSpeed="16.13" duration="155.00" routeLength="1296.63" waitingTime="16.00" waitingCount="4" stopTime="0.00" timeLoss="53.48" rerouteNo="0" devices="tripinfo_f_0_0.12" vType="type1" speedFactor="0.90" vaporized=""/>
    <tripinfo id="f_0_2.21" depart="172.00" departLane="np2_nt2_0" departPos="8.34" departSpeed="0.00" departDelay="0.18" arrival="320.00" arrivalLane="nt15_np10_0" arrivalPos="75.00" arrivalSpeed="9.45" duration="148.00" routeLength="942.74" waitingTime="29.00" waitingCount="5" stopTime="0.00" timeLoss="70.93" rerouteNo="0" devices="tripinfo_f_0_2.21" vType="type1" speedFactor="1.02" vaporized=""/>
    <tripinfo id="f_0_0.13" depart="178.00" departLane="np13_nt13_0" departPos="42.77" departSpeed="0.00" departDelay="0.73" arrival="320.00" arrivalLane="nt4_np5_0" arrivalPos="75.00" arrivalSpeed="18.26" duration="142.00" routeLength="1305.12" waitingTime="15.00" waitingCount="4" stopTime="0.00" timeLoss="46.16" rerouteNo="0" devices="tripinfo_f_0_0.13" vType="type1" speedFactor="0.95" vaporized=""/>