<?xml version="1.0" encoding="UTF-8"?>

<!-- generated on 2023-08-23 16:13:23 by Eclipse SUMO libsumo Version 1.18.0
<configuration xmlns:xsi="http://www.w3.org/2001/XMLSchema-instance" xsi:noNamespaceSchemaLocation="http://sumo.dlr.de/xsd/libsumoConfiguration.xsd">

    <input>
        <net-file value="/home/stefan/RESCO/./environments/arterial4x4/arterial4x4.net.xml"/>
        <route-files value="/home/stefan/RESCO/./environments/arterial4x4/arterial4x4_29.rou.xml"/>
    </input>

    <output>
        <tripinfo-output value="/home/stefan/results/IDDQN-tr0-arterial4x4-0-drq_norm-wait_norm/tripinfo_29.xml"/>
        <tripinfo-output.write-unfinished value="true"/>
    </output>

    <processing>
        <time-to-teleport value="-1"/>
    </processing>

    <report>
        <no-warnings value="True"/>
        <no-step-log value="True"/>
    </report>

    <random_number>
        <random value="true"/>
    </random_number>

</configuration>
-->

<tripinfos xmlns:xsi="http://www.w3.org/2001/XMLSchema-instance" xsi:noNamespaceSchemaLocation="http://sumo.dlr.de/xsd/tripinfo_file.xsd">
    <tripinfo id="f_0_3.0" depart="0.00" departLane="np3_nt3_0" departPos="59.97" departSpeed="0.00" departDelay="0.00" arrival="100.00" arrivalLane="nt14_np11_0" arrivalPos="75.00" arrivalSpeed="13.00" duration="100.00" routeLength="891.12" waitingTime="19.00" waitingCount="4" stopTime="0.00" timeLoss="40.95" rerouteNo="0" devices="tripinfo_f_0_3.0" vType="type1" speedFactor="1.26" vaporized=""/>
    <tripinfo id="f_0_3.1" depart="9.00" departLane="np3_nt3_0" departPos="61.02" departSpeed="0.00" departDelay="0.82" arrival="104.00" arrivalLane="nt14_np11_0" arrivalPos="75.00" arrivalSpeed="9.84" duration="95.00" routeLength="890.07" waitingTime="2.00" waitingCount="2" stopTime="0.00" timeLoss="24.79" rerouteNo="0" devices="tripinfo_f_0_3.1" vType="type1" speedFactor="1.06" vaporized=""/>
    <tripinfo id="f_0_0.0" depart="0.00" departLane="np13_nt13_0" departPos="37.31" departSpeed="0.00" departDelay="0.00" arrival="133.00" arrivalLane="nt4_np5_0" arrivalPos="75.00" arrivalSpeed="18.20" duration="133.00" routeLength="1310.58" waitingTime="11.00" waitingCount="3" stopTime="0.00" timeLoss="44.06" rerouteNo="0" devices="tripinfo_f_0_0.0" vType="type1" speedFactor="1.03" vaporized=""/>
    <tripinfo id="f_0_3.2" depart="17.00" departLane="np3_nt3_0" departPos="61.27" departSpeed="0.00" departDelay="0.64" arrival="143.00" arrivalLane="nt14_np11_0" arrivalPos="75.00" arrivalSpeed="9.26" duration="126.00" routeLength="889.82" waitingTime="18.00" waitingCount="5" stopTime="0.00" timeLoss="45.52" rerouteNo="0" devices="tripinfo_f_0_3.2" vType="type1" speedFactor="0.92" vaporized=""/>
    <tripinfo id="f_0_3.3" depart="25.00" departLane="np3_nt3_0" departPos="60.84" departSpeed="0.00" departDelay="0.45" arrival="145.00" arrivalLane="nt14_np11_0" arrivalPos="75.00" arrivalSpeed="10.40" duration="120.00" routeLength="890.25" waitingTime="20.00" waitingCount="3" stopTime="0.00" timeLoss="42.25" rerouteNo="0" devices="tripinfo_f_0_3.3" vType="type1" speedFactor="0.96" vaporized=""/>
    <tripinfo id="f_0_2.0" depart="0.00" departLane="np2_nt2_0" departPos="29.17" departSpeed="0.00" departDelay="0.00" arrival="157.00" arrivalLane="nt15_np10_0" arrivalPos="75.00" arrivalSpeed="9.12" duration="157.00" routeLength="921.91" waitingTime="58.00" waitingCount="4" stopTime="0.00" timeLoss="80.40" rerouteNo="0" devices="tripinfo_f_0_2.0" vType="type1" speedFactor="1.01" vaporized=""/>
    <tripinfo id="f_0_0.1" depart="14.00" departLane="np13_nt13_0" departPos="39.91" departSpeed="0.00" departDelay="0.36" arrival="160.00" arrivalLane="nt4_np5_0" arrivalPos="75.00" arrivalSpeed="19.57" duration="146.00" routeLength="1307.98" waitingTime="35.00" waitingCount="2" stopTime="0.00" timeLoss="58.22" rerouteNo="0" devices="tripinfo_f_0_0.1" vType="type1" speedFactor="1.04" vaporized=""/>
    <tripinfo id="f_0_2.1" depart="9.00" departLane="np2_nt2_0" departPos="36.45" departSpeed="0.00" departDelay="0.82" arrival="167.00" arrivalLane="nt15_np10_0" arrivalPos="75.00" arrivalSpeed="10.31" duration="158.00" routeLength="914.63" waitingTime="57.00" waitingCount="4" stopTime="0.00" timeLoss="80.55" rerouteNo="0" devices="tripinfo_f_0_2.1" vType="type1" speedFactor="0.98" vaporized=""/>
    <tripinfo id="f_0_2.2" depart="17.00" departLane="np2_nt2_0" departPos="22.82" departSpeed="0.00" departDelay="0.64" arrival="182.00" arrivalLane="nt15_np10_0" arrivalPos="75.00" arrivalSpeed="10.45" duration="165.00" routeLength="928.26" waitingTime="67.00" waitingCount="5" stopTime="0.00" timeLoss="89.75" rerouteNo="0" devices="tripinfo_f_0_2.2" vType="type1" speedFactor="1.04" vaporized=""/>
    <tripinfo id="f_0_3.4" depart="33.00" departLane="np3_nt3_0" departPos="8.80" departSpeed="0.00" departDelay="0.27" arrival="193.00" arrivalLane="nt14_np11_0" arrivalPos="75.00" arrivalSpeed="8.30" duration="160.00" routeLength="942.29" waitingTime="46.00" waitingCount="3" stopTime="0.00" timeLoss="73.49" rerouteNo="0" devices="tripinfo_f_0_3.4" vType="type1" speedFactor="0.92" vaporized=""/>
    <tripinfo id="f_0_3.5" depart="41.00" departLane="np3_nt3_0" departPos="6.37" departSpeed="0.00" departDelay="0.09" arrival="195.00" arrivalLane="nt14_np11_0" arrivalPos="75.00" arrivalSpeed="10.80" duration="154.00" routeLength="944.72" waitingTime="52.00" waitingCount="3" stopTime="0.00" timeLoss="81.48" rerouteNo="0" devices="tripinfo_f_0_3.5" vType="type1" speedFactor="1.11" vaporized=""/>
    <tripinfo id="f_0_3.6" depart="50.00" departLane="np3_nt3_0" departPos="52.11" departSpeed="0.00" departDelay="0.91" arrival="197.00" arrivalLane="nt14_np11_0" arrivalPos="75.00" arrivalSpeed="9.25" duration="147.00" routeLength="898.98" waitingTime="38.00" waitingCount="5" stopTime="0.00" timeLoss="66.41" rerouteNo="0" devices="tripinfo_f_0_3.6" vType="type1" speedFactor="0.94" vaporized=""/>
    <tripinfo id="f_0_2.3" depart="25.00" departLane="np2_nt2_0" departPos="61.06" departSpeed="0.00" departDelay="0.45" arrival="200.00" arrivalLane="nt15_np10_0" arrivalPos="75.00" arrivalSpeed="7.94" duration="175.00" routeLength="890.02" waitingTime="48.00" waitingCount="5" stopTime="0.00" timeLoss="83.88" rerouteNo="0" devices="tripinfo_f_0_2.3" vType="type1" speedFactor="0.82" vaporized=""/>
    <tripinfo id="f_0_1.0" depart="0.00" departLane="np16_nt1_0" departPos="14.60" departSpeed="0.00" departDelay="0.00" arrival="203.00" arrivalLane="nt16_np8_0" arrivalPos="75.00" arrivalSpeed="18.04" duration="203.00" routeLength="1333.28" waitingTime="69.00" waitingCount="7" stopTime="0.00" timeLoss="109.50" rerouteNo="0" devices="tripinfo_f_0_1.0" vType="type1" speedFactor="0.99" vaporized=""/>
    <tripinfo id="f_0_0.2" depart="28.00" departLane="np13_nt13_0" departPos="39.28" departSpeed="0.00" departDelay="0.73" arrival="213.00" arrivalLane="nt4_np5_0" arrivalPos="75.00" arrivalSpeed="19.00" duration="185.00" routeLength="1308.61" waitingTime="60.00" waitingCount="5" stopTime="0.00" timeLoss="96.91" rerouteNo="0" devices="tripinfo_f_0_0.2" vType="type1" speedFactor="1.04" vaporized=""/>
    <tripinfo id="f_0_0.3" depart="41.00" departLane="np13_nt13_0" departPos="5.96" departSpeed="0.00" departDelay="0.09" arrival="214.00" arrivalLane="nt4_np5_0" arrivalPos="75.00" arrivalSpeed="20.07" duration="173.00" routeLength="1341.93" waitingTime="41.00" waitingCount="7" stopTime="0.00" timeLoss="82.58" rerouteNo="0" devices="tripinfo_f_0_0.3" vType="type1" speedFactor="1.03" vaporized=""/>
    <tripinfo id="f_0_0.4" depart="55.00" departLane="np13_nt13_0" departPos="12.76" departSpeed="0.00" departDelay="0.46" arrival="216.00" arrivalLane="nt4_np5_0" arrivalPos="75.00" arrivalSpeed="20.28" duration="161.00" routeLength="1335.13" waitingTime="25.00" waitingCount="6" stopTime="0.00" timeLoss="75.45" rerouteNo="0" devices="tripinfo_f_0_0.4" vType="type1" speedFactor="1.09" vaporized=""/>
    <tripinfo id="f_0_2.4" depart="33.00" departLane="np2_nt2_0" departPos="46.26" departSpeed="0.00" departDelay="0.27" arrival="218.00" arrivalLane="nt15_np10_0" arrivalPos="75.00" arrivalSpeed="9.31" duration="185.00" routeLength="904.82" waitingTime="56.00" waitingCount="5" stopTime="0.00" timeLoss="98.39" rerouteNo="0" devices="tripinfo_f_0_2.4" vType="type1" speedFactor="0.88" vaporized=""/>
    <tripinfo id="f_0_2.5" depart="41.00" departLane="np2_nt2_0" departPos="21.04" departSpeed="0.00" departDelay="0.09" arrival="220.00" arrivalLane="nt15_np10_0" arrivalPos="75.00" arrivalSpeed="7.93" duration="179.00" routeLength="930.04" waitingTime="43.00" waitingCount="6" stopTime="0.00" timeLoss="89.42" rerouteNo="0" devices="tripinfo_f_0_2.5" vType="type1" speedFactor="0.87" vaporized=""/>
    <tripinfo id="f_0_0.5" depart="69.00" departLane="np13_nt13_0" departPos="5.91" departSpeed="0.00" departDelay="0.82" arrival="220.00" arrivalLane="nt4_np5_0" arrivalPos="75.00" arrivalSpeed="16.89" duration="151.00" routeLength="1341.98" waitingTime="13.00" waitingCount="4" stopTime="0.00" timeLoss="52.48" rerouteNo="0" devices="tripinfo_f_0_0.5" vType="type1" speedFactor="0.94" vaporized=""/>
    <tripinfo id="f_0_0.6" depart="82.00" departLane="np13_nt13_0" departPos="14.19" departSpeed="0.00" departDelay="0.18" arrival="222.00" arrivalLane="nt4_np5_0" arrivalPos="75.00" arrivalSpeed="18.84" duration="140.00" routeLength="1333.70" waitingTime="10.00" waitingCount="3" stopTime="0.00" timeLoss="43.24" rerouteNo="0" devices="tripinfo_f_0_0.6" vType="type1" speedFactor="0.95" vaporized=""/>
    <tripinfo id="f_0_3.7" depart="58.00" departLane="np3_nt3_0" departPos="51.21" departSpeed="0.00" departDelay="0.73" arrival="225.00" arrivalLane="nt14_np11_0" arrivalPos="75.00" arrivalSpeed="6.98" duration="167.00" routeLength="899.88" waitingTime="47.00" waitingCount="5" stopTime="0.00" timeLoss="74.43" rerouteNo="0" devices="tripinfo_f_0_3.7" vType="type1" speedFactor="0.81" vaporized=""/>
    <tripinfo id="f_0_2.6" depart="50.00" departLane="np2_nt2_0" departPos="37.70" departSpeed="0.00" departDelay="0.91" arrival="229.00" arrivalLane="nt15_np10_0" arrivalPos="75.00" arrivalSpeed="9.86" duration="179.00" routeLength="913.38" waitingTime="42.00" waitingCount="5" stopTime="0.00" timeLoss="94.92" rerouteNo="0" devices="tripinfo_f_0_2.6" vType="type1" speedFactor="0.91" vaporized=""/>
    <tripinfo id="f_0_1.1" depart="14.00" departLane="np16_nt1_0" departPos="34.30" departSpeed="0.00" departDelay="0.36" arrival="238.00" arrivalLane="nt16_np8_0" arrivalPos="75.00" arrivalSpeed="19.20" duration="224.00" routeLength="1313.58" waitingTime="59.00" waitingCount="8" stopTime="0.00" timeLoss="130.20" rerouteNo="0" devices="tripinfo_f_0_1.1" vType="type1" speedFactor="0.97" vaporized=""/>
    <tripinfo id="f_0_2.7" depart="58.00" departLane="np2_nt2_0" departPos="59.16" departSpeed="0.00" departDelay="0.73" arrival="242.00" arrivalLane="nt15_np10_0" arrivalPos="75.00" arrivalSpeed="7.91" duration="184.00" routeLength="891.92" waitingTime="46.00" waitingCount="6" stopTime="0.00" timeLoss="102.31" rerouteNo="0" devices="tripinfo_f_0_2.7" vType="type1" speedFactor="0.91" vaporized=""/>
    <tripinfo id="f_0_2.8" depart="66.00" departLane="np2_nt2_0" departPos="23.49" departSpeed="0.00" departDelay="0.54" arrival="245.00" arrivalLane="nt15_np10_0" arrivalPos="75.00" arrivalSpeed="8.96" duration="179.00" routeLength="927.59" waitingTime="30.00" waitingCount="3" stopTime="0.00" timeLoss="87.15" rerouteNo="0" devices="tripinfo_f_0_2.8" vType="type1" speedFactor="0.86" vaporized=""/>
    <tripinfo id="f_0_1.2" depart="28.00" departLane="np16_nt1_0" departPos="48.94" departSpeed="0.00" departDelay="0.73" arrival="248.00" arrivalLane="nt16_np8_0" arrivalPos="75.00" arrivalSpeed="17.05" duration="220.00" routeLength="1298.94" waitingTime="47.00" waitingCount="7" stopTime="0.00" timeLoss="126.71" rerouteNo="0" devices="tripinfo_f_0_1.2" vType="type1" speedFactor="0.97" vaporized=""/>
    <tripinfo id="f_0_3.8" depart="66.00" departLane="np3_nt3_0" departPos="37.70" departSpeed="0.00" departDelay="0.54" arrival="248.00" arrivalLane="nt14_np11_0" arrivalPos="75.00" arrivalSpeed="9.03" duration="182.00" routeLength="913.39" waitingTime="64.00" waitingCount="6" stopTime="0.00" timeLoss="102.34" rerouteNo="0" devices="tripinfo_f_0_3.8" vType="type1" speedFactor="0.97" vaporized=""/>
    <tripinfo id="f_0_3.9" depart="74.00" departLane="np3_nt3_0" departPos="0.15" departSpeed="0.00" departDelay="0.36" arrival="249.00" arrivalLane="nt14_np11_0" arrivalPos="75.00" arrivalSpeed="11.50" duration="175.00" routeLength="950.94" waitingTime="62.00" waitingCount="5" stopTime="0.00" timeLoss="101.41" rerouteNo="0" devices="tripinfo_f_0_3.9" vType="type1" speedFactor="1.08" vaporized=""/>
    <tripinfo id="f_0_1.3" depart="41.00" departLane="np16_nt1_0" departPos="13.31" departSpeed="0.00" departDelay="0.09" arrival="250.00" arrivalLane="nt16_np8_0" arrivalPos="75.00" arrivalSpeed="18.18" duration="209.00" routeLength="1334.57" waitingTime="57.00" waitingCount="5" stopTime="0.00" timeLoss="116.06" rerouteNo="0" devices="tripinfo_f_0_1.3" vType="type1" speedFactor="1.00" vaporized=""/>
    <tripinfo id="f_0_0.7" depart="96.00" departLane="np13_nt13_0" departPos="65.28" departSpeed="0.00" departDelay="0.55" arrival="252.00" arrivalLane="nt4_np5_0" arrivalPos="75.00" arrivalSpeed="16.74" duration="156.00" routeLength="1282.61" waitingTime="26.00" waitingCount="4" stopTime="0.00" timeLoss="55.30" rerouteNo="0" devices="tripinfo_f_0_0.7" vType="type1" speedFactor="0.89" vaporized=""/>
    <tripinfo id="f_0_0.8" depart="110.00" departLane="np13_nt13_0" departPos="26.06" departSpeed="0.00" departDelay="0.91" arrival="253.00" arrivalLane="nt4_np5_0" arrivalPos="75.00" arrivalSpeed="17.36" duration="143.00" routeLength="1321.83" waitingTime="24.00" waitingCount="5" stopTime="0.00" timeLoss="54.95" rerouteNo="0" devices="tripinfo_f_0_0.8" vType="type1" speedFactor="1.04" vaporized=""/>
    <tripinfo id="f_0_3.10" depart="82.00" departLane="np3_nt3_0" departPos="29.70" departSpeed="0.00" departDelay="0.18" arrival="255.00" arrivalLane="nt14_np11_0" arrivalPos="75.00" arrivalSpeed="11.74" duration="173.00" routeLength="921.39" waitingTime="69.00" waitingCount="7" stopTime="0.00" timeLoss="102.16" rerouteNo="0" devices="tripinfo_f_0_3.10" vType="type1" speedFactor="1.08" vaporized=""/>
    <tripinfo id="f_0_0.9" depart="123.00" departLane="np13_nt13_0" departPos="61.18" departSpeed="0.00" departDelay="0.28" arrival="255.00" arrivalLane="nt4_np5_0" arrivalPos="75.00" arrivalSpeed="21.08" duration="132.00" routeLength="1286.71" waitingTime="12.00" waitingCount="5" stopTime="0.00" timeLoss="47.25" rerouteNo="0" devices="tripinfo_f_0_0.9" vType="type1" speedFactor="1.07" vaporized=""/>
    <tripinfo id="f_0_3.11" depart="90.00" departLane="np3_nt3_0" departPos="8.61" departSpeed="0.00" departDelay="0.00" arrival="257.00" arrivalLane="nt14_np11_0" arrivalPos="75.00" arrivalSpeed="9.55" duration="167.00" routeLength="942.48" waitingTime="57.00" waitingCount="7" stopTime="0.00" timeLoss="94.66" rerouteNo="0" devices="tripinfo_f_0_3.11" vType="type1" speedFactor="1.09" vaporized=""/>
    <tripinfo id="f_0_3.12" depart="99.00" departLane="np3_nt3_0" departPos="6.53" departSpeed="0.00" departDelay="0.82" arrival="277.00" arrivalLane="nt14_np11_0" arrivalPos="75.00" arrivalSpeed="11.04" duration="178.00" routeLength="944.56" waitingTime="56.00" waitingCount="8" stopTime="0.00" timeLoss="102.72" rerouteNo="0" devices="tripinfo_f_0_3.12" vType="type1" speedFactor="1.06" vaporized=""/>
    <tripinfo id="f_0_3.13" depart="107.00" departLane="np3_nt3_0" departPos="24.40" departSpeed="0.00" departDelay="0.63" arrival="279.00" arrivalLane="nt14_np11_0" arrivalPos="75.00" arrivalSpeed="10.49" duration="172.00" routeLength="926.69" waitingTime="42.00" waitingCount="7" stopTime="0.00" timeLoss="91.67" rerouteNo="0" devices="tripinfo_f_0_3.13" vType="type1" speedFactor="0.97" vaporized=""/>
    <tripinfo id="f_0_3.14" depart="115.00" departLane="np3_nt3_0" departPos="8.92" departSpeed="0.00" departDelay="0.45" arrival="303.00" arrivalLane="nt14_np11_0" arrivalPos="75.00" arrivalSpeed="7.91" duration="188.00" routeLength="942.17" waitingTime="66.00" waitingCount="7" stopTime="0.00" timeLoss="102.28" rerouteNo="0" devices="tripinfo_f_0_3.14" vType="type1" speedFactor="0.93" vaporized=""/>
    <tripinfo id="f_0_3.15" depart="123.00" departLane="np3_nt3_0" departPos="21.05" departSpeed="0.00" departDelay="0.27" arrival="305.00" arrivalLane="nt14_np11_0" arrivalPos="75.00" arrivalSpeed="10.19" duration="182.00" routeLength="930.04" waitingTime="60.00" waitingCount="9" stopTime="0.00" timeLoss="107.10" rerouteNo="0" devices="tripinfo_f_0_3.15" vType="type1" speedFactor="1.05" vaporized=""/>
    <tripinfo id="f_0_3.16" depart="131.00" departLane="np3_nt3_0" departPos="16.50" departSpeed="0.00" departDelay="0.09" arrival="312.00" arrivalLane="nt14_np11_0" arrivalPos="75.00" arrivalSpeed="8.82" duration="181.00" routeLength="934.59" waitingTime="53.00" waitingCount="9" stopTime="0.00" timeLoss="100.16" rerouteNo="0" devices="tripinfo_f_0_3.16" vType="type1" speedFactor="0.96" vaporized=""/>
    <tripinfo id="f_0_2.9" depart="74.00" departLane="np2_nt2_0" departPos="4.27" departSpeed="0.00" departDelay="0.36" arrival="314.00" arrivalLane="nt15_np10_0" arrivalPos="75.00" arrivalSpeed="7.47" duration="240.00" routeLength="946.81" waitingTime="90.00" waitingCount="5" stopTime="0.00" timeLoss="150.01" rerouteNo="0" devices="tripinfo_f_0_2.9" vType="type1" speedFactor="0.88" vaporized=""/>
    <tripinfo id="f_0_3.17" depart="140.00" departLane="np3_nt3_0" departPos="13.47" departSpeed="0.00" departDelay="0.91" arrival="315.00" arrivalLane="nt14_np11_0" arrivalPos="75.00" arrivalSpeed="9.54" duration="175.00" routeLength="937.62" waitingTime="40.00" waitingCount="7" stopTime="0.00" timeLoss="89.17" rerouteNo="0" devices="tripinfo_f_0_3.17" vType="type1" speedFactor="0.92" vaporized=""/>
    <tripinfo id="f_0_1.4" depart="55.00" departLane="np16_nt1_0" departPos="50.60" departSpeed="0.00" departDelay="0.46" arrival="323.00" arrivalLane="nt16_np8_0" arrivalPos="75.00" arrivalSpeed="19.50" duration="268.00" routeLength="1297.28" waitingTime="123.00" waitingCount="7" stopTime="0.00" timeLoss="182.98" rerouteNo="0" devices="tripinfo_f_0_1.4" vType="type1" speedFactor="1.06" vaporized=""/>
    <tripinfo id="f_0_2.10" depart="82.00" departLane="np2_nt2_0" departPos="32.01" departSpeed="0.00" departDelay="0.18" arrival="324.00" arrivalLane="nt15_np10_0" arrivalPos="75.00" arrivalSpeed="9.22" duration="242.00" routeLength="919.07" waitingTime="110.00" waitingCount="7" stopTime="0.00" timeLoss="166.53" rerouteNo="0" devices="tripinfo_f_0_2.10" vType="type1" speedFactor="1.02" vaporized=""/>
    <tripinfo id="f_0_0.10" depart="137.00" departLane="np13_nt13_0" departPos="17.26" departSpeed="0.00" departDelay="0.64" arrival="324.00" arrivalLane="nt4_np5_0" arrivalPos="75.00" arrivalSpeed="19.58" duration="187.00" routeLength="1330.63" waitingTime="61.00" waitingCount="6" stopTime="0.00" timeLoss="98.98" rerouteNo="0" devices="tripinfo_f_0_0.10" vType="type1" speedFactor="1.05" vaporized=""/>
    <tripinfo id="f_0_1.5" depart="69.00" departLane="np16_nt1_0" departPos="5.76" departSpeed="0.00" departDelay="0.82" arrival="328.00" arrivalLane="nt16_np8_0" arrivalPos="75.00" arrivalSpeed="20.17" duration="259.00" routeLength="1342.12" waitingTime="115.00" waitingCount="8" stopTime="0.00" timeLoss="169.10" rerouteNo="0" devices="tripinfo_f_0_1.5" vType="type1" speedFactor="1.03" vaporized=""/>
    <tripinfo id="f_0_2.11" depart="90.00" departLane="np2_nt2_0" departPos="47.98" departSpeed="0.00" departDelay="0.00" arrival="333.00" arrivalLane="nt15_np10_0" arrivalPos="75.00" arrivalSpeed="10.15" duration="243.00" routeLength="903.10" waitingTime="99.00" waitingCount="11" stopTime="0.00" timeLoss="161.87" rerouteNo="0" devices="tripinfo_f_0_2.11" vType="type1" speedFactor="0.93" vaporized=""/>
    <tripinfo id="f_0_0.11" depart="150.00" departLane="np13_nt13_0" departPos="44.34" departSpeed="0.00" departDelay="0.00" arrival="334.00" arrivalLane="nt4_np5_0" arrivalPos="75.00" arrivalSpeed="16.39" duration="184.00" routeLength="1303.55" waitingTime="43.00" waitingCount="7" stopTime="0.00" timeLoss="87.74" rerouteNo="0" devices="tripinfo_f_0_0.11" vType="type1" speedFactor="0.94" vaporized=""/>
    <tripinfo id="f_0_2.12" depart="99.00" departLane="np2_nt2_0" departPos="16.24" departSpeed="0.00" departDelay="0.82" arrival="346.00" arrivalLane="nt15_np10_0" arrivalPos="75.00" arrivalSpeed="12.32" duration="247.00" routeLength="934.84" waitingTime="100.00" waitingCount="9" stopTime="0.00" timeLoss="180.71" rerouteNo="0" devices="tripinfo_f_0_2.12" vType="type1" speedFactor="1.18" vaporized=""/>
    <tripinfo id="f_0_2.13" depart="107.00" departLane="np2_nt2_0" departPos="13.23" departSpeed="0.00" departDelay="0.63" arrival="348.00" arrivalLane="nt15_np10_0" arrivalPos="75.00" arrivalSpeed="9.73" duration="241.00" routeLength="937.85" waitingTime="94.00" waitingCount="10" stopTime="0.00" timeLoss="166.93" rerouteNo="0" devices="tripinfo_f_0_2.13" vType="type1" speedFactor="1.06" vaporized=""/>
    <tripinfo id="f_0_0.12" depart="164.00" departLane="np13_nt13_0" departPos="46.15" departSpeed="0.00" departDelay="0.37" arrival="348.00" arrivalLane="nt4_np5_0" arrivalPos="75.00" arrivalSpeed="22.66" duration="184.00" routeLength="1301.74" waitingTime="55.00" waitingCount="7" stopTime="0.00" timeLoss="109.34" rerouteNo="0" devices="tripinfo_f_0_0.12" vType="type1" speedFactor="1.23" vaporized=""/>
    <tripinfo id="f_0_0.13" depart="178.00" departLane="np13_nt13_0" departPos="47.53" departSpeed="0.00" departDelay="0.73" arrival="350.00" arrivalLane="nt4_np5_0" arrivalPos="75.00" arrivalSpeed="17.44" duration="172.00" routeLength="1300.36" waitingTime="29.00" waitingCount="5" stopTime="0.00" timeLoss="78.11" rerouteNo="0" devices="tripinfo_f_0_0.13" vType="type1" speedFactor="0.97" vaporized=""/>
    <tripinfo id="f_0_0.14" depart="191.00" departLane="np13_nt13_0" departPos="58.16" departSpeed="0.00" departDelay="0.10" arrival="351.00" arrivalLane="nt4_np5_0" arrivalPos="75.00" arrivalSpeed="19.39" duration="160.00" routeLength="1289.73" waitingTime="30.00" waitingCount="6" stopTime="0.00" timeLoss="70.28" rerouteNo="0" devices="tripinfo_f_0_0.14" vType="type1" speedFactor="1.00" vaporized=""/>
    <tripinfo id="f_0_2.14" depart="115.00" departLane="np2_nt2_0" departPos="35.99" departSpeed="0.00" departDelay="0.45" arrival="355.00" arrivalLane="nt15_np10_0" arrivalPos="75.00" arrivalSpeed="8.59" duration="240.00" routeLength="915.09" waitingTime="79.00" waitingCount="10" stopTime="0.00" timeLoss="160.08" rerouteNo="0" devices="tripinfo_f_0_2.14" vType="type1" speedFactor="0.96" vaporized=""/>
    <tripinfo id="f_0_3.18" depart="148.00" departLane="np3_nt3_0" departPos="4.17" departSpeed="0.00" departDelay="0.72" arrival="358.00" arrivalLane="nt14_np11_0" arrivalPos="75.00" arrivalSpeed="8.19" duration="210.00" routeLength="946.92" waitingTime="74.00" waitingCount="6" stopTime="0.00" timeLoss="124.31" rerouteNo="0" devices="tripinfo_f_0_3.18" vType="type1" speedFactor="0.93" vaporized=""/>
    <tripinfo id="f_0_3.19" depart="156.00" departLane="np3_nt3_0" departPos="8.37" departSpeed="0.00" departDelay="0.54" arrival="360.00" arrivalLane="nt14_np11_0" arrivalPos="75.00" arrivalSpeed="10.94" duration="204.00" routeLength="942.72" waitingTime="83.00" waitingCount="7" stopTime="0.00" timeLoss="127.46" rerouteNo="0" devices="tripinfo_f_0_3.19" vType="type1" speedFactor="1.03" vaporized=""/>
    <tripinfo id="f_0_2.15" depart="123.00" departLane="np2_nt2_0" departPos="12.40" departSpeed="0.00" departDelay="0.27" arrival="362.00" arrivalLane="nt15_np10_0" arrivalPos="75.00" arrivalSpeed="11.15" duration="239.00" routeLength="938.68" waitingTime="77.00" waitingCount="8" stopTime="0.00" timeLoss="169.00" rerouteNo="0" devices="tripinfo_f_0_2.15" vType="type1" speedFactor="1.12" vaporized=""/>
    <tripinfo id="f_0_3.20" depart="164.00" departLane="np3_nt3_0" departPos="5.07" departSpeed="0.00" departDelay="0.36" arrival="366.00" arrivalLane="nt14_np11_0" arrivalPos="75.00" arrivalSpeed="10.33" duration="202.00" routeLength="946.02" waitingTime="75.00" waitingCount="8" stopTime="0.00" timeLoss="131.21" rerouteNo="0" devices="tripinfo_f_0_3.20" vType="type1" speedFactor="1.12" vaporized=""/>
    <tripinfo id="f_0_3.21" depart="172.00" departLane="np3_nt3_0" departPos="4.46" departSpeed="0.00" departDelay="0.18" arrival="368.00" arrivalLane="nt14_np11_0" arrivalPos="75.00" arrivalSpeed="9.86" duration="196.00" routeLength="946.63" waitingTime="76.00" waitingCount="8" stopTime="0.00" timeLoss="123.71" rerouteNo="0" devices="tripinfo_f_0_3.21" vType="type1" speedFactor="1.10" vaporized=""/>
    <tripinfo id="f_0_1.6" depart="82.00" departLane="np16_nt1_0" departPos="65.66" departSpeed="0.00" departDelay="0.18" arrival="373.00" arrivalLane="nt16_np8_0" arrivalPos="75.00" arrivalSpeed="16.39" duration="291.00" routeLength="1282.22" waitingTime="113.00" waitingCount="12" stopTime="0.00" timeLoss="193.46" rerouteNo="0" devices="tripinfo_f_0_1.6" vType="type1" speedFactor="0.92" vaporized=""/>
    <tripinfo id="f_0_2.16" depart="131.00" departLane="np2_nt2_0" departPos="47.65" departSpeed="0.00" departDelay="0.09" arrival="373.00" arrivalLane="nt15_np10_0" arrivalPos="75.00" arrivalSpeed="10.21" duration="242.00" routeLength="903.43" waitingTime="76.00" waitingCount="9" stopTime="0.00" timeLoss="161.74" rerouteNo="0" devices="tripinfo_f_0_2.16" vType="type1" speedFactor="0.94" vaporized=""/>
    <tripinfo id="f_0_2.17" depart="140.00" departLane="np2_nt2_0" departPos="36.92" departSpeed="0.00" departDelay="0.91" arrival="375.00" arrivalLane="nt15_np10_0" arrivalPos="75.00" arrivalSpeed="10.10" duration="235.00" routeLength="914.16" waitingTime="69.00" waitingCount="9" stopTime="0.00" timeLoss="160.52" rerouteNo="0" devices="tripinfo_f_0_2.17" vType="type1" speedFactor="1.03" vaporized=""/>
    <tripinfo id="f_0_1.7" depart="96.00" departLane="np16_nt1_0" departPos="17.80" departSpeed="0.00" departDelay="0.55" arrival="376.00" arrivalLane="nt16_np8_0" arrivalPos="75.00" arrivalSpeed="17.39" duration="280.00" routeLength="1330.08" waitingTime="79.00" waitingCount="12" stopTime="0.00" timeLoss="178.58" rerouteNo="0" devices="tripinfo_f_0_1.7" vType="type1" speedFactor="0.92" vaporized=""/>
    <tripinfo id="f_0_1.8" depart="110.00" departLane="np16_nt1_0" departPos="47.87" departSpeed="0.00" departDelay="0.91" arrival="377.00" arrivalLane="nt16_np8_0" arrivalPos="75.00" arrivalSpeed="20.69" duration="267.00" routeLength="1300.01" waitingTime="72.00" waitingCount="9" stopTime="0.00" timeLoss="180.23" rerouteNo="0" devices="tripinfo_f_0_1.8" vType="type1" speedFactor="1.05" vaporized=""/>
    <tripinfo id="f_0_3.22" depart="180.00" departLane="np3_nt3_0" departPos="0.00" departSpeed="0.00" departDelay="0.00" arrival="387.00" arrivalLane="nt14_np11_0" arrivalPos="75.00" arrivalSpeed="8.45" duration="207.00" routeLength="951.09" waitingTime="69.00" waitingCount="9" stopTime="0.00" timeLoss="124.65" rerouteNo="0" devices="tripinfo_f_0_3.22" vType="type1" speedFactor="0.97" vaporized=""/>
    <tripinfo id="f_0_3.23" depart="189.00" departLane="np3_nt3_0" departPos="4.23" departSpeed="0.00" departDelay="0.81" arrival="389.00" arrivalLane="nt14_np11_0" arrivalPos="75.00" arrivalSpeed="10.05" duration="200.00" routeLength="946.86" waitingTime="62.00" waitingCount="8" stopTime="0.00" timeLoss="124.13" rerouteNo="0" devices="tripinfo_f_0_3.23" vType="type1" speedFactor="1.04" vaporized=""/>
    <tripinfo id="f_0_3.24" depart="197.00" departLane="np3_nt3_0" departPos="0.00" departSpeed="0.00" departDelay="0.63" arrival="392.00" arrivalLane="nt14_np11_0" arrivalPos="75.00" arrivalSpeed="9.01" duration="195.00" routeLength="951.09" waitingTime="46.00" waitingCount="5" stopTime="0.00" timeLoss="108.30" rerouteNo="0" devices="tripinfo_f_0_3.24" vType="type1" speedFactor="0.92" vaporized=""/>
    <tripinfo id="f_0_3.25" depart="205.00" departLane="np3_nt3_0" departPos="9.93" departSpeed="0.00" departDelay="0.45" arrival="394.00" arrivalLane="nt14_np11_0" arrivalPos="75.00" arrivalSpeed="9.11" duration="189.00" routeLength="941.16" waitingTime="47.00" waitingCount="5" stopTime="0.00" timeLoss="105.89" rerouteNo="0" devices="tripinfo_f_0_3.25" vType="type1" speedFactor="0.94" vaporized=""/>
    <tripinfo id="f_0_3.26" depart="213.00" departLane="np3_nt3_0" departPos="14.74" departSpeed="0.00" departDelay="0.27" arrival="396.00" arrivalLane="nt14_np11_0" arrivalPos="75.00" arrivalSpeed="9.60" duration="183.00" routeLength="936.35" waitingTime="45.00" waitingCount="5" stopTime="0.00" timeLoss="106.92" rerouteNo="0" devices="tripinfo_f_0_3.26" vType="type1" speedFactor="1.03" vaporized=""/>
    <tripinfo id="f_0_3.27" depart="221.00" departLane="np3_nt3_0" departPos="2.98" departSpeed="0.00" departDelay="0.09" arrival="398.00" arrivalLane="nt14_np11_0" arrivalPos="75.00" arrivalSpeed="12.69" duration="177.00" routeLength="948.11" waitingTime="54.00" waitingCount="5" stopTime="0.00" timeLoss="108.70" rerouteNo="0" devices="tripinfo_f_0_3.27" vType="type1" speedFactor="1.17" vaporized=""/>
    <tripinfo id="f_0_2.18" depart="148.00" departLane="np2_nt2_0" departPos="8.45" departSpeed="0.00" departDelay="0.72" arrival="399.00" arrivalLane="nt15_np10_0" arrivalPos="75.00" arrivalSpeed="9.12" duration="251.00" routeLength="942.63" waitingTime="75.00" waitingCount="11" stopTime="0.00" timeLoss="165.48" rerouteNo="0" devices="tripinfo_f_0_2.18" vType="type1" speedFactor="0.93" vaporized=""/>