<?xml version="1.0" encoding="UTF-8"?>

<!-- generated on 2023-08-23 16:09:10 by Eclipse SUMO libsumo Version 1.18.0
<configuration xmlns:xsi="http://www.w3.org/2001/XMLSchema-instance" xsi:noNamespaceSchemaLocation="http://sumo.dlr.de/xsd/libsumoConfiguration.xsd">

    <input>
        <net-file value="/home/stefan/RESCO/./environments/arterial4x4/arterial4x4.net.xml"/>
        <route-files value="/home/stefan/RESCO/./environments/arterial4x4/arterial4x4_24.rou.xml"/>
    </input>

    <output>
        <tripinfo-output value="/home/stefan/results/IDDQN-tr0-arterial4x4-0-drq_norm-wait_norm/tripinfo_24.xml"/>
        <tripinfo-output.write-unfinished value="true"/>
    </output>

    <processing>
        <time-to-teleport value="-1"/>
    </processing>

    <report>
        <no-warnings value="True"/>
        <no-step-log value="True"/>
    </report>

    <random_number>
        <random value="true"/>
    </random_number>

</configuration>
-->

<tripinfos xmlns:xsi="http://www.w3.org/2001/XMLSchema-instance" xsi:noNamespaceSchemaLocation="http://sumo.dlr.de/xsd/tripinfo_file.xsd">
    <tripinfo id="f_0_3.0" depart="0.00" departLane="np3_nt3_0" departPos="21.09" departSpeed="0.00" departDelay="0.00" arrival="126.00" arrivalLane="nt14_np11_0" arrivalPos="75.00" arrivalSpeed="10.67" duration="126.00" routeLength="930.00" waitingTime="32.00" waitingCount="3" stopTime="0.00" timeLoss="51.07" rerouteNo="0" devices="tripinfo_f_0_3.0" vType="type1" speedFactor="1.03" vaporized=""/>
    <tripinfo id="f_0_0.0" depart="0.00" departLane="np13_nt13_0" departPos="8.86" departSpeed="0.00" departDelay="0.00" arrival="139.00" arrivalLane="nt4_np5_0" arrivalPos="75.00" arrivalSpeed="18.64" duration="139.00" routeLength="1339.03" waitingTime="13.00" waitingCount="3" stopTime="0.00" timeLoss="43.97" rerouteNo="0" devices="tripinfo_f_0_0.0" vType="type1" speedFactor="0.97" vaporized=""/>
    <tripinfo id="f_0_2.0" depart="0.00" departLane="np2_nt2_0" departPos="2.73" departSpeed="0.00" departDelay="0.00" arrival="144.00" arrivalLane="nt15_np10_0" arrivalPos="75.00" arrivalSpeed="7.43" duration="144.00" routeLength="948.35" waitingTime="28.00" waitingCount="4" stopTime="0.00" timeLoss="52.07" rerouteNo="0" devices="tripinfo_f_0_2.0" vType="type1" speedFactor="0.87" vaporized=""/>
    <tripinfo id="f_0_0.1" depart="14.00" departLane="np13_nt13_0" departPos="19.21" departSpeed="0.00" departDelay="0.36" arrival="168.00" arrivalLane="nt4_np5_0" arrivalPos="75.00" arrivalSpeed="18.55" duration="154.00" routeLength="1328.68" waitingTime="31.00" waitingCount="5" stopTime="0.00" timeLoss="62.82" rerouteNo="0" devices="tripinfo_f_0_0.1" vType="type1" speedFactor="1.01" vaporized=""/>
    <tripinfo id="f_0_0.2" depart="28.00" departLane="np13_nt13_0" departPos="3.72" departSpeed="0.00" departDelay="0.73" arrival="175.00" arrivalLane="nt4_np5_0" arrivalPos="75.00" arrivalSpeed="19.20" duration="147.00" routeLength="1344.17" waitingTime="21.00" waitingCount="2" stopTime="0.00" timeLoss="57.00" rerouteNo="0" devices="tripinfo_f_0_0.2" vType="type1" speedFactor="1.03" vaporized=""/>
    <tripinfo id="f_0_0.3" depart="41.00" departLane="np13_nt13_0" departPos="20.23" departSpeed="0.00" departDelay="0.09" arrival="180.00" arrivalLane="nt4_np5_0" arrivalPos="75.00" arrivalSpeed="17.19" duration="139.00" routeLength="1327.66" waitingTime="12.00" waitingCount="3" stopTime="0.00" timeLoss="39.95" rerouteNo="0" devices="tripinfo_f_0_0.3" vType="type1" speedFactor="0.93" vaporized=""/>
    <tripinfo id="f_0_2.1" depart="9.00" departLane="np2_nt2_0" departPos="30.96" departSpeed="0.00" departDelay="0.82" arrival="184.00" arrivalLane="nt15_np10_0" arrivalPos="75.00" arrivalSpeed="9.26" duration="175.00" routeLength="920.12" waitingTime="53.00" waitingCount="4" stopTime="0.00" timeLoss="85.37" rerouteNo="0" devices="tripinfo_f_0_2.1" vType="type1" speedFactor="0.86" vaporized=""/>
    <tripinfo id="f_0_2.2" depart="17.00" departLane="np2_nt2_0" departPos="45.91" departSpeed="0.00" departDelay="0.64" arrival="186.00" arrivalLane="nt15_np10_0" arrivalPos="75.00" arrivalSpeed="7.69" duration="169.00" routeLength="905.17" waitingTime="49.00" waitingCount="4" stopTime="0.00" timeLoss="84.41" rerouteNo="0" devices="tripinfo_f_0_2.2" vType="type1" speedFactor="0.90" vaporized=""/>
    <tripinfo id="f_0_3.1" depart="9.00" departLane="np3_nt3_0" departPos="29.38" departSpeed="0.00" departDelay="0.82" arrival="187.00" arrivalLane="nt14_np11_0" arrivalPos="75.00" arrivalSpeed="9.85" duration="178.00" routeLength="921.71" waitingTime="73.00" waitingCount="4" stopTime="0.00" timeLoss="102.70" rerouteNo="0" devices="tripinfo_f_0_3.1" vType="type1" speedFactor="1.02" vaporized=""/>
    <tripinfo id="f_0_2.3" depart="25.00" departLane="np2_nt2_0" departPos="36.58" departSpeed="0.00" departDelay="0.45" arrival="188.00" arrivalLane="nt15_np10_0" arrivalPos="75.00" arrivalSpeed="9.89" duration="163.00" routeLength="914.50" waitingTime="47.00" waitingCount="5" stopTime="0.00" timeLoss="86.97" rerouteNo="0" devices="tripinfo_f_0_2.3" vType="type1" speedFactor="1.02" vaporized=""/>
    <tripinfo id="f_0_0.4" depart="55.00" departLane="np13_nt13_0" departPos="64.70" departSpeed="0.00" departDelay="0.46" arrival="188.00" arrivalLane="nt4_np5_0" arrivalPos="75.00" arrivalSpeed="20.36" duration="133.00" routeLength="1283.19" waitingTime="10.00" waitingCount="3" stopTime="0.00" timeLoss="53.02" rerouteNo="0" devices="tripinfo_f_0_0.4" vType="type1" speedFactor="1.13" vaporized=""/>
    <tripinfo id="f_0_3.2" depart="17.00" departLane="np3_nt3_0" departPos="13.29" departSpeed="0.00" departDelay="0.64" arrival="189.00" arrivalLane="nt14_np11_0" arrivalPos="75.00" arrivalSpeed="11.83" duration="172.00" routeLength="937.80" waitingTime="66.00" waitingCount="6" stopTime="0.00" timeLoss="103.55" rerouteNo="0" devices="tripinfo_f_0_3.2" vType="type1" speedFactor="1.15" vaporized=""/>
    <tripinfo id="f_0_1.0" depart="0.00" departLane="np16_nt1_0" departPos="2.16" departSpeed="0.00" departDelay="0.00" arrival="203.00" arrivalLane="nt16_np8_0" arrivalPos="75.00" arrivalSpeed="16.06" duration="203.00" routeLength="1345.72" waitingTime="58.00" waitingCount="4" stopTime="0.00" timeLoss="95.41" rerouteNo="0" devices="tripinfo_f_0_1.0" vType="type1" speedFactor="0.87" vaporized=""/>
    <tripinfo id="f_0_3.3" depart="25.00" departLane="np3_nt3_0" departPos="36.19" departSpeed="0.00" departDelay="0.45" arrival="205.00" arrivalLane="nt14_np11_0" arrivalPos="75.00" arrivalSpeed="11.50" duration="180.00" routeLength="914.90" waitingTime="78.00" waitingCount="7" stopTime="0.00" timeLoss="118.08" rerouteNo="0" devices="tripinfo_f_0_3.3" vType="type1" speedFactor="1.23" vaporized=""/>
    <tripinfo id="f_0_2.4" depart="33.00" departLane="np2_nt2_0" departPos="36.83" departSpeed="0.00" departDelay="0.27" arrival="208.00" arrivalLane="nt15_np10_0" arrivalPos="75.00" arrivalSpeed="9.28" duration="175.00" routeLength="914.25" waitingTime="61.00" waitingCount="6" stopTime="0.00" timeLoss="99.47" rerouteNo="0" devices="tripinfo_f_0_2.4" vType="type1" speedFactor="1.02" vaporized=""/>
    <tripinfo id="f_0_3.4" depart="33.00" departLane="np3_nt3_0" departPos="21.67" departSpeed="0.00" departDelay="0.27" arrival="210.00" arrivalLane="nt14_np11_0" arrivalPos="75.00" arrivalSpeed="10.71" duration="177.00" routeLength="929.42" waitingTime="56.00" waitingCount="4" stopTime="0.00" timeLoss="96.61" rerouteNo="0" devices="tripinfo_f_0_3.4" vType="type1" speedFactor="0.98" vaporized=""/>
    <tripinfo id="f_0_2.5" depart="41.00" departLane="np2_nt2_0" departPos="24.38" departSpeed="0.00" departDelay="0.09" arrival="236.00" arrivalLane="nt15_np10_0" arrivalPos="75.00" arrivalSpeed="6.96" duration="195.00" routeLength="926.70" waitingTime="48.00" waitingCount="7" stopTime="0.00" timeLoss="91.04" rerouteNo="0" devices="tripinfo_f_0_2.5" vType="type1" speedFactor="0.75" vaporized=""/>
    <tripinfo id="f_0_2.6" depart="50.00" departLane="np2_nt2_0" departPos="35.05" departSpeed="0.00" departDelay="0.91" arrival="238.00" arrivalLane="nt15_np10_0" arrivalPos="75.00" arrivalSpeed="10.45" duration="188.00" routeLength="916.03" waitingTime="46.00" waitingCount="7" stopTime="0.00" timeLoss="115.33" rerouteNo="0" devices="tripinfo_f_0_2.6" vType="type1" speedFactor="1.06" vaporized=""/>
    <tripinfo id="f_0_3.5" depart="41.00" departLane="np3_nt3_0" departPos="36.71" departSpeed="0.00" departDelay="0.09" arrival="243.00" arrivalLane="nt14_np11_0" arrivalPos="75.00" arrivalSpeed="9.38" duration="202.00" routeLength="914.38" waitingTime="83.00" waitingCount="7" stopTime="0.00" timeLoss="120.84" rerouteNo="0" devices="tripinfo_f_0_3.5" vType="type1" speedFactor="0.94" vaporized=""/>
    <tripinfo id="f_0_3.6" depart="50.00" departLane="np3_nt3_0" departPos="52.24" departSpeed="0.00" departDelay="0.91" arrival="245.00" arrivalLane="nt14_np11_0" arrivalPos="75.00" arrivalSpeed="9.69" duration="195.00" routeLength="898.85" waitingTime="94.00" waitingCount="6" stopTime="0.00" timeLoss="124.41" rerouteNo="0" devices="tripinfo_f_0_3.6" vType="type1" speedFactor="1.06" vaporized=""/>
    <tripinfo id="f_0_3.7" depart="58.00" departLane="np3_nt3_0" departPos="49.84" departSpeed="0.00" departDelay="0.73" arrival="246.00" arrivalLane="nt14_np11_0" arrivalPos="75.00" arrivalSpeed="11.12" duration="188.00" routeLength="901.25" waitingTime="82.00" waitingCount="5" stopTime="0.00" timeLoss="115.15" rerouteNo="0" devices="tripinfo_f_0_3.7" vType="type1" speedFactor="1.03" vaporized=""/>
    <tripinfo id="f_0_3.8" depart="66.00" departLane="np3_nt3_0" departPos="1.63" departSpeed="0.00" departDelay="0.54" arrival="250.00" arrivalLane="nt14_np11_0" arrivalPos="75.00" arrivalSpeed="9.46" duration="184.00" routeLength="949.46" waitingTime="52.00" waitingCount="6" stopTime="0.00" timeLoss="94.16" rerouteNo="0" devices="tripinfo_f_0_3.8" vType="type1" speedFactor="0.89" vaporized=""/>
    <tripinfo id="f_0_2.7" depart="58.00" departLane="np2_nt2_0" departPos="48.49" departSpeed="0.00" departDelay="0.73" arrival="252.00" arrivalLane="nt15_np10_0" arrivalPos="75.00" arrivalSpeed="9.06" duration="194.00" routeLength="902.59" waitingTime="51.00" waitingCount="7" stopTime="0.00" timeLoss="121.64" rerouteNo="0" devices="tripinfo_f_0_2.7" vType="type1" speedFactor="1.04" vaporized=""/>
    <tripinfo id="f_0_3.9" depart="74.00" departLane="np3_nt3_0" departPos="16.75" departSpeed="0.00" departDelay="0.36" arrival="252.00" arrivalLane="nt14_np11_0" arrivalPos="75.00" arrivalSpeed="8.78" duration="178.00" routeLength="934.34" waitingTime="52.00" waitingCount="7" stopTime="0.00" timeLoss="100.36" rerouteNo="0" devices="tripinfo_f_0_3.9" vType="type1" speedFactor="1.01" vaporized=""/>
    <tripinfo id="f_0_2.8" depart="66.00" departLane="np2_nt2_0" departPos="40.41" departSpeed="0.00" departDelay="0.54" arrival="255.00" arrivalLane="nt15_np10_0" arrivalPos="75.00" arrivalSpeed="7.65" duration="189.00" routeLength="910.67" waitingTime="49.00" waitingCount="6" stopTime="0.00" timeLoss="105.23" rerouteNo="0" devices="tripinfo_f_0_2.8" vType="type1" speedFactor="0.91" vaporized=""/>
    <tripinfo id="f_0_0.5" depart="69.00" departLane="np13_nt13_0" departPos="10.20" departSpeed="0.00" departDelay="0.82" arrival="258.00" arrivalLane="nt4_np5_0" arrivalPos="75.00" arrivalSpeed="16.70" duration="189.00" routeLength="1337.69" waitingTime="46.00" waitingCount="6" stopTime="0.00" timeLoss="83.58" rerouteNo="0" devices="tripinfo_f_0_0.5" vType="type1" speedFactor="0.88" vaporized=""/>
    <tripinfo id="f_0_2.9" depart="74.00" departLane="np2_nt2_0" departPos="52.10" departSpeed="0.00" departDelay="0.36" arrival="262.00" arrivalLane="nt15_np10_0" arrivalPos="75.00" arrivalSpeed="8.67" duration="188.00" routeLength="898.98" waitingTime="48.00" waitingCount="10" stopTime="0.00" timeLoss="111.56" rerouteNo="0" devices="tripinfo_f_0_2.9" vType="type1" speedFactor="0.98" vaporized=""/>
    <tripinfo id="f_0_0.6" depart="82.00" departLane="np13_nt13_0" departPos="5.79" departSpeed="0.00" departDelay="0.18" arrival="266.00" arrivalLane="nt4_np5_0" arrivalPos="75.00" arrivalSpeed="12.29" duration="184.00" routeLength="1342.10" waitingTime="19.00" waitingCount="3" stopTime="0.00" timeLoss="53.00" rerouteNo="0" devices="tripinfo_f_0_0.6" vType="type1" speedFactor="0.71" vaporized=""/>
    <tripinfo id="f_0_0.7" depart="96.00" departLane="np13_nt13_0" departPos="35.96" departSpeed="0.00" departDelay="0.55" arrival="267.00" arrivalLane="nt4_np5_0" arrivalPos="75.00" arrivalSpeed="18.13" duration="171.00" routeLength="1311.93" waitingTime="28.00" waitingCount="4" stopTime="0.00" timeLoss="73.50" rerouteNo="0" devices="tripinfo_f_0_0.7" vType="type1" speedFactor="0.94" vaporized=""/>
    <tripinfo id="f_0_2.10" depart="82.00" departLane="np2_nt2_0" departPos="18.44" departSpeed="0.00" departDelay="0.18" arrival="282.00" arrivalLane="nt15_np10_0" arrivalPos="75.00" arrivalSpeed="9.03" duration="200.00" routeLength="932.64" waitingTime="50.00" waitingCount="8" stopTime="0.00" timeLoss="124.50" rerouteNo="0" devices="tripinfo_f_0_2.10" vType="type1" speedFactor="1.05" vaporized=""/>
    <tripinfo id="f_0_1.1" depart="14.00" departLane="np16_nt1_0" departPos="44.00" departSpeed="0.00" departDelay="0.36" arrival="292.00" arrivalLane="nt16_np8_0" arrivalPos="75.00" arrivalSpeed="22.81" duration="278.00" routeLength="1303.88" waitingTime="104.00" waitingCount="14" stopTime="0.00" timeLoss="199.53" rerouteNo="0" devices="tripinfo_f_0_1.1" vType="type1" speedFactor="1.16" vaporized=""/>
    <tripinfo id="f_0_2.11" depart="90.00" departLane="np2_nt2_0" departPos="26.43" departSpeed="0.00" departDelay="0.00" arrival="293.00" arrivalLane="nt15_np10_0" arrivalPos="75.00" arrivalSpeed="8.38" duration="203.00" routeLength="924.65" waitingTime="60.00" waitingCount="12" stopTime="0.00" timeLoss="123.45" rerouteNo="0" devices="tripinfo_f_0_2.11" vType="type1" speedFactor="0.98" vaporized=""/>
    <tripinfo id="f_0_1.2" depart="28.00" departLane="np16_nt1_0" departPos="37.51" departSpeed="0.00" departDelay="0.73" arrival="294.00" arrivalLane="nt16_np8_0" arrivalPos="75.00" arrivalSpeed="22.39" duration="266.00" routeLength="1310.37" waitingTime="96.00" waitingCount="14" stopTime="0.00" timeLoss="185.58" rerouteNo="0" devices="tripinfo_f_0_1.2" vType="type1" speedFactor="1.13" vaporized=""/>
    <tripinfo id="f_0_3.10" depart="82.00" departLane="np3_nt3_0" departPos="5.85" departSpeed="0.00" departDelay="0.18" arrival="298.00" arrivalLane="nt14_np11_0" arrivalPos="75.00" arrivalSpeed="9.03" duration="216.00" routeLength="945.24" waitingTime="74.00" waitingCount="8" stopTime="0.00" timeLoss="129.47" rerouteNo="0" devices="tripinfo_f_0_3.10" vType="type1" speedFactor="0.91" vaporized=""/>
    <tripinfo id="f_0_3.11" depart="90.00" departLane="np3_nt3_0" departPos="2.48" departSpeed="0.00" departDelay="0.00" arrival="300.00" arrivalLane="nt14_np11_0" arrivalPos="75.00" arrivalSpeed="9.17" duration="210.00" routeLength="948.61" waitingTime="74.00" waitingCount="9" stopTime="0.00" timeLoss="133.35" rerouteNo="0" devices="tripinfo_f_0_3.11" vType="type1" speedFactor="1.04" vaporized=""/>
    <tripinfo id="f_0_2.12" depart="99.00" departLane="np2_nt2_0" departPos="19.50" departSpeed="0.00" departDelay="0.82" arrival="301.00" arrivalLane="nt15_np10_0" arrivalPos="75.00" arrivalSpeed="11.16" duration="202.00" routeLength="931.58" waitingTime="51.00" waitingCount="11" stopTime="0.00" timeLoss="134.85" rerouteNo="0" devices="tripinfo_f_0_2.12" vType="type1" speedFactor="1.16" vaporized=""/>
    <tripinfo id="f_0_1.3" depart="41.00" departLane="np16_nt1_0" departPos="44.69" departSpeed="0.00" departDelay="0.09" arrival="308.00" arrivalLane="nt16_np8_0" arrivalPos="75.00" arrivalSpeed="19.64" duration="267.00" routeLength="1303.19" waitingTime="88.00" waitingCount="14" stopTime="0.00" timeLoss="180.22" rerouteNo="0" devices="tripinfo_f_0_1.3" vType="type1" speedFactor="1.05" vaporized=""/>
    <tripinfo id="f_0_2.13" depart="107.00" departLane="np2_nt2_0" departPos="47.36" departSpeed="0.00" departDelay="0.63" arrival="312.00" arrivalLane="nt15_np10_0" arrivalPos="75.00" arrivalSpeed="9.96" duration="205.00" routeLength="903.72" waitingTime="54.00" waitingCount="10" stopTime="0.00" timeLoss="133.42" rerouteNo="0" devices="tripinfo_f_0_2.13" vType="type1" speedFactor="1.06" vaporized=""/>
    <tripinfo id="f_0_0.8" depart="110.00" departLane="np13_nt13_0" departPos="54.77" departSpeed="0.00" departDelay="0.91" arrival="328.00" arrivalLane="nt4_np5_0" arrivalPos="75.00" arrivalSpeed="19.36" duration="218.00" routeLength="1293.12" waitingTime="85.00" waitingCount="6" stopTime="0.00" timeLoss="127.40" rerouteNo="0" devices="tripinfo_f_0_0.8" vType="type1" speedFactor="1.00" vaporized=""/>
    <tripinfo id="f_0_1.4" depart="55.00" departLane="np16_nt1_0" departPos="37.15" departSpeed="0.00" departDelay="0.46" arrival="334.00" arrivalLane="nt16_np8_0" arrivalPos="75.00" arrivalSpeed="16.80" duration="279.00" routeLength="1310.73" waitingTime="96.00" waitingCount="14" stopTime="0.00" timeLoss="181.94" rerouteNo="0" devices="tripinfo_f_0_1.4" vType="type1" speedFactor="0.95" vaporized=""/>
    <tripinfo id="f_0_1.5" depart="69.00" departLane="np16_nt1_0" departPos="36.41" departSpeed="0.00" departDelay="0.82" arrival="335.00" arrivalLane="nt16_np8_0" arrivalPos="75.00" arrivalSpeed="21.27" duration="266.00" routeLength="1311.47" waitingTime="83.00" waitingCount="19" stopTime="0.00" timeLoss="185.03" rerouteNo="0" devices="tripinfo_f_0_1.5" vType="type1" speedFactor="1.13" vaporized=""/>
    <tripinfo id="f_0_1.6" depart="82.00" departLane="np16_nt1_0" departPos="27.47" departSpeed="0.00" departDelay="0.18" arrival="339.00" arrivalLane="nt16_np8_0" arrivalPos="75.00" arrivalSpeed="16.75" duration="257.00" routeLength="1320.41" waitingTime="66.00" waitingCount="14" stopTime="0.00" timeLoss="160.91" rerouteNo="0" devices="tripinfo_f_0_1.6" vType="type1" speedFactor="0.96" vaporized=""/>
    <tripinfo id="f_0_0.9" depart="123.00" departLane="np13_nt13_0" departPos="55.71" departSpeed="0.00" departDelay="0.28" arrival="339.00" arrivalLane="nt4_np5_0" arrivalPos="75.00" arrivalSpeed="19.88" duration="216.00" routeLength="1292.18" waitingTime="83.00" waitingCount="7" stopTime="0.00" timeLoss="125.39" rerouteNo="0" devices="tripinfo_f_0_0.9" vType="type1" speedFactor="1.01" vaporized=""/>
    <tripinfo id="f_0_0.10" depart="137.00" departLane="np13_nt13_0" departPos="33.56" departSpeed="0.00" departDelay="0.64" arrival="340.00" arrivalLane="nt4_np5_0" arrivalPos="75.00" arrivalSpeed="21.70" duration="203.00" routeLength="1314.33" waitingTime="68.00" waitingCount="7" stopTime="0.00" timeLoss="119.55" rerouteNo="0" devices="tripinfo_f_0_0.10" vType="type1" speedFactor="1.09" vaporized=""/>
    <tripinfo id="f_0_2.14" depart="115.00" departLane="np2_nt2_0" departPos="49.11" departSpeed="0.00" departDelay="0.45" arrival="342.00" arrivalLane="nt15_np10_0" arrivalPos="75.00" arrivalSpeed="10.22" duration="227.00" routeLength="901.97" waitingTime="65.00" waitingCount="13" stopTime="0.00" timeLoss="146.85" rerouteNo="0" devices="tripinfo_f_0_2.14" vType="type1" speedFactor="0.94" vaporized=""/>
    <tripinfo id="f_0_0.11" depart="150.00" departLane="np13_nt13_0" departPos="34.23" departSpeed="0.00" departDelay="0.00" arrival="343.00" arrivalLane="nt4_np5_0" arrivalPos="75.00" arrivalSpeed="17.83" duration="193.00" routeLength="1313.66" waitingTime="47.00" waitingCount="7" stopTime="0.00" timeLoss="90.82" rerouteNo="0" devices="tripinfo_f_0_0.11" vType="type1" speedFactor="0.90" vaporized=""/>
    <tripinfo id="f_0_2.15" depart="123.00" departLane="np2_nt2_0" departPos="53.81" departSpeed="0.00" departDelay="0.27" arrival="344.00" arrivalLane="nt15_np10_0" arrivalPos="75.00" arrivalSpeed="11.64" duration="221.00" routeLength="897.27" waitingTime="43.00" waitingCount="10" stopTime="0.00" timeLoss="151.11" rerouteNo="0" devices="tripinfo_f_0_2.15" vType="type1" speedFactor="1.08" vaporized=""/>
    <tripinfo id="f_0_0.12" depart="164.00" departLane="np13_nt13_0" departPos="27.22" departSpeed="0.00" departDelay="0.37" arrival="344.00" arrivalLane="nt4_np5_0" arrivalPos="75.00" arrivalSpeed="17.82" duration="180.00" routeLength="1320.67" waitingTime="39.00" waitingCount="6" stopTime="0.00" timeLoss="93.02" rerouteNo="0" devices="tripinfo_f_0_0.12" vType="type1" speedFactor="1.05" vaporized=""/>
    <tripinfo id="f_0_0.13" depart="178.00" departLane="np13_nt13_0" departPos="7.63" departSpeed="0.00" departDelay="0.73" arrival="353.00" arrivalLane="nt4_np5_0" arrivalPos="75.00" arrivalSpeed="19.20" duration="175.00" routeLength="1340.26" waitingTime="33.00" waitingCount="7" stopTime="0.00" timeLoss="80.38" rerouteNo="0" devices="tripinfo_f_0_0.13" vType="type1" speedFactor="0.98" vaporized=""/>
    <tripinfo id="f_0_2.16" depart="131.00" departLane="np2_nt2_0" departPos="27.84" departSpeed="0.00" departDelay="0.09" arrival="358.00" arrivalLane="nt15_np10_0" arrivalPos="75.00" arrivalSpeed="9.19" duration="227.00" routeLength="923.24" waitingTime="50.00" waitingCount="11" stopTime="0.00" timeLoss="152.20" rerouteNo="0" devices="tripinfo_f_0_2.16" vType="type1" speedFactor="1.03" vaporized=""/>
    <tripinfo id="f_0_1.7" depart="96.00" departLane="np16_nt1_0" departPos="27.21" departSpeed="0.00" departDelay="0.55" arrival="360.00" arrivalLane="nt16_np8_0" arrivalPos="75.00" arrivalSpeed="18.20" duration="264.00" routeLength="1320.67" waitingTime="51.00" waitingCount="13" stopTime="0.00" timeLoss="168.61" rerouteNo="0" devices="tripinfo_f_0_1.7" vType="type1" speedFactor="0.97" vaporized=""/>
    <tripinfo id="f_0_3.12" depart="99.00" departLane="np3_nt3_0" departPos="4.93" departSpeed="0.00" departDelay="0.82" arrival="363.00" arrivalLane="nt14_np11_0" arrivalPos="75.00" arrivalSpeed="8.33" duration="264.00" routeLength="946.16" waitingTime="143.00" waitingCount="7" stopTime="0.00" timeLoss="180.37" rerouteNo="0" devices="tripinfo_f_0_3.12" vType="type1" speedFactor="0.95" vaporized=""/>
    <tripinfo id="f_0_0.14" depart="191.00" departLane="np13_nt13_0" departPos="18.70" departSpeed="0.00" departDelay="0.10" arrival="369.00" arrivalLane="nt4_np5_0" arrivalPos="75.00" arrivalSpeed="17.80" duration="178.00" routeLength="1329.19" waitingTime="44.00" waitingCount="4" stopTime="0.00" timeLoss="84.76" rerouteNo="0" devices="tripinfo_f_0_0.14" vType="type1" speedFactor="0.99" vaporized=""/>
    <tripinfo id="f_0_3.13" depart="107.00" departLane="np3_nt3_0" departPos="6.00" departSpeed="0.00" departDelay="0.63" arrival="371.00" arrivalLane="nt14_np11_0" arrivalPos="75.00" arrivalSpeed="9.80" duration="264.00" routeLength="945.09" waitingTime="147.00" waitingCount="10" stopTime="0.00" timeLoss="192.36" rerouteNo="0" devices="tripinfo_f_0_3.13" vType="type1" speedFactor="1.10" vaporized=""/>
    <tripinfo id="f_0_3.14" depart="115.00" departLane="np3_nt3_0" departPos="5.34" departSpeed="0.00" departDelay="0.45" arrival="374.00" arrivalLane="nt14_np11_0" arrivalPos="75.00" arrivalSpeed="10.08" duration="259.00" routeLength="945.75" waitingTime="129.00" waitingCount="9" stopTime="0.00" timeLoss="178.17" rerouteNo="0" devices="tripinfo_f_0_3.14" vType="type1" speedFactor="0.98" vaporized=""/>
    <tripinfo id="f_0_3.15" depart="123.00" departLane="np3_nt3_0" departPos="10.68" departSpeed="0.00" departDelay="0.27" arrival="376.00" arrivalLane="nt14_np11_0" arrivalPos="75.00" arrivalSpeed="11.26" duration="253.00" routeLength="940.41" waitingTime="117.00" waitingCount="9" stopTime="0.00" timeLoss="178.77" rerouteNo="0" devices="tripinfo_f_0_3.15" vType="type1" speedFactor="1.06" vaporized=""/>
    <tripinfo id="f_0_3.16" depart="131.00" departLane="np3_nt3_0" departPos="8.45" departSpeed="0.00" departDelay="0.09" arrival="379.00" arrivalLane="nt14_np11_0" arrivalPos="75.00" arrivalSpeed="8.70" duration="248.00" routeLength="942.64" waitingTime="108.00" waitingCount="10" stopTime="0.00" timeLoss="163.79" rerouteNo="0" devices="tripinfo_f_0_3.16" vType="type1" speedFactor="0.94" vaporized=""/>
    <tripinfo id="f_0_3.17" depart="140.00" departLane="np3_nt3_0" departPos="17.15" departSpeed="0.00" departDelay="0.91" arrival="381.00" arrivalLane="nt14_np11_0" arrivalPos="75.00" arrivalSpeed="9.90" duration="241.00" routeLength="933.94" waitingTime="97.00" waitingCount="8" stopTime="0.00" timeLoss="170.10" rerouteNo="0" devices="tripinfo_f_0_3.17" vType="type1" speedFactor="1.12" vaporized=""/>
    <tripinfo id="f_0_2.17" depart="140.00" departLane="np2_nt2_0" departPos="23.60" departSpeed="0.00" departDelay="0.91" arrival="382.00" arrivalLane="nt15_np10_0" arrivalPos="75.00" arrivalSpeed="10.09" duration="242.00" routeLength="927.48" waitingTime="57.00" waitingCount="10" stopTime="0.00" timeLoss="171.44" rerouteNo="0" devices="tripinfo_f_0_2.17" vType="type1" speedFactor="1.11" vaporized=""/>
    <tripinfo id="f_0_3.18" depart="148.00" departLane="np3_nt3_0" departPos="6.73" departSpeed="0.00" departDelay="0.72" arrival="383.00" arrivalLane="nt14_np11_0" arrivalPos="75.00" arrivalSpeed="10.75" duration="235.00" routeLength="944.36" waitingTime="87.00" waitingCount="7" stopTime="0.00" timeLoss="162.61" rerouteNo="0" devices="tripinfo_f_0_3.18" vType="type1" speedFactor="1.10" vaporized=""/>
    <tripinfo id="f_0_1.8" depart="110.00" departLane="np16_nt1_0" departPos="9.18" departSpeed="0.00" departDelay="0.91" arrival="384.00" arrivalLane="nt16_np8_0" arrivalPos="75.00" arrivalSpeed="19.12" duration="274.00" routeLength="1338.70" waitingTime="63.00" waitingCount="13" stopTime="0.00" timeLoss="176.58" rerouteNo="0" devices="tripinfo_f_0_1.8" vType="type1" speedFactor="0.96" vaporized=""/>
    <tripinfo id="f_0_3.19" depart="156.00" departLane="np3_nt3_0" departPos="6.42" departSpeed="0.00" departDelay="0.54" arrival="385.00" arrivalLane="nt14_np11_0" arrivalPos="75.00" arrivalSpeed="11.51" duration="229.00" routeLength="944.67" waitingTime="74.00" waitingCount="7" stopTime="0.00" timeLoss="155.59" rerouteNo="0" devices="tripinfo_f_0_3.19" vType="type1" speedFactor="1.09" vaporized=""/>
    <tripinfo id="f_0_3.20" depart="164.00" departLane="np3_nt3_0" departPos="10.59" departSpeed="0.00" departDelay="0.36" arrival="387.00" arrivalLane="nt14_np11_0" arrivalPos="75.00" arrivalSpeed="9.95" duration="223.00" routeLength="940.50" waitingTime="81.00" waitingCount="6" stopTime="0.00" timeLoss="141.32" rerouteNo="0" devices="tripinfo_f_0_3.20" vType="type1" speedFactor="0.97" vaporized=""/>
    <tripinfo id="f_0_3.21" depart="172.00" departLane="np3_nt3_0" departPos="15.10" departSpeed="0.00" departDelay="0.18" arrival="389.00" arrivalLane="nt14_np11_0" arrivalPos="75.00" arrivalSpeed="12.12" duration="217.00" routeLength="935.99" waitingTime="76.00" waitingCount="5" stopTime="0.00" timeLoss="146.01" rerouteNo="0" devices="tripinfo_f_0_3.21" vType="type1" speedFactor="1.12" vaporized=""/>
    <tripinfo id="f_0_3.22" depart="180.00" departLane="np3_nt3_0" departPos="16.13" departSpeed="0.00" departDelay="0.00" arrival="391.00" arrivalLane="nt14_np11_0" arrivalPos="75.00" arrivalSpeed="10.35" duration="211.00" routeLength="934.96" waitingTime="73.00" waitingCount="6" stopTime="0.00" timeLoss="138.30" rerouteNo="0" devices="tripinfo_f_0_3.22" vType="type1" speedFactor="1.09" vaporized=""/>
    <tripinfo id="f_0_2.18" depart="148.00" departLane="np2_nt2_0" departPos="0.59" departSpeed="0.00" departDelay="0.72" arrival="392.00" arrivalLane="nt15_np10_0" arrivalPos="75.00" arrivalSpeed="8.65" duration="244.00" routeLength="950.49" waitingTime="75.00" waitingCount="13" stopTime="0.00" timeLoss="164.75" rerouteNo="0" devices="tripinfo_f_0_2.18" vType="type1" speedFactor="1.00" vaporized=""/>
    <tripinfo id="f_0_0.15" depart="205.00" departLane="np13_nt13_0" departPos="46.30" departSpeed="0.00" departDelay="0.46" arrival="393.00" arrivalLane="nt4_np5_0" arrivalPos="75.00" arrivalSpeed="19.83" duration="188.00" routeLength="1301.59" waitingTime="65.00" waitingCount="4" stopTime="0.00" timeLoss="98.16" rerouteNo="0" devices="tripinfo_f_0_0.15" vType="type1" speedFactor="1.01" vaporized=""/>
    <tripinfo id="f_0_2.19" depart="156.00" departLane="np2_nt2_0" departPos="28.62" departSpeed="0.00" departDelay="0.54" arrival="396.00" arrivalLane="nt15_np10_0" arrivalPos="75.00" arrivalSpeed="8.95" duration="240.00" routeLength="922.46" waitingTime="61.00" waitingCount="10" stopTime="0.00" timeLoss="151.48" rerouteNo="0" devices="tripinfo_f_0_2.19" vType="type1" speedFactor="0.88" vaporized=""/>
    <tripinfo id="f_0_2.20" depart="164.00" departLane="np2_nt2_0" departPos="59.63" departSpeed="0.00" departDelay="0.36" arrival="403.00" arrivalLane="nt15_np10_0" arrivalPos="75.00" arrivalSpeed="9.18" duration="239.00" routeLength="891.45" waitingTime="62.00" waitingCount="11" stopTime="0.00" timeLoss="158.17" rerouteNo="0" devices="tripinfo_f_0_2.20" vType="type1" speedFactor="0.93" vaporized=""/>
    <tripinfo id="f_0_3.23" depart="189.00" departLane="np3_nt3_0" departPos="0.47" departSpeed="0.00" departDelay="0.81" arrival="408.00" arrivalLane="nt14_np11_0" arrivalPos="75.00" arrivalSpeed="8.58" duration="219.00" routeLength="950.62" waitingTime="97.00" waitingCount="5" stopTime="0.00" timeLoss="135.20" rerouteNo="0" devices="tripinfo_f_0_3.23" vType="type1" speedFactor="0.96" vaporized=""/>
    <tripinfo id="f_0_3.24" depart="197.00" departLane="np3_nt3_0" departPos="0.00" departSpeed="0.00" departDelay="0.63" arrival="415.00" arrivalLane="nt14_np11_0" arrivalPos="75.00" arrivalSpeed="5.92" duration="218.00" routeLength="951.09" waitingTime="75.00" waitingCount="3" stopTime="0.00" timeLoss="113.06" rerouteNo="0" devices="tripinfo_f_0_3.24" vType="type1" speedFactor="0.76" vaporized=""/>