<?xml version="1.0" encoding="UTF-8"?>

<!-- generated on 2023-08-23 16:05:00 by Eclipse SUMO libsumo Version 1.18.0
<configuration xmlns:xsi="http://www.w3.org/2001/XMLSchema-instance" xsi:noNamespaceSchemaLocation="http://sumo.dlr.de/xsd/libsumoConfiguration.xsd">

    <input>
        <net-file value="/home/stefan/RESCO/./environments/arterial4x4/arterial4x4.net.xml"/>
        <route-files value="/home/stefan/RESCO/./environments/arterial4x4/arterial4x4_19.rou.xml"/>
    </input>

    <output>
        <tripinfo-output value="/home/stefan/results/IDDQN-tr0-arterial4x4-0-drq_norm-wait_norm/tripinfo_19.xml"/>
        <tripinfo-output.write-unfinished value="true"/>
    </output>

    <processing>
        <time-to-teleport value="-1"/>
    </processing>

    <report>
        <no-warnings value="True"/>
        <no-step-log value="True"/>
    </report>

    <random_number>
        <random value="true"/>
    </random_number>

</configuration>
-->

<tripinfos xmlns:xsi="http://www.w3.org/2001/XMLSchema-instance" xsi:noNamespaceSchemaLocation="http://sumo.dlr.de/xsd/tripinfo_file.xsd">
    <tripinfo id="f_0_2.0" depart="0.00" departLane="np2_nt2_0" departPos="14.38" departSpeed="0.00" departDelay="0.00" arrival="84.00" arrivalLane="nt15_np10_0" arrivalPos="75.00" arrivalSpeed="12.74" duration="84.00" routeLength="936.70" waitingTime="2.00" waitingCount="2" stopTime="0.00" timeLoss="18.19" rerouteNo="0" devices="tripinfo_f_0_2.0" vType="type1" speedFactor="1.19" vaporized=""/>
    <tripinfo id="f_0_2.1" depart="9.00" departLane="np2_nt2_0" departPos="43.54" departSpeed="0.00" departDelay="0.82" arrival="128.00" arrivalLane="nt15_np10_0" arrivalPos="75.00" arrivalSpeed="7.30" duration="119.00" routeLength="907.54" waitingTime="10.00" waitingCount="3" stopTime="0.00" timeLoss="33.07" rerouteNo="0" devices="tripinfo_f_0_2.1" vType="type1" speedFactor="0.89" vaporized=""/>
    <tripinfo id="f_0_0.0" depart="0.00" departLane="np13_nt13_0" departPos="60.66" departSpeed="0.00" departDelay="0.00" arrival="136.00" arrivalLane="nt4_np5_0" arrivalPos="75.00" arrivalSpeed="20.47" duration="136.00" routeLength="1287.23" waitingTime="32.00" waitingCount="2" stopTime="0.00" timeLoss="53.39" rerouteNo="0" devices="tripinfo_f_0_0.0" vType="type1" speedFactor="1.10" vaporized=""/>
    <tripinfo id="f_0_3.0" depart="0.00" departLane="np3_nt3_0" departPos="37.39" departSpeed="0.00" departDelay="0.00" arrival="149.00" arrivalLane="nt14_np11_0" arrivalPos="75.00" arrivalSpeed="9.30" duration="149.00" routeLength="913.70" waitingTime="35.00" waitingCount="2" stopTime="0.00" timeLoss="61.19" rerouteNo="0" devices="tripinfo_f_0_3.0" vType="type1" speedFactor="0.88" vaporized=""/>
    <tripinfo id="f_0_1.0" depart="0.00" departLane="np16_nt1_0" departPos="31.22" departSpeed="0.00" departDelay="0.00" arrival="154.00" arrivalLane="nt16_np8_0" arrivalPos="75.00" arrivalSpeed="16.92" duration="154.00" routeLength="1316.66" waitingTime="18.00" waitingCount="3" stopTime="0.00" timeLoss="47.14" rerouteNo="0" devices="tripinfo_f_0_1.0" vType="type1" speedFactor="0.86" vaporized=""/>
    <tripinfo id="f_0_2.2" depart="17.00" departLane="np2_nt2_0" departPos="8.67" departSpeed="0.00" departDelay="0.64" arrival="160.00" arrivalLane="nt15_np10_0" arrivalPos="75.00" arrivalSpeed="6.83" duration="143.00" routeLength="942.41" waitingTime="23.00" waitingCount="2" stopTime="0.00" timeLoss="43.85" rerouteNo="0" devices="tripinfo_f_0_2.2" vType="type1" speedFactor="0.80" vaporized=""/>
    <tripinfo id="f_0_3.1" depart="9.00" departLane="np3_nt3_0" departPos="28.40" departSpeed="0.00" departDelay="0.82" arrival="167.00" arrivalLane="nt14_np11_0" arrivalPos="75.00" arrivalSpeed="10.14" duration="158.00" routeLength="922.69" waitingTime="61.00" waitingCount="5" stopTime="0.00" timeLoss="83.93" rerouteNo="0" devices="tripinfo_f_0_3.1" vType="type1" speedFactor="1.05" vaporized=""/>
    <tripinfo id="f_0_2.3" depart="25.00" departLane="np2_nt2_0" departPos="7.41" departSpeed="0.00" departDelay="0.45" arrival="167.00" arrivalLane="nt15_np10_0" arrivalPos="75.00" arrivalSpeed="9.27" duration="142.00" routeLength="943.67" waitingTime="23.00" waitingCount="5" stopTime="0.00" timeLoss="63.02" rerouteNo="0" devices="tripinfo_f_0_2.3" vType="type1" speedFactor="1.01" vaporized=""/>
    <tripinfo id="f_0_3.2" depart="17.00" departLane="np3_nt3_0" departPos="29.82" departSpeed="0.00" departDelay="0.64" arrival="169.00" arrivalLane="nt14_np11_0" arrivalPos="75.00" arrivalSpeed="9.28" duration="152.00" routeLength="921.27" waitingTime="53.00" waitingCount="5" stopTime="0.00" timeLoss="79.26" rerouteNo="0" devices="tripinfo_f_0_3.2" vType="type1" speedFactor="1.06" vaporized=""/>
    <tripinfo id="f_0_0.1" depart="14.00" departLane="np13_nt13_0" departPos="23.58" departSpeed="0.00" departDelay="0.36" arrival="189.00" arrivalLane="nt4_np5_0" arrivalPos="75.00" arrivalSpeed="16.16" duration="175.00" routeLength="1324.31" waitingTime="35.00" waitingCount="3" stopTime="0.00" timeLoss="62.96" rerouteNo="0" devices="tripinfo_f_0_0.1" vType="type1" speedFactor="0.82" vaporized=""/>
    <tripinfo id="f_0_1.1" depart="14.00" departLane="np16_nt1_0" departPos="23.00" departSpeed="0.00" departDelay="0.36" arrival="189.00" arrivalLane="nt16_np8_0" arrivalPos="75.00" arrivalSpeed="18.67" duration="175.00" routeLength="1324.88" waitingTime="39.00" waitingCount="6" stopTime="0.00" timeLoss="83.98" rerouteNo="0" devices="tripinfo_f_0_1.1" vType="type1" speedFactor="1.01" vaporized=""/>
    <tripinfo id="f_0_0.2" depart="28.00" departLane="np13_nt13_0" departPos="63.65" departSpeed="0.00" departDelay="0.73" arrival="190.00" arrivalLane="nt4_np5_0" arrivalPos="75.00" arrivalSpeed="16.69" duration="162.00" routeLength="1284.24" waitingTime="40.00" waitingCount="4" stopTime="0.00" timeLoss="68.03" rerouteNo="0" devices="tripinfo_f_0_0.2" vType="type1" speedFactor="0.95" vaporized=""/>
    <tripinfo id="f_0_1.2" depart="28.00" departLane="np16_nt1_0" departPos="44.56" departSpeed="0.00" departDelay="0.73" arrival="194.00" arrivalLane="nt16_np8_0" arrivalPos="75.00" arrivalSpeed="21.72" duration="166.00" routeLength="1303.32" waitingTime="52.00" waitingCount="5" stopTime="0.00" timeLoss="84.24" rerouteNo="0" devices="tripinfo_f_0_1.2" vType="type1" speedFactor="1.11" vaporized=""/>
    <tripinfo id="f_0_3.3" depart="25.00" departLane="np3_nt3_0" departPos="5.75" departSpeed="0.00" departDelay="0.45" arrival="197.00" arrivalLane="nt14_np11_0" arrivalPos="75.00" arrivalSpeed="8.96" duration="172.00" routeLength="945.34" waitingTime="70.00" waitingCount="5" stopTime="0.00" timeLoss="95.55" rerouteNo="0" devices="tripinfo_f_0_3.3" vType="type1" speedFactor="1.04" vaporized=""/>
    <tripinfo id="f_0_3.4" depart="33.00" departLane="np3_nt3_0" departPos="35.10" departSpeed="0.00" departDelay="0.27" arrival="199.00" arrivalLane="nt14_np11_0" arrivalPos="75.00" arrivalSpeed="9.85" duration="166.00" routeLength="915.99" waitingTime="63.00" waitingCount="6" stopTime="0.00" timeLoss="94.37" rerouteNo="0" devices="tripinfo_f_0_3.4" vType="type1" speedFactor="1.08" vaporized=""/>
    <tripinfo id="f_0_2.4" depart="33.00" departLane="np2_nt2_0" departPos="18.39" departSpeed="0.00" departDelay="0.27" arrival="203.00" arrivalLane="nt15_np10_0" arrivalPos="75.00" arrivalSpeed="10.35" duration="170.00" routeLength="932.69" waitingTime="65.00" waitingCount="6" stopTime="0.00" timeLoss="90.87" rerouteNo="0" devices="tripinfo_f_0_2.4" vType="type1" speedFactor="1.00" vaporized=""/>
    <tripinfo id="f_0_3.5" depart="41.00" departLane="np3_nt3_0" departPos="36.53" departSpeed="0.00" departDelay="0.09" arrival="212.00" arrivalLane="nt14_np11_0" arrivalPos="75.00" arrivalSpeed="10.24" duration="171.00" routeLength="914.56" waitingTime="54.00" waitingCount="8" stopTime="0.00" timeLoss="93.28" rerouteNo="0" devices="tripinfo_f_0_3.5" vType="type1" speedFactor="0.99" vaporized=""/>
    <tripinfo id="f_0_2.5" depart="41.00" departLane="np2_nt2_0" departPos="26.53" departSpeed="0.00" departDelay="0.09" arrival="217.00" arrivalLane="nt15_np10_0" arrivalPos="75.00" arrivalSpeed="10.99" duration="176.00" routeLength="924.55" waitingTime="64.00" waitingCount="8" stopTime="0.00" timeLoss="106.12" rerouteNo="0" devices="tripinfo_f_0_2.5" vType="type1" speedFactor="1.12" vaporized=""/>
    <tripinfo id="f_0_2.6" depart="50.00" departLane="np2_nt2_0" departPos="48.33" departSpeed="0.00" departDelay="0.91" arrival="220.00" arrivalLane="nt15_np10_0" arrivalPos="75.00" arrivalSpeed="9.28" duration="170.00" routeLength="902.75" waitingTime="49.00" waitingCount="9" stopTime="0.00" timeLoss="94.55" rerouteNo="0" devices="tripinfo_f_0_2.6" vType="type1" speedFactor="1.00" vaporized=""/>
    <tripinfo id="f_0_1.3" depart="41.00" departLane="np16_nt1_0" departPos="44.27" departSpeed="0.00" departDelay="0.09" arrival="233.00" arrivalLane="nt16_np8_0" arrivalPos="75.00" arrivalSpeed="17.83" duration="192.00" routeLength="1303.61" waitingTime="45.00" waitingCount="9" stopTime="0.00" timeLoss="101.05" rerouteNo="0" devices="tripinfo_f_0_1.3" vType="type1" speedFactor="1.01" vaporized=""/>
    <tripinfo id="f_0_3.6" depart="50.00" departLane="np3_nt3_0" departPos="12.97" departSpeed="0.00" departDelay="0.91" arrival="235.00" arrivalLane="nt14_np11_0" arrivalPos="75.00" arrivalSpeed="7.67" duration="185.00" routeLength="938.12" waitingTime="63.00" waitingCount="5" stopTime="0.00" timeLoss="90.20" rerouteNo="0" devices="tripinfo_f_0_3.6" vType="type1" speedFactor="0.84" vaporized=""/>
    <tripinfo id="f_0_0.3" depart="41.00" departLane="np13_nt13_0" departPos="34.62" departSpeed="0.00" departDelay="0.09" arrival="244.00" arrivalLane="nt4_np5_0" arrivalPos="75.00" arrivalSpeed="16.39" duration="203.00" routeLength="1313.27" waitingTime="64.00" waitingCount="7" stopTime="0.00" timeLoss="100.84" rerouteNo="0" devices="tripinfo_f_0_0.3" vType="type1" speedFactor="0.90" vaporized=""/>
    <tripinfo id="f_0_2.7" depart="58.00" departLane="np2_nt2_0" departPos="35.79" departSpeed="0.00" departDelay="0.73" arrival="247.00" arrivalLane="nt15_np10_0" arrivalPos="75.00" arrivalSpeed="10.91" duration="189.00" routeLength="915.29" waitingTime="52.00" waitingCount="8" stopTime="0.00" timeLoss="112.80" rerouteNo="0" devices="tripinfo_f_0_2.7" vType="type1" speedFactor="1.01" vaporized=""/>
    <tripinfo id="f_0_1.4" depart="55.00" departLane="np16_nt1_0" departPos="2.32" departSpeed="0.00" departDelay="0.46" arrival="263.00" arrivalLane="nt16_np8_0" arrivalPos="75.00" arrivalSpeed="20.60" duration="208.00" routeLength="1345.56" waitingTime="50.00" waitingCount="9" stopTime="0.00" timeLoss="119.95" rerouteNo="0" devices="tripinfo_f_0_1.4" vType="type1" speedFactor="1.06" vaporized=""/>
    <tripinfo id="f_0_3.7" depart="58.00" departLane="np3_nt3_0" departPos="31.29" departSpeed="0.00" departDelay="0.73" arrival="264.00" arrivalLane="nt14_np11_0" arrivalPos="75.00" arrivalSpeed="7.43" duration="206.00" routeLength="919.80" waitingTime="52.00" waitingCount="6" stopTime="0.00" timeLoss="92.14" rerouteNo="0" devices="tripinfo_f_0_3.7" vType="type1" speedFactor="0.68" vaporized=""/>
    <tripinfo id="f_0_3.8" depart="66.00" departLane="np3_nt3_0" departPos="18.41" departSpeed="0.00" departDelay="0.54" arrival="266.00" arrivalLane="nt14_np11_0" arrivalPos="75.00" arrivalSpeed="10.27" duration="200.00" routeLength="932.68" waitingTime="46.00" waitingCount="6" stopTime="0.00" timeLoss="122.12" rerouteNo="0" devices="tripinfo_f_0_3.8" vType="type1" speedFactor="1.01" vaporized=""/>
    <tripinfo id="f_0_3.9" depart="74.00" departLane="np3_nt3_0" departPos="0.37" departSpeed="0.00" departDelay="0.36" arrival="268.00" arrivalLane="nt14_np11_0" arrivalPos="75.00" arrivalSpeed="8.60" duration="194.00" routeLength="950.72" waitingTime="46.00" waitingCount="7" stopTime="0.00" timeLoss="112.45" rerouteNo="0" devices="tripinfo_f_0_3.9" vType="type1" speedFactor="0.98" vaporized=""/>
    <tripinfo id="f_0_0.4" depart="55.00" departLane="np13_nt13_0" departPos="37.36" departSpeed="0.00" departDelay="0.46" arrival="278.00" arrivalLane="nt4_np5_0" arrivalPos="75.00" arrivalSpeed="18.92" duration="223.00" routeLength="1310.53" waitingTime="83.00" waitingCount="6" stopTime="0.00" timeLoss="137.67" rerouteNo="0" devices="tripinfo_f_0_0.4" vType="type1" speedFactor="1.07" vaporized=""/>
    <tripinfo id="f_0_0.5" depart="69.00" departLane="np13_nt13_0" departPos="32.04" departSpeed="0.00" departDelay="0.82" arrival="281.00" arrivalLane="nt4_np5_0" arrivalPos="75.00" arrivalSpeed="13.61" duration="212.00" routeLength="1315.85" waitingTime="50.00" waitingCount="7" stopTime="0.00" timeLoss="89.64" rerouteNo="0" devices="tripinfo_f_0_0.5" vType="type1" speedFactor="0.75" vaporized=""/>
    <tripinfo id="f_0_2.8" depart="66.00" departLane="np2_nt2_0" departPos="26.82" departSpeed="0.00" departDelay="0.54" arrival="283.00" arrivalLane="nt15_np10_0" arrivalPos="75.00" arrivalSpeed="9.84" duration="217.00" routeLength="924.26" waitingTime="67.00" waitingCount="7" stopTime="0.00" timeLoss="130.92" rerouteNo="0" devices="tripinfo_f_0_2.8" vType="type1" speedFactor="0.91" vaporized=""/>
    <tripinfo id="f_0_2.9" depart="74.00" departLane="np2_nt2_0" departPos="10.08" departSpeed="0.00" departDelay="0.36" arrival="285.00" arrivalLane="nt15_np10_0" arrivalPos="75.00" arrivalSpeed="9.04" duration="211.00" routeLength="941.00" waitingTime="74.00" waitingCount="4" stopTime="0.00" timeLoss="124.61" rerouteNo="0" devices="tripinfo_f_0_2.9" vType="type1" speedFactor="0.92" vaporized=""/>
    <tripinfo id="f_0_2.10" depart="82.00" departLane="np2_nt2_0" departPos="5.06" departSpeed="0.00" departDelay="0.18" arrival="291.00" arrivalLane="nt15_np10_0" arrivalPos="75.00" arrivalSpeed="9.68" duration="209.00" routeLength="946.02" waitingTime="72.00" waitingCount="6" stopTime="0.00" timeLoss="134.82" rerouteNo="0" devices="tripinfo_f_0_2.10" vType="type1" speedFactor="1.06" vaporized=""/>
    <tripinfo id="f_0_1.5" depart="69.00" departLane="np16_nt1_0" departPos="67.05" departSpeed="0.00" departDelay="0.82" arrival="303.00" arrivalLane="nt16_np8_0" arrivalPos="75.00" arrivalSpeed="17.64" duration="234.00" routeLength="1280.83" waitingTime="81.00" waitingCount="8" stopTime="0.00" timeLoss="143.39" rerouteNo="0" devices="tripinfo_f_0_1.5" vType="type1" speedFactor="0.99" vaporized=""/>
    <tripinfo id="f_0_0.6" depart="82.00" departLane="np13_nt13_0" departPos="53.90" departSpeed="0.00" departDelay="0.18" arrival="303.00" arrivalLane="nt4_np5_0" arrivalPos="75.00" arrivalSpeed="20.90" duration="221.00" routeLength="1293.99" waitingTime="66.00" waitingCount="7" stopTime="0.00" timeLoss="138.70" rerouteNo="0" devices="tripinfo_f_0_0.6" vType="type1" speedFactor="1.10" vaporized=""/>
    <tripinfo id="f_0_2.11" depart="90.00" departLane="np2_nt2_0" departPos="0.69" departSpeed="0.00" departDelay="0.00" arrival="315.00" arrivalLane="nt15_np10_0" arrivalPos="75.00" arrivalSpeed="8.24" duration="225.00" routeLength="950.39" waitingTime="82.00" waitingCount="7" stopTime="0.00" timeLoss="127.28" rerouteNo="0" devices="tripinfo_f_0_2.11" vType="type1" speedFactor="0.82" vaporized=""/>
    <tripinfo id="f_0_3.10" depart="82.00" departLane="np3_nt3_0" departPos="14.09" departSpeed="0.00" departDelay="0.18" arrival="317.00" arrivalLane="nt14_np11_0" arrivalPos="75.00" arrivalSpeed="10.27" duration="235.00" routeLength="937.00" waitingTime="94.00" waitingCount="9" stopTime="0.00" timeLoss="151.43" rerouteNo="0" devices="tripinfo_f_0_3.10" vType="type1" speedFactor="0.94" vaporized=""/>
    <tripinfo id="f_0_0.7" depart="96.00" departLane="np13_nt13_0" departPos="7.18" departSpeed="0.00" departDelay="0.55" arrival="318.00" arrivalLane="nt4_np5_0" arrivalPos="75.00" arrivalSpeed="21.16" duration="222.00" routeLength="1340.71" waitingTime="103.00" waitingCount="9" stopTime="0.00" timeLoss="143.25" rerouteNo="0" devices="tripinfo_f_0_0.7" vType="type1" speedFactor="1.18" vaporized=""/>
    <tripinfo id="f_0_3.11" depart="90.00" departLane="np3_nt3_0" departPos="18.73" departSpeed="0.00" departDelay="0.00" arrival="319.00" arrivalLane="nt14_np11_0" arrivalPos="75.00" arrivalSpeed="9.47" duration="229.00" routeLength="932.36" waitingTime="105.00" waitingCount="8" stopTime="0.00" timeLoss="149.65" rerouteNo="0" devices="tripinfo_f_0_3.11" vType="type1" speedFactor="0.98" vaporized=""/>
    <tripinfo id="f_0_2.12" depart="99.00" departLane="np2_nt2_0" departPos="17.17" departSpeed="0.00" departDelay="0.82" arrival="324.00" arrivalLane="nt15_np10_0" arrivalPos="75.00" arrivalSpeed="9.61" duration="225.00" routeLength="933.91" waitingTime="82.00" waitingCount="10" stopTime="0.00" timeLoss="141.07" rerouteNo="0" devices="tripinfo_f_0_2.12" vType="type1" speedFactor="0.93" vaporized=""/>
    <tripinfo id="f_0_3.12" depart="99.00" departLane="np3_nt3_0" departPos="5.63" departSpeed="0.00" departDelay="0.82" arrival="328.00" arrivalLane="nt14_np11_0" arrivalPos="75.00" arrivalSpeed="9.09" duration="229.00" routeLength="945.46" waitingTime="97.00" waitingCount="8" stopTime="0.00" timeLoss="143.18" rerouteNo="0" devices="tripinfo_f_0_3.12" vType="type1" speedFactor="0.93" vaporized=""/>
    <tripinfo id="f_0_3.13" depart="107.00" departLane="np3_nt3_0" departPos="0.40" departSpeed="0.00" departDelay="0.63" arrival="330.00" arrivalLane="nt14_np11_0" arrivalPos="75.00" arrivalSpeed="9.28" duration="223.00" routeLength="950.69" waitingTime="94.00" waitingCount="8" stopTime="0.00" timeLoss="146.00" rerouteNo="0" devices="tripinfo_f_0_3.13" vType="type1" speedFactor="1.04" vaporized=""/>
    <tripinfo id="f_0_2.13" depart="107.00" departLane="np2_nt2_0" departPos="51.13" departSpeed="0.00" departDelay="0.63" arrival="332.00" arrivalLane="nt15_np10_0" arrivalPos="75.00" arrivalSpeed="11.01" duration="225.00" routeLength="899.95" waitingTime="90.00" waitingCount="9" stopTime="0.00" timeLoss="150.10" rerouteNo="0" devices="tripinfo_f_0_2.13" vType="type1" speedFactor="1.01" vaporized=""/>
    <tripinfo id="f_0_1.6" depart="82.00" departLane="np16_nt1_0" departPos="16.69" departSpeed="0.00" departDelay="0.18" arrival="338.00" arrivalLane="nt16_np8_0" arrivalPos="75.00" arrivalSpeed="18.79" duration="256.00" routeLength="1331.19" waitingTime="90.00" waitingCount="10" stopTime="0.00" timeLoss="158.81" rerouteNo="0" devices="tripinfo_f_0_1.6" vType="type1" speedFactor="0.95" vaporized=""/>
    <tripinfo id="f_0_3.14" depart="115.00" departLane="np3_nt3_0" departPos="4.23" departSpeed="0.00" departDelay="0.45" arrival="343.00" arrivalLane="nt14_np11_0" arrivalPos="75.00" arrivalSpeed="9.07" duration="228.00" routeLength="946.86" waitingTime="101.00" waitingCount="6" stopTime="0.00" timeLoss="149.68" rerouteNo="0" devices="tripinfo_f_0_3.14" vType="type1" speedFactor="1.02" vaporized=""/>
    <tripinfo id="f_0_0.8" depart="110.00" departLane="np13_nt13_0" departPos="38.78" departSpeed="0.00" departDelay="0.91" arrival="349.00" arrivalLane="nt4_np5_0" arrivalPos="75.00" arrivalSpeed="18.29" duration="239.00" routeLength="1309.11" waitingTime="89.00" waitingCount="9" stopTime="0.00" timeLoss="138.82" rerouteNo="0" devices="tripinfo_f_0_0.8" vType="type1" speedFactor="0.92" vaporized=""/>
    <tripinfo id="f_0_0.9" depart="123.00" departLane="np13_nt13_0" departPos="52.87" departSpeed="0.00" departDelay="0.28" arrival="350.00" arrivalLane="nt4_np5_0" arrivalPos="75.00" arrivalSpeed="19.14" duration="227.00" routeLength="1295.02" waitingTime="80.00" waitingCount="10" stopTime="0.00" timeLoss="133.42" rerouteNo="0" devices="tripinfo_f_0_0.9" vType="type1" speedFactor="0.97" vaporized=""/>
    <tripinfo id="f_0_1.7" depart="96.00" departLane="np16_nt1_0" departPos="2.39" departSpeed="0.00" departDelay="0.55" arrival="354.00" arrivalLane="nt16_np8_0" arrivalPos="75.00" arrivalSpeed="13.42" duration="258.00" routeLength="1345.49" waitingTime="67.00" waitingCount="11" stopTime="0.00" timeLoss="139.39" rerouteNo="0" devices="tripinfo_f_0_1.7" vType="type1" speedFactor="0.78" vaporized=""/>
    <tripinfo id="f_0_2.14" depart="115.00" departLane="np2_nt2_0" departPos="1.20" departSpeed="0.00" departDelay="0.45" arrival="358.00" arrivalLane="nt15_np10_0" arrivalPos="75.00" arrivalSpeed="8.26" duration="243.00" routeLength="949.88" waitingTime="70.00" waitingCount="11" stopTime="0.00" timeLoss="160.89" rerouteNo="0" devices="tripinfo_f_0_2.14" vType="type1" speedFactor="0.98" vaporized=""/>
    <tripinfo id="f_0_2.15" depart="123.00" departLane="np2_nt2_0" departPos="50.25" departSpeed="0.00" departDelay="0.27" arrival="366.00" arrivalLane="nt15_np10_0" arrivalPos="75.00" arrivalSpeed="11.67" duration="243.00" routeLength="900.83" waitingTime="127.00" waitingCount="10" stopTime="0.00" timeLoss="174.05" rerouteNo="0" devices="tripinfo_f_0_2.15" vType="type1" speedFactor="1.09" vaporized=""/>
    <tripinfo id="f_0_2.16" depart="131.00" departLane="np2_nt2_0" departPos="20.42" departSpeed="0.00" departDelay="0.09" arrival="368.00" arrivalLane="nt15_np10_0" arrivalPos="75.00" arrivalSpeed="13.60" duration="237.00" routeLength="930.66" waitingTime="123.00" waitingCount="6" stopTime="0.00" timeLoss="176.30" rerouteNo="0" devices="tripinfo_f_0_2.16" vType="type1" speedFactor="1.30" vaporized=""/>
    <tripinfo id="f_0_0.10" depart="137.00" departLane="np13_nt13_0" departPos="0.73" departSpeed="0.00" departDelay="0.64" arrival="368.00" arrivalLane="nt4_np5_0" arrivalPos="75.00" arrivalSpeed="21.00" duration="231.00" routeLength="1347.16" waitingTime="99.00" waitingCount="7" stopTime="0.00" timeLoss="150.79" rerouteNo="0" devices="tripinfo_f_0_0.10" vType="type1" speedFactor="1.16" vaporized=""/>
    <tripinfo id="f_0_0.11" depart="150.00" departLane="np13_nt13_0" departPos="22.41" departSpeed="0.00" departDelay="0.00" arrival="370.00" arrivalLane="nt4_np5_0" arrivalPos="75.00" arrivalSpeed="18.72" duration="220.00" routeLength="1325.48" waitingTime="86.00" waitingCount="7" stopTime="0.00" timeLoss="129.49" rerouteNo="0" devices="tripinfo_f_0_0.11" vType="type1" speedFactor="1.02" vaporized=""/>
    <tripinfo id="f_0_0.12" depart="164.00" departLane="np13_nt13_0" departPos="16.86" departSpeed="0.00" departDelay="0.37" arrival="372.00" arrivalLane="nt4_np5_0" arrivalPos="75.00" arrivalSpeed="20.53" duration="208.00" routeLength="1331.03" waitingTime="77.00" waitingCount="6" stopTime="0.00" timeLoss="124.01" rerouteNo="0" devices="tripinfo_f_0_0.12" vType="type1" speedFactor="1.10" vaporized=""/>
    <tripinfo id="f_0_3.20" depart="174.00" departLane="np3_nt3_0" departPos="54.23" departSpeed="0.00" departDelay="10.36" arrival="377.00" arrivalLane="nt14_np11_0" arrivalPos="75.00" arrivalSpeed="9.71" duration="203.00" routeLength="896.86" waitingTime="88.00" waitingCount="5" stopTime="0.00" timeLoss="128.50" rerouteNo="0" devices="tripinfo_f_0_3.20" vType="type1" speedFactor="1.01" vaporized=""/>
    <tripinfo id="f_0_3.15" depart="123.00" departLane="np3_nt3_0" departPos="0.00" departSpeed="0.00" departDelay="0.27" arrival="380.00" arrivalLane="nt14_np11_0" arrivalPos="75.00" arrivalSpeed="9.08" duration="257.00" routeLength="951.09" waitingTime="119.00" waitingCount="7" stopTime="0.00" timeLoss="172.24" rerouteNo="0" devices="tripinfo_f_0_3.15" vType="type1" speedFactor="0.95" vaporized=""/>
    <tripinfo id="f_0_2.17" depart="140.00" departLane="np2_nt2_0" departPos="16.78" departSpeed="0.00" departDelay="0.91" arrival="399.00" arrivalLane="nt15_np10_0" arrivalPos="75.00" arrivalSpeed="7.69" duration="259.00" routeLength="934.30" waitingTime="128.00" waitingCount="7" stopTime="0.00" timeLoss="170.40" rerouteNo="0" devices="tripinfo_f_0_2.17" vType="type1" speedFactor="0.88" vaporized=""/>
    <tripinfo id="f_0_2.18" depart="148.00" departLane="np2_nt2_0" departPos="24.65" departSpeed="0.00" departDelay="0.72" arrival="401.00" arrivalLane="nt15_np10_0" arrivalPos="75.00" arrivalSpeed="8.98" duration="253.00" routeLength="926.43" waitingTime="129.00" waitingCount="7" stopTime="0.00" timeLoss="175.85" rerouteNo="0" devices="tripinfo_f_0_2.18" vType="type1" speedFactor="1.02" vaporized=""/>
    <tripinfo id="f_0_3.16" depart="131.00" departLane="np3_nt3_0" departPos="3.34" departSpeed="0.00" departDelay="0.09" arrival="403.00" arrivalLane="nt14_np11_0" arrivalPos="75.00" arrivalSpeed="9.48" duration="272.00" routeLength="947.75" waitingTime="133.00" waitingCount="8" stopTime="0.00" timeLoss="180.34" rerouteNo="0" devices="tripinfo_f_0_3.16" vType="type1" speedFactor="0.87" vaporized=""/>
    <tripinfo id="f_0_0.13" depart="178.00" departLane="np13_nt13_0" departPos="7.51" departSpeed="0.00" departDelay="0.73" arrival="404.00" arrivalLane="nt4_np5_0" arrivalPos="75.00" arrivalSpeed="15.70" duration="226.00" routeLength="1340.38" waitingTime="87.00" waitingCount="6" stopTime="0.00" timeLoss="120.63" rerouteNo="0" devices="tripinfo_f_0_0.13" vType="type1" speedFactor="0.88" vaporized=""/>
    <tripinfo id="f_0_3.17" depart="140.00" departLane="np3_nt3_0" departPos="0.97" departSpeed="0.00" departDelay="0.91" arrival="405.00" arrivalLane="nt14_np11_0" arrivalPos="75.00" arrivalSpeed="11.13" duration="265.00" routeLength="950.12" waitingTime="143.00" waitingCount="8" stopTime="0.00" timeLoss="190.71" rerouteNo="0" devices="tripinfo_f_0_3.17" vType="type1" speedFactor="1.08" vaporized=""/>
    <tripinfo id="f_0_0.14" depart="191.00" departLane="np13_nt13_0" departPos="17.75" departSpeed="0.00" departDelay="0.10" arrival="405.00" arrivalLane="nt4_np5_0" arrivalPos="75.00" arrivalSpeed="18.86" duration="214.00" routeLength="1330.14" waitingTime="85.00" waitingCount="7" stopTime="0.00" timeLoss="128.02" rerouteNo="0" devices="tripinfo_f_0_0.14" vType="type1" speedFactor="1.07" vaporized=""/>
    <tripinfo id="f_0_2.19" depart="156.00" departLane="np2_nt2_0" departPos="4.88" departSpeed="0.00" departDelay="0.54" arrival="407.00" arrivalLane="nt15_np10_0" arrivalPos="75.00" arrivalSpeed="9.82" duration="251.00" routeLength="946.20" waitingTime="114.00" waitingCount="7" stopTime="0.00" timeLoss="167.73" rerouteNo="0" devices="tripinfo_f_0_2.19" vType="type1" speedFactor="0.96" vaporized=""/>
    <tripinfo id="f_0_0.15" depart="205.00" departLane="np13_nt13_0" departPos="12.50" departSpeed="0.00" departDelay="0.46" arrival="407.00" arrivalLane="nt4_np5_0" arrivalPos="75.00" arrivalSpeed="17.66" duration="202.00" routeLength="1335.39" waitingTime="58.00" waitingCount="9" stopTime="0.00" timeLoss="109.70" rerouteNo="0" devices="tripinfo_f_0_0.15" vType="type1" speedFactor="1.00" vaporized=""/>
    <tripinfo id="f_0_1.8" depart="110.00" departLane="np16_nt1_0" departPos="41.69" departSpeed="0.00" departDelay="0.91" arrival="409.00" arrivalLane="nt16_np8_0" arrivalPos="75.00" arrivalSpeed="18.50" duration="299.00" routeLength="1306.19" waitingTime="146.00" waitingCount="8" stopTime="0.00" timeLoss="205.10" rerouteNo="0" devices="tripinfo_f_0_1.8" vType="type1" speedFactor="0.97" vaporized=""/>
    <tripinfo id="f_0_2.20" depart="164.00" departLane="np2_nt2_0" departPos="1.11" departSpeed="0.00" departDelay="0.36" arrival="412.00" arrivalLane="nt15_np10_0" arrivalPos="75.00" arrivalSpeed="8.10" duration="248.00" routeLength="949.97" waitingTime="96.00" waitingCount="10" stopTime="0.00" timeLoss="163.82" rerouteNo="0" devices="tripinfo_f_0_2.20" vType="type1" speedFactor="0.95" vaporized=""/>
    <tripinfo id="f_0_3.18" depart="148.00" departLane="np3_nt3_0" departPos="7.68" departSpeed="0.00" departDelay="0.72" arrival="418.00" arrivalLane="nt14_np11_0" arrivalPos="75.00" arrivalSpeed="10.39" duration="270.00" routeLength="943.41" waitingTime="144.00" waitingCount="8" stopTime="0.00" timeLoss="189.88" rerouteNo="0" devices="tripinfo_f_0_3.18" vType="type1" speedFactor="0.99" vaporized=""/>
    <tripinfo id="f_0_3.19" depart="156.00" departLane="np3_nt3_0" departPos="0.00" departSpeed="0.00" departDelay="0.54" arrival="419.00" arrivalLane="nt14_np11_0" arrivalPos="75.00" arrivalSpeed="10.25" duration="263.00" routeLength="951.09" waitingTime="140.00" waitingCount="10" stopTime="0.00" timeLoss="194.26" rerouteNo="0" devices="tripinfo_f_0_3.19" vType="type1" speedFactor="1.15" vaporized=""/>
    <tripinfo id="f_0_1.9" depart="123.00" departLane="np16_nt1_0" departPos="52.08" departSpeed="0.00" departDelay="0.28" arrival="423.00" arrivalLane="nt16_np8_0" arrivalPos="75.00" arrivalSpeed="19.47" duration="300.00" routeLength="1295.80" waitingTime="137.00" waitingCount="9" stopTime="0.00" timeLoss="215.27" rerouteNo="0" devices="tripinfo_f_0_1.9" vType="type1" speedFactor="1.08" vaporized=""/>
    <tripinfo id="f_0_1.10" depart="137.00" departLane="np16_nt1_0" departPos="66.15" departSpeed="0.00" departDelay="0.64" arrival="425.00" arrivalLane="nt16_np8_0" arrivalPos="75.00" arrivalSpeed="18.54" duration="288.00" routeLength="1281.73" waitingTime="125.00" waitingCount="13" stopTime="0.00" timeLoss="196.33" rerouteNo="0" devices="tripinfo_f_0_1.10" vType="type1" speedFactor="0.99" vaporized=""/>
    <tripinfo id="f_0_2.21" depart="172.00" departLane="np2_nt2_0" departPos="48.51" departSpeed="0.00" departDelay="0.18" arrival="426.00" arrivalLane="nt15_np10_0" arrivalPos="75.00" arrivalSpeed="9.70" duration="254.00" routeLength="902.57" waitingTime="88.00" waitingCount="11" stopTime="0.00" timeLoss="185.74" rerouteNo="0" devices="tripinfo_f_0_2.21" vType="type1" speedFactor="1.10" vaporized=""/>
    <tripinfo id="f_0_1.11" depart="150.00" departLane="np16_nt1_0" departPos="17.87" departSpeed="0.00" departDelay="0.00" arrival="427.00" arrivalLane="nt16_np8_0" arrivalPos="75.00" arrivalSpeed="16.67" duration="277.00" routeLength="1330.01" waitingTime="89.00" waitingCount="10" stopTime="0.00" timeLoss="166.25" rerouteNo="0" devices="tripinfo_f_0_1.11" vType="type1" speedFactor="0.84" vaporized=""/>