<?xml version="1.0" encoding="UTF-8"?>

<!-- generated on 2023-08-23 16:39:08 by Eclipse SUMO libsumo Version 1.18.0
<configuration xmlns:xsi="http://www.w3.org/2001/XMLSchema-instance" xsi:noNamespaceSchemaLocation="http://sumo.dlr.de/xsd/libsumoConfiguration.xsd">

    <input>
        <net-file value="/home/stefan/RESCO/./environments/arterial4x4/arterial4x4.net.xml"/>
        <route-files value="/home/stefan/RESCO/./environments/arterial4x4/arterial4x4_60.rou.xml"/>
    </input>

    <output>
        <tripinfo-output value="/home/stefan/results/IDDQN-tr0-arterial4x4-0-drq_norm-wait_norm/tripinfo_60.xml"/>
        <tripinfo-output.write-unfinished value="true"/>
    </output>

    <processing>
        <time-to-teleport value="-1"/>
    </processing>

    <report>
        <no-warnings value="True"/>
        <no-step-log value="True"/>
    </report>

    <random_number>
        <random value="true"/>
    </random_number>

</configuration>
-->

<tripinfos xmlns:xsi="http://www.w3.org/2001/XMLSchema-instance" xsi:noNamespaceSchemaLocation="http://sumo.dlr.de/xsd/tripinfo_file.xsd">
    <tripinfo id="f_0_2.0" depart="0.00" departLane="np2_nt2_0" departPos="10.65" departSpeed="0.00" departDelay="0.00" arrival="127.00" arrivalLane="nt15_np10_0" arrivalPos="75.00" arrivalSpeed="10.31" duration="127.00" routeLength="940.43" waitingTime="25.00" waitingCount="2" stopTime="0.00" timeLoss="47.94" rerouteNo="0" devices="tripinfo_f_0_2.0" vType="type1" speedFactor="1.00" vaporized=""/>
    <tripinfo id="f_0_3.0" depart="0.00" departLane="np3_nt3_0" departPos="46.54" departSpeed="0.00" departDelay="0.00" arrival="148.00" arrivalLane="nt14_np11_0" arrivalPos="75.00" arrivalSpeed="8.34" duration="148.00" routeLength="904.55" waitingTime="47.00" waitingCount="4" stopTime="0.00" timeLoss="70.67" rerouteNo="0" devices="tripinfo_f_0_3.0" vType="type1" speedFactor="0.98" vaporized=""/>
    <tripinfo id="f_0_0.0" depart="0.00" departLane="np13_nt13_0" departPos="53.92" departSpeed="0.00" departDelay="0.00" arrival="158.00" arrivalLane="nt4_np5_0" arrivalPos="75.00" arrivalSpeed="20.58" duration="158.00" routeLength="1293.97" waitingTime="48.00" waitingCount="3" stopTime="0.00" timeLoss="77.06" rerouteNo="0" devices="tripinfo_f_0_0.0" vType="type1" speedFactor="1.12" vaporized=""/>
    <tripinfo id="f_0_3.1" depart="9.00" departLane="np3_nt3_0" departPos="8.62" departSpeed="0.00" departDelay="0.82" arrival="161.00" arrivalLane="nt14_np11_0" arrivalPos="75.00" arrivalSpeed="11.06" duration="152.00" routeLength="942.47" waitingTime="50.00" waitingCount="5" stopTime="0.00" timeLoss="79.45" rerouteNo="0" devices="tripinfo_f_0_3.1" vType="type1" speedFactor="1.10" vaporized=""/>
    <tripinfo id="f_0_3.2" depart="17.00" departLane="np3_nt3_0" departPos="17.38" departSpeed="0.00" departDelay="0.64" arrival="163.00" arrivalLane="nt14_np11_0" arrivalPos="75.00" arrivalSpeed="11.96" duration="146.00" routeLength="933.71" waitingTime="37.00" waitingCount="5" stopTime="0.00" timeLoss="73.53" rerouteNo="0" devices="tripinfo_f_0_3.2" vType="type1" speedFactor="1.09" vaporized=""/>
    <tripinfo id="f_0_1.0" depart="0.00" departLane="np16_nt1_0" departPos="24.64" departSpeed="0.00" departDelay="0.00" arrival="166.00" arrivalLane="nt16_np8_0" arrivalPos="75.00" arrivalSpeed="18.10" duration="166.00" routeLength="1323.24" waitingTime="35.00" waitingCount="4" stopTime="0.00" timeLoss="66.10" rerouteNo="0" devices="tripinfo_f_0_1.0" vType="type1" speedFactor="0.92" vaporized=""/>
    <tripinfo id="f_0_0.1" depart="14.00" departLane="np13_nt13_0" departPos="20.71" departSpeed="0.00" departDelay="0.36" arrival="168.00" arrivalLane="nt4_np5_0" arrivalPos="75.00" arrivalSpeed="17.92" duration="154.00" routeLength="1327.18" waitingTime="30.00" waitingCount="5" stopTime="0.00" timeLoss="61.15" rerouteNo="0" devices="tripinfo_f_0_0.1" vType="type1" speedFactor="0.99" vaporized=""/>
    <tripinfo id="f_0_0.2" depart="28.00" departLane="np13_nt13_0" departPos="41.24" departSpeed="0.00" departDelay="0.73" arrival="169.00" arrivalLane="nt4_np5_0" arrivalPos="75.00" arrivalSpeed="22.41" duration="141.00" routeLength="1306.65" waitingTime="15.00" waitingCount="4" stopTime="0.00" timeLoss="60.19" rerouteNo="0" devices="tripinfo_f_0_0.2" vType="type1" speedFactor="1.12" vaporized=""/>
    <tripinfo id="f_0_3.3" depart="25.00" departLane="np3_nt3_0" departPos="16.32" departSpeed="0.00" departDelay="0.45" arrival="172.00" arrivalLane="nt14_np11_0" arrivalPos="75.00" arrivalSpeed="10.50" duration="147.00" routeLength="934.77" waitingTime="31.00" waitingCount="6" stopTime="0.00" timeLoss="71.09" rerouteNo="0" devices="tripinfo_f_0_3.3" vType="type1" speedFactor="1.04" vaporized=""/>
    <tripinfo id="f_0_2.1" depart="9.00" departLane="np2_nt2_0" departPos="31.94" departSpeed="0.00" departDelay="0.82" arrival="184.00" arrivalLane="nt15_np10_0" arrivalPos="75.00" arrivalSpeed="7.83" duration="175.00" routeLength="919.14" waitingTime="55.00" waitingCount="6" stopTime="0.00" timeLoss="85.02" rerouteNo="0" devices="tripinfo_f_0_2.1" vType="type1" speedFactor="0.86" vaporized=""/>
    <tripinfo id="f_0_2.2" depart="17.00" departLane="np2_nt2_0" departPos="30.17" departSpeed="0.00" departDelay="0.64" arrival="186.00" arrivalLane="nt15_np10_0" arrivalPos="75.00" arrivalSpeed="8.41" duration="169.00" routeLength="920.91" waitingTime="40.00" waitingCount="7" stopTime="0.00" timeLoss="83.66" rerouteNo="0" devices="tripinfo_f_0_2.2" vType="type1" speedFactor="0.90" vaporized=""/>
    <tripinfo id="f_0_2.3" depart="25.00" departLane="np2_nt2_0" departPos="0.78" departSpeed="0.00" departDelay="0.45" arrival="190.00" arrivalLane="nt15_np10_0" arrivalPos="75.00" arrivalSpeed="10.17" duration="165.00" routeLength="950.30" waitingTime="39.00" waitingCount="5" stopTime="0.00" timeLoss="93.49" rerouteNo="0" devices="tripinfo_f_0_2.3" vType="type1" speedFactor="1.11" vaporized=""/>
    <tripinfo id="f_0_1.1" depart="14.00" departLane="np16_nt1_0" departPos="66.48" departSpeed="0.00" departDelay="0.36" arrival="191.00" arrivalLane="nt16_np8_0" arrivalPos="75.00" arrivalSpeed="22.90" duration="177.00" routeLength="1281.40" waitingTime="36.00" waitingCount="6" stopTime="0.00" timeLoss="101.89" rerouteNo="0" devices="tripinfo_f_0_1.1" vType="type1" speedFactor="1.19" vaporized=""/>
    <tripinfo id="f_0_2.4" depart="33.00" departLane="np2_nt2_0" departPos="20.07" departSpeed="0.00" departDelay="0.27" arrival="195.00" arrivalLane="nt15_np10_0" arrivalPos="75.00" arrivalSpeed="7.59" duration="162.00" routeLength="931.01" waitingTime="30.00" waitingCount="6" stopTime="0.00" timeLoss="71.52" rerouteNo="0" devices="tripinfo_f_0_2.4" vType="type1" speedFactor="0.87" vaporized=""/>
    <tripinfo id="f_0_3.4" depart="33.00" departLane="np3_nt3_0" departPos="25.52" departSpeed="0.00" departDelay="0.27" arrival="199.00" arrivalLane="nt14_np11_0" arrivalPos="75.00" arrivalSpeed="8.87" duration="166.00" routeLength="925.57" waitingTime="38.00" waitingCount="6" stopTime="0.00" timeLoss="76.16" rerouteNo="0" devices="tripinfo_f_0_3.4" vType="type1" speedFactor="0.86" vaporized=""/>
    <tripinfo id="f_0_3.5" depart="41.00" departLane="np3_nt3_0" departPos="32.73" departSpeed="0.00" departDelay="0.09" arrival="201.00" arrivalLane="nt14_np11_0" arrivalPos="75.00" arrivalSpeed="10.28" duration="160.00" routeLength="918.36" waitingTime="33.00" waitingCount="5" stopTime="0.00" timeLoss="80.79" rerouteNo="0" devices="tripinfo_f_0_3.5" vType="type1" speedFactor="0.97" vaporized=""/>
    <tripinfo id="f_0_2.5" depart="41.00" departLane="np2_nt2_0" departPos="44.85" departSpeed="0.00" departDelay="0.09" arrival="207.00" arrivalLane="nt15_np10_0" arrivalPos="75.00" arrivalSpeed="9.49" duration="166.00" routeLength="906.23" waitingTime="32.00" waitingCount="6" stopTime="0.00" timeLoss="92.79" rerouteNo="0" devices="tripinfo_f_0_2.5" vType="type1" speedFactor="1.03" vaporized=""/>
    <tripinfo id="f_0_1.2" depart="28.00" departLane="np16_nt1_0" departPos="1.69" departSpeed="0.00" departDelay="0.73" arrival="208.00" arrivalLane="nt16_np8_0" arrivalPos="75.00" arrivalSpeed="20.51" duration="180.00" routeLength="1346.19" waitingTime="41.00" waitingCount="5" stopTime="0.00" timeLoss="92.71" rerouteNo="0" devices="tripinfo_f_0_1.2" vType="type1" speedFactor="1.07" vaporized=""/>
    <tripinfo id="f_0_0.3" depart="41.00" departLane="np13_nt13_0" departPos="41.12" departSpeed="0.00" departDelay="0.09" arrival="208.00" arrivalLane="nt4_np5_0" arrivalPos="75.00" arrivalSpeed="17.16" duration="167.00" routeLength="1306.77" waitingTime="37.00" waitingCount="3" stopTime="0.00" timeLoss="65.07" rerouteNo="0" devices="tripinfo_f_0_0.3" vType="type1" speedFactor="0.90" vaporized=""/>
    <tripinfo id="f_0_2.6" depart="50.00" departLane="np2_nt2_0" departPos="21.38" departSpeed="0.00" departDelay="0.91" arrival="209.00" arrivalLane="nt15_np10_0" arrivalPos="75.00" arrivalSpeed="12.35" duration="159.00" routeLength="929.70" waitingTime="28.00" waitingCount="3" stopTime="0.00" timeLoss="88.63" rerouteNo="0" devices="tripinfo_f_0_2.6" vType="type1" speedFactor="1.12" vaporized=""/>
    <tripinfo id="f_0_2.7" depart="58.00" departLane="np2_nt2_0" departPos="23.28" departSpeed="0.00" departDelay="0.73" arrival="214.00" arrivalLane="nt15_np10_0" arrivalPos="75.00" arrivalSpeed="8.52" duration="156.00" routeLength="927.80" waitingTime="31.00" waitingCount="5" stopTime="0.00" timeLoss="62.83" rerouteNo="0" devices="tripinfo_f_0_2.7" vType="type1" speedFactor="0.84" vaporized=""/>
    <tripinfo id="f_0_0.4" depart="55.00" departLane="np13_nt13_0" departPos="4.65" departSpeed="0.00" departDelay="0.46" arrival="218.00" arrivalLane="nt4_np5_0" arrivalPos="75.00" arrivalSpeed="17.90" duration="163.00" routeLength="1343.24" waitingTime="44.00" waitingCount="4" stopTime="0.00" timeLoss="71.67" rerouteNo="0" devices="tripinfo_f_0_0.4" vType="type1" speedFactor="1.02" vaporized=""/>
    <tripinfo id="f_0_1.3" depart="41.00" departLane="np16_nt1_0" departPos="0.62" departSpeed="0.00" departDelay="0.09" arrival="220.00" arrivalLane="nt16_np8_0" arrivalPos="75.00" arrivalSpeed="18.92" duration="179.00" routeLength="1347.26" waitingTime="39.00" waitingCount="5" stopTime="0.00" timeLoss="90.65" rerouteNo="0" devices="tripinfo_f_0_1.3" vType="type1" speedFactor="1.06" vaporized=""/>
    <tripinfo id="f_0_2.8" depart="66.00" departLane="np2_nt2_0" departPos="9.64" departSpeed="0.00" departDelay="0.54" arrival="220.00" arrivalLane="nt15_np10_0" arrivalPos="75.00" arrivalSpeed="8.88" duration="154.00" routeLength="941.44" waitingTime="25.00" waitingCount="6" stopTime="0.00" timeLoss="75.31" rerouteNo="0" devices="tripinfo_f_0_2.8" vType="type1" speedFactor="1.01" vaporized=""/>
    <tripinfo id="f_0_3.6" depart="50.00" departLane="np3_nt3_0" departPos="2.00" departSpeed="0.00" departDelay="0.91" arrival="222.00" arrivalLane="nt14_np11_0" arrivalPos="75.00" arrivalSpeed="10.77" duration="172.00" routeLength="949.09" waitingTime="43.00" waitingCount="7" stopTime="0.00" timeLoss="93.26" rerouteNo="0" devices="tripinfo_f_0_3.6" vType="type1" speedFactor="1.02" vaporized=""/>
    <tripinfo id="f_0_2.9" depart="74.00" departLane="np2_nt2_0" departPos="37.56" departSpeed="0.00" departDelay="0.36" arrival="222.00" arrivalLane="nt15_np10_0" arrivalPos="75.00" arrivalSpeed="10.10" duration="148.00" routeLength="913.52" waitingTime="16.00" waitingCount="6" stopTime="0.00" timeLoss="67.72" rerouteNo="0" devices="tripinfo_f_0_2.9" vType="type1" speedFactor="0.96" vaporized=""/>
    <tripinfo id="f_0_3.7" depart="58.00" departLane="np3_nt3_0" departPos="4.19" departSpeed="0.00" departDelay="0.73" arrival="224.00" arrivalLane="nt14_np11_0" arrivalPos="75.00" arrivalSpeed="9.25" duration="166.00" routeLength="946.90" waitingTime="47.00" waitingCount="7" stopTime="0.00" timeLoss="88.56" rerouteNo="0" devices="tripinfo_f_0_3.7" vType="type1" speedFactor="1.03" vaporized=""/>
    <tripinfo id="f_0_2.10" depart="82.00" departLane="np2_nt2_0" departPos="41.03" departSpeed="0.00" departDelay="0.18" arrival="224.00" arrivalLane="nt15_np10_0" arrivalPos="75.00" arrivalSpeed="10.42" duration="142.00" routeLength="910.05" waitingTime="11.00" waitingCount="4" stopTime="0.00" timeLoss="61.93" rerouteNo="0" devices="tripinfo_f_0_2.10" vType="type1" speedFactor="0.96" vaporized=""/>
    <tripinfo id="f_0_1.4" depart="55.00" departLane="np16_nt1_0" departPos="59.22" departSpeed="0.00" departDelay="0.46" arrival="225.00" arrivalLane="nt16_np8_0" arrivalPos="75.00" arrivalSpeed="18.31" duration="170.00" routeLength="1288.66" waitingTime="34.00" waitingCount="6" stopTime="0.00" timeLoss="73.54" rerouteNo="0" devices="tripinfo_f_0_1.4" vType="type1" speedFactor="0.94" vaporized=""/>
    <tripinfo id="f_0_2.11" depart="90.00" departLane="np2_nt2_0" departPos="27.08" departSpeed="0.00" departDelay="0.00" arrival="226.00" arrivalLane="nt15_np10_0" arrivalPos="75.00" arrivalSpeed="11.38" duration="136.00" routeLength="924.00" waitingTime="32.00" waitingCount="3" stopTime="0.00" timeLoss="64.96" rerouteNo="0" devices="tripinfo_f_0_2.11" vType="type1" speedFactor="1.09" vaporized=""/>
    <tripinfo id="f_0_3.8" depart="66.00" departLane="np3_nt3_0" departPos="46.90" departSpeed="0.00" departDelay="0.54" arrival="228.00" arrivalLane="nt14_np11_0" arrivalPos="75.00" arrivalSpeed="9.62" duration="162.00" routeLength="904.19" waitingTime="38.00" waitingCount="8" stopTime="0.00" timeLoss="76.19" rerouteNo="0" devices="tripinfo_f_0_3.8" vType="type1" speedFactor="0.88" vaporized=""/>
    <tripinfo id="f_0_3.9" depart="74.00" departLane="np3_nt3_0" departPos="28.61" departSpeed="0.00" departDelay="0.36" arrival="230.00" arrivalLane="nt14_np11_0" arrivalPos="75.00" arrivalSpeed="10.41" duration="156.00" routeLength="922.48" waitingTime="50.00" waitingCount="5" stopTime="0.00" timeLoss="78.56" rerouteNo="0" devices="tripinfo_f_0_3.9" vType="type1" speedFactor="1.00" vaporized=""/>
    <tripinfo id="f_0_0.5" depart="69.00" departLane="np13_nt13_0" departPos="20.79" departSpeed="0.00" departDelay="0.82" arrival="233.00" arrivalLane="nt4_np5_0" arrivalPos="75.00" arrivalSpeed="21.06" duration="164.00" routeLength="1327.10" waitingTime="50.00" waitingCount="5" stopTime="0.00" timeLoss="81.21" rerouteNo="0" devices="tripinfo_f_0_0.5" vType="type1" speedFactor="1.12" vaporized=""/>
    <tripinfo id="f_0_3.10" depart="82.00" departLane="np3_nt3_0" departPos="11.52" departSpeed="0.00" departDelay="0.18" arrival="236.00" arrivalLane="nt14_np11_0" arrivalPos="75.00" arrivalSpeed="11.87" duration="154.00" routeLength="939.57" waitingTime="40.00" waitingCount="5" stopTime="0.00" timeLoss="88.82" rerouteNo="0" devices="tripinfo_f_0_3.10" vType="type1" speedFactor="1.22" vaporized=""/>
    <tripinfo id="f_0_3.11" depart="90.00" departLane="np3_nt3_0" departPos="9.33" departSpeed="0.00" departDelay="0.00" arrival="238.00" arrivalLane="nt14_np11_0" arrivalPos="75.00" arrivalSpeed="10.64" duration="148.00" routeLength="941.76" waitingTime="43.00" waitingCount="5" stopTime="0.00" timeLoss="74.55" rerouteNo="0" devices="tripinfo_f_0_3.11" vType="type1" speedFactor="1.08" vaporized=""/>
    <tripinfo id="f_0_0.6" depart="82.00" departLane="np13_nt13_0" departPos="19.92" departSpeed="0.00" departDelay="0.18" arrival="253.00" arrivalLane="nt4_np5_0" arrivalPos="75.00" arrivalSpeed="15.50" duration="171.00" routeLength="1327.97" waitingTime="27.00" waitingCount="5" stopTime="0.00" timeLoss="66.63" rerouteNo="0" devices="tripinfo_f_0_0.6" vType="type1" speedFactor="0.88" vaporized=""/>
    <tripinfo id="f_0_3.12" depart="99.00" departLane="np3_nt3_0" departPos="5.98" departSpeed="0.00" departDelay="0.82" arrival="257.00" arrivalLane="nt14_np11_0" arrivalPos="75.00" arrivalSpeed="10.41" duration="158.00" routeLength="945.11" waitingTime="40.00" waitingCount="5" stopTime="0.00" timeLoss="79.37" rerouteNo="0" devices="tripinfo_f_0_3.12" vType="type1" speedFactor="1.01" vaporized=""/>
    <tripinfo id="f_0_3.13" depart="107.00" departLane="np3_nt3_0" departPos="0.05" departSpeed="0.00" departDelay="0.63" arrival="259.00" arrivalLane="nt14_np11_0" arrivalPos="75.00" arrivalSpeed="10.76" duration="152.00" routeLength="951.04" waitingTime="29.00" waitingCount="4" stopTime="0.00" timeLoss="72.35" rerouteNo="0" devices="tripinfo_f_0_3.13" vType="type1" speedFactor="1.01" vaporized=""/>
    <tripinfo id="f_0_2.12" depart="99.00" departLane="np2_nt2_0" departPos="1.60" departSpeed="0.00" departDelay="0.82" arrival="262.00" arrivalLane="nt15_np10_0" arrivalPos="75.00" arrivalSpeed="9.52" duration="163.00" routeLength="949.48" waitingTime="51.00" waitingCount="4" stopTime="0.00" timeLoss="85.86" rerouteNo="0" devices="tripinfo_f_0_2.12" vType="type1" speedFactor="1.05" vaporized=""/>
    <tripinfo id="f_0_3.14" depart="115.00" departLane="np3_nt3_0" departPos="11.48" departSpeed="0.00" departDelay="0.45" arrival="262.00" arrivalLane="nt14_np11_0" arrivalPos="75.00" arrivalSpeed="8.84" duration="147.00" routeLength="939.61" waitingTime="23.00" waitingCount="2" stopTime="0.00" timeLoss="61.05" rerouteNo="0" devices="tripinfo_f_0_3.14" vType="type1" speedFactor="0.92" vaporized=""/>
    <tripinfo id="f_0_2.13" depart="107.00" departLane="np2_nt2_0" departPos="4.13" departSpeed="0.00" departDelay="0.63" arrival="264.00" arrivalLane="nt15_np10_0" arrivalPos="75.00" arrivalSpeed="10.85" duration="157.00" routeLength="946.95" waitingTime="46.00" waitingCount="4" stopTime="0.00" timeLoss="84.20" rerouteNo="0" devices="tripinfo_f_0_2.13" vType="type1" speedFactor="1.11" vaporized=""/>
    <tripinfo id="f_0_3.15" depart="123.00" departLane="np3_nt3_0" departPos="23.41" departSpeed="0.00" departDelay="0.27" arrival="264.00" arrivalLane="nt14_np11_0" arrivalPos="75.00" arrivalSpeed="9.22" duration="141.00" routeLength="927.68" waitingTime="23.00" waitingCount="2" stopTime="0.00" timeLoss="65.73" rerouteNo="0" devices="tripinfo_f_0_3.15" vType="type1" speedFactor="1.03" vaporized=""/>
    <tripinfo id="f_0_2.14" depart="115.00" departLane="np2_nt2_0" departPos="52.54" departSpeed="0.00" departDelay="0.45" arrival="266.00" arrivalLane="nt15_np10_0" arrivalPos="75.00" arrivalSpeed="10.89" duration="151.00" routeLength="898.54" waitingTime="39.00" waitingCount="3" stopTime="0.00" timeLoss="77.67" rerouteNo="0" devices="tripinfo_f_0_2.14" vType="type1" speedFactor="1.03" vaporized=""/>
    <tripinfo id="f_0_3.16" depart="131.00" departLane="np3_nt3_0" departPos="50.27" departSpeed="0.00" departDelay="0.09" arrival="266.00" arrivalLane="nt14_np11_0" arrivalPos="75.00" arrivalSpeed="9.82" duration="135.00" routeLength="900.82" waitingTime="34.00" waitingCount="4" stopTime="0.00" timeLoss="65.52" rerouteNo="0" devices="tripinfo_f_0_3.16" vType="type1" speedFactor="1.09" vaporized=""/>
    <tripinfo id="f_0_3.17" depart="140.00" departLane="np3_nt3_0" departPos="29.30" departSpeed="0.00" departDelay="0.91" arrival="269.00" arrivalLane="nt14_np11_0" arrivalPos="75.00" arrivalSpeed="8.94" duration="129.00" routeLength="921.79" waitingTime="18.00" waitingCount="3" stopTime="0.00" timeLoss="44.84" rerouteNo="0" devices="tripinfo_f_0_3.17" vType="type1" speedFactor="0.92" vaporized=""/>
    <tripinfo id="f_0_3.18" depart="148.00" departLane="np3_nt3_0" departPos="62.99" departSpeed="0.00" departDelay="0.72" arrival="271.00" arrivalLane="nt14_np11_0" arrivalPos="75.00" arrivalSpeed="12.87" duration="123.00" routeLength="888.10" waitingTime="33.00" waitingCount="5" stopTime="0.00" timeLoss="60.65" rerouteNo="0" devices="tripinfo_f_0_3.18" vType="type1" speedFactor="1.20" vaporized=""/>
    <tripinfo id="f_0_3.19" depart="156.00" departLane="np3_nt3_0" departPos="5.42" departSpeed="0.00" departDelay="0.54" arrival="273.00" arrivalLane="nt14_np11_0" arrivalPos="75.00" arrivalSpeed="10.75" duration="117.00" routeLength="945.67" waitingTime="13.00" waitingCount="4" stopTime="0.00" timeLoss="43.31" rerouteNo="0" devices="tripinfo_f_0_3.19" vType="type1" speedFactor="1.08" vaporized=""/>
    <tripinfo id="f_0_1.5" depart="69.00" departLane="np16_nt1_0" departPos="2.39" departSpeed="0.00" departDelay="0.82" arrival="281.00" arrivalLane="nt16_np8_0" arrivalPos="75.00" arrivalSpeed="16.12" duration="212.00" routeLength="1345.49" waitingTime="66.00" waitingCount="6" stopTime="0.00" timeLoss="101.80" rerouteNo="0" devices="tripinfo_f_0_1.5" vType="type1" speedFactor="0.85" vaporized=""/>
    <tripinfo id="f_0_0.7" depart="96.00" departLane="np13_nt13_0" departPos="41.55" departSpeed="0.00" departDelay="0.55" arrival="281.00" arrivalLane="nt4_np5_0" arrivalPos="75.00" arrivalSpeed="18.23" duration="185.00" routeLength="1306.34" waitingTime="61.00" waitingCount="5" stopTime="0.00" timeLoss="93.86" rerouteNo="0" devices="tripinfo_f_0_0.7" vType="type1" speedFactor="1.00" vaporized=""/>
    <tripinfo id="f_0_2.15" depart="123.00" departLane="np2_nt2_0" departPos="50.23" departSpeed="0.00" departDelay="0.27" arrival="281.00" arrivalLane="nt15_np10_0" arrivalPos="75.00" arrivalSpeed="12.08" duration="158.00" routeLength="900.85" waitingTime="34.00" waitingCount="5" stopTime="0.00" timeLoss="92.37" rerouteNo="0" devices="tripinfo_f_0_2.15" vType="type1" speedFactor="1.15" vaporized=""/>
    <tripinfo id="f_0_3.20" depart="164.00" departLane="np3_nt3_0" departPos="43.24" departSpeed="0.00" departDelay="0.36" arrival="281.00" arrivalLane="nt14_np11_0" arrivalPos="75.00" arrivalSpeed="11.73" duration="117.00" routeLength="907.85" waitingTime="17.00" waitingCount="4" stopTime="0.00" timeLoss="47.72" rerouteNo="0" devices="tripinfo_f_0_3.20" vType="type1" speedFactor="1.09" vaporized=""/>
    <tripinfo id="f_0_1.6" depart="82.00" departLane="np16_nt1_0" departPos="17.19" departSpeed="0.00" departDelay="0.18" arrival="282.00" arrivalLane="nt16_np8_0" arrivalPos="75.00" arrivalSpeed="19.39" duration="200.00" routeLength="1330.69" waitingTime="52.00" waitingCount="5" stopTime="0.00" timeLoss="113.76" rerouteNo="0" devices="tripinfo_f_0_1.6" vType="type1" speedFactor="1.07" vaporized=""/>
    <tripinfo id="f_0_0.8" depart="110.00" departLane="np13_nt13_0" departPos="43.98" departSpeed="0.00" departDelay="0.91" arrival="282.00" arrivalLane="nt4_np5_0" arrivalPos="75.00" arrivalSpeed="18.92" duration="172.00" routeLength="1303.91" waitingTime="51.00" waitingCount="5" stopTime="0.00" timeLoss="86.10" rerouteNo="0" devices="tripinfo_f_0_0.8" vType="type1" speedFactor="1.06" vaporized=""/>
    <tripinfo id="f_0_0.9" depart="123.00" departLane="np13_nt13_0" departPos="1.80" departSpeed="0.00" departDelay="0.28" arrival="284.00" arrivalLane="nt4_np5_0" arrivalPos="75.00" arrivalSpeed="21.29" duration="161.00" routeLength="1346.09" waitingTime="29.00" waitingCount="5" stopTime="0.00" timeLoss="77.30" rerouteNo="0" devices="tripinfo_f_0_0.9" vType="type1" speedFactor="1.12" vaporized=""/>
    <tripinfo id="f_0_1.7" depart="96.00" departLane="np16_nt1_0" departPos="13.10" departSpeed="0.00" departDelay="0.55" arrival="286.00" arrivalLane="nt16_np8_0" arrivalPos="75.00" arrivalSpeed="17.23" duration="190.00" routeLength="1334.78" waitingTime="41.00" waitingCount="5" stopTime="0.00" timeLoss="87.79" rerouteNo="0" devices="tripinfo_f_0_1.7" vType="type1" speedFactor="0.90" vaporized=""/>
    <tripinfo id="f_0_2.16" depart="131.00" departLane="np2_nt2_0" departPos="34.64" departSpeed="0.00" departDelay="0.09" arrival="286.00" arrivalLane="nt15_np10_0" arrivalPos="75.00" arrivalSpeed="8.31" duration="155.00" routeLength="916.44" waitingTime="21.00" waitingCount="3" stopTime="0.00" timeLoss="71.78" rerouteNo="0" devices="tripinfo_f_0_2.16" vType="type1" speedFactor="0.92" vaporized=""/>
    <tripinfo id="f_0_0.10" depart="137.00" departLane="np13_nt13_0" departPos="57.23" departSpeed="0.00" departDelay="0.64" arrival="286.00" arrivalLane="nt4_np5_0" arrivalPos="75.00" arrivalSpeed="20.08" duration="149.00" routeLength="1290.66" waitingTime="21.00" waitingCount="3" stopTime="0.00" timeLoss="62.06" rerouteNo="0" devices="tripinfo_f_0_0.10" vType="type1" speedFactor="1.04" vaporized=""/>
    <tripinfo id="f_0_1.8" depart="110.00" departLane="np16_nt1_0" departPos="53.03" departSpeed="0.00" departDelay="0.91" arrival="288.00" arrivalLane="nt16_np8_0" arrivalPos="75.00" arrivalSpeed="20.34" duration="178.00" routeLength="1294.85" waitingTime="32.00" waitingCount="4" stopTime="0.00" timeLoss="91.31" rerouteNo="0" devices="tripinfo_f_0_1.8" vType="type1" speedFactor="1.06" vaporized=""/>
    <tripinfo id="f_0_2.17" depart="140.00" departLane="np2_nt2_0" departPos="45.74" departSpeed="0.00" departDelay="0.91" arrival="292.00" arrivalLane="nt15_np10_0" arrivalPos="75.00" arrivalSpeed="12.25" duration="152.00" routeLength="905.34" waitingTime="34.00" waitingCount="3" stopTime="0.00" timeLoss="88.49" rerouteNo="0" devices="tripinfo_f_0_2.17" vType="type1" speedFactor="1.19" vaporized=""/>
    <tripinfo id="f_0_2.18" depart="148.00" departLane="np2_nt2_0" departPos="22.42" departSpeed="0.00" departDelay="0.72" arrival="298.00" arrivalLane="nt15_np10_0" arrivalPos="75.00" arrivalSpeed="10.04" duration="150.00" routeLength="928.66" waitingTime="30.00" waitingCount="4" stopTime="0.00" timeLoss="80.20" rerouteNo="0" devices="tripinfo_f_0_2.18" vType="type1" speedFactor="1.12" vaporized=""/>
    <tripinfo id="f_0_1.9" depart="123.00" departLane="np16_nt1_0" departPos="24.94" departSpeed="0.00" departDelay="0.28" arrival="300.00" arrivalLane="nt16_np8_0" arrivalPos="75.00" arrivalSpeed="14.28" duration="177.00" routeLength="1322.94" waitingTime="26.00" waitingCount="2" stopTime="0.00" timeLoss="61.46" rerouteNo="0" devices="tripinfo_f_0_1.9" vType="type1" speedFactor="0.80" vaporized=""/>
    <tripinfo id="f_0_2.19" depart="156.00" departLane="np2_nt2_0" departPos="2.37" departSpeed="0.00" departDelay="0.54" arrival="301.00" arrivalLane="nt15_np10_0" arrivalPos="75.00" arrivalSpeed="9.43" duration="145.00" routeLength="948.71" waitingTime="22.00" waitingCount="3" stopTime="0.00" timeLoss="67.33" rerouteNo="0" devices="tripinfo_f_0_2.19" vType="type1" speedFactor="1.03" vaporized=""/>
    <tripinfo id="f_0_0.11" depart="150.00" departLane="np13_nt13_0" departPos="47.32" departSpeed="0.00" departDelay="0.00" arrival="303.00" arrivalLane="nt4_np5_0" arrivalPos="75.00" arrivalSpeed="23.38" duration="153.00" routeLength="1300.57" waitingTime="45.00" waitingCount="4" stopTime="0.00" timeLoss="78.05" rerouteNo="0" devices="tripinfo_f_0_0.11" vType="type1" speedFactor="1.22" vaporized=""/>
    <tripinfo id="f_0_2.20" depart="164.00" departLane="np2_nt2_0" departPos="33.92" departSpeed="0.00" departDelay="0.36" arrival="304.00" arrivalLane="nt15_np10_0" arrivalPos="75.00" arrivalSpeed="10.32" duration="140.00" routeLength="917.16" waitingTime="19.00" waitingCount="3" stopTime="0.00" timeLoss="71.82" rerouteNo="0" devices="tripinfo_f_0_2.20" vType="type1" speedFactor="1.12" vaporized=""/>
    <tripinfo id="f_0_2.21" depart="172.00" departLane="np2_nt2_0" departPos="35.45" departSpeed="0.00" departDelay="0.18" arrival="307.00" arrivalLane="nt15_np10_0" arrivalPos="75.00" arrivalSpeed="9.62" duration="135.00" routeLength="915.63" waitingTime="19.00" waitingCount="4" stopTime="0.00" timeLoss="58.95" rerouteNo="0" devices="tripinfo_f_0_2.21" vType="type1" speedFactor="1.01" vaporized=""/>
    <tripinfo id="f_0_1.10" depart="137.00" departLane="np16_nt1_0" departPos="35.16" departSpeed="0.00" departDelay="0.64" arrival="308.00" arrivalLane="nt16_np8_0" arrivalPos="75.00" arrivalSpeed="19.68" duration="171.00" routeLength="1312.72" waitingTime="23.00" waitingCount="3" stopTime="0.00" timeLoss="77.73" rerouteNo="0" devices="tripinfo_f_0_1.10" vType="type1" speedFactor="0.98" vaporized=""/>
    <tripinfo id="f_0_1.11" depart="150.00" departLane="np16_nt1_0" departPos="20.87" departSpeed="0.00" departDelay="0.00" arrival="310.00" arrivalLane="nt16_np8_0" arrivalPos="75.00" arrivalSpeed="17.29" duration="160.00" routeLength="1327.01" waitingTime="16.00" waitingCount="4" stopTime="0.00" timeLoss="59.68" rerouteNo="0" devices="tripinfo_f_0_1.11" vType="type1" speedFactor="0.92" vaporized=""/>
    <tripinfo id="f_0_1.12" depart="164.00" departLane="np16_nt1_0" departPos="16.15" departSpeed="0.00" departDelay="0.37" arrival="312.00" arrivalLane="nt16_np8_0" arrivalPos="75.00" arrivalSpeed="20.21" duration="148.00" routeLength="1331.73" waitingTime="9.00" waitingCount="2" stopTime="0.00" timeLoss="58.88" rerouteNo="0" devices="tripinfo_f_0_1.12" vType="type1" speedFactor="1.04" vaporized=""/>
    <tripinfo id="f_0_1.13" depart="178.00" departLane="np16_nt1_0" departPos="45.37" departSpeed="0.00" departDelay="0.73" arrival="320.00" arrivalLane="nt16_np8_0" arrivalPos="75.00" arrivalSpeed="18.77" duration="142.00" routeLength="1302.51" waitingTime="12.00" waitingCount="3" stopTime="0.00" timeLoss="52.71" rerouteNo="0" devices="tripinfo_f_0_1.13" vType="type1" speedFactor="1.03" vaporized=""/>
    <tripinfo id="f_0_2.22" depart="180.00" departLane="np2_nt2_0" departPos="19.47" departSpeed="0.00" departDelay="0.00" arrival="330.00" arrivalLane="nt15_np10_0" arrivalPos="75.00" arrivalSpeed="8.07" duration="150.00" routeLength="931.61" waitingTime="15.00" waitingCount="5" stopTime="0.00" timeLoss="51.76" rerouteNo="0" devices="tripinfo_f_0_2.22" vType="type1" speedFactor="0.80" vaporized=""/>
    <tripinfo id="f_0_3.21" depart="172.00" departLane="np3_nt3_0" departPos="56.31" departSpeed="0.00" departDelay="0.18" arrival="332.00" arrivalLane="nt14_np11_0" arrivalPos="75.00" arrivalSpeed="9.85" duration="160.00" routeLength="894.78" waitingTime="58.00" waitingCount="3" stopTime="0.00" timeLoss="82.59" rerouteNo="0" devices="tripinfo_f_0_3.21" vType="type1" speedFactor="0.96" vaporized=""/>