<?xml version="1.0" encoding="UTF-8"?>

<!-- generated on 2023-08-23 16:38:19 by Eclipse SUMO libsumo Version 1.18.0
<configuration xmlns:xsi="http://www.w3.org/2001/XMLSchema-instance" xsi:noNamespaceSchemaLocation="http://sumo.dlr.de/xsd/libsumoConfiguration.xsd">

    <input>
        <net-file value="/home/stefan/RESCO/./environments/arterial4x4/arterial4x4.net.xml"/>
        <route-files value="/home/stefan/RESCO/./environments/arterial4x4/arterial4x4_59.rou.xml"/>
    </input>

    <output>
        <tripinfo-output value="/home/stefan/results/IDDQN-tr0-arterial4x4-0-drq_norm-wait_norm/tripinfo_59.xml"/>
        <tripinfo-output.write-unfinished value="true"/>
    </output>

    <processing>
        <time-to-teleport value="-1"/>
    </processing>

    <report>
        <no-warnings value="True"/>
        <no-step-log value="True"/>
    </report>

    <random_number>
        <random value="true"/>
    </random_number>

</configuration>
-->

<tripinfos xmlns:xsi="http://www.w3.org/2001/XMLSchema-instance" xsi:noNamespaceSchemaLocation="http://sumo.dlr.de/xsd/tripinfo_file.xsd">
    <tripinfo id="f_0_0.0" depart="0.00" departLane="np13_nt13_0" departPos="45.10" departSpeed="0.00" departDelay="0.00" arrival="125.00" arrivalLane="nt4_np5_0" arrivalPos="75.00" arrivalSpeed="20.28" duration="125.00" routeLength="1302.79" waitingTime="7.00" waitingCount="3" stopTime="0.00" timeLoss="37.77" rerouteNo="0" devices="tripinfo_f_0_0.0" vType="type1" speedFactor="1.04" vaporized=""/>
    <tripinfo id="f_0_3.0" depart="0.00" departLane="np3_nt3_0" departPos="14.63" departSpeed="0.00" departDelay="0.00" arrival="134.00" arrivalLane="nt14_np11_0" arrivalPos="75.00" arrivalSpeed="9.73" duration="134.00" routeLength="936.46" waitingTime="32.00" waitingCount="3" stopTime="0.00" timeLoss="54.56" rerouteNo="0" devices="tripinfo_f_0_3.0" vType="type1" speedFactor="0.99" vaporized=""/>
    <tripinfo id="f_0_2.0" depart="0.00" departLane="np2_nt2_0" departPos="49.97" departSpeed="0.00" departDelay="0.00" arrival="140.00" arrivalLane="nt15_np10_0" arrivalPos="75.00" arrivalSpeed="6.34" duration="140.00" routeLength="901.11" waitingTime="15.00" waitingCount="3" stopTime="0.00" timeLoss="44.37" rerouteNo="0" devices="tripinfo_f_0_2.0" vType="type1" speedFactor="0.79" vaporized=""/>
    <tripinfo id="f_0_2.1" depart="9.00" departLane="np2_nt2_0" departPos="51.19" departSpeed="0.00" departDelay="0.82" arrival="142.00" arrivalLane="nt15_np10_0" arrivalPos="75.00" arrivalSpeed="10.02" duration="133.00" routeLength="899.89" waitingTime="11.00" waitingCount="3" stopTime="0.00" timeLoss="64.42" rerouteNo="0" devices="tripinfo_f_0_2.1" vType="type1" speedFactor="1.09" vaporized=""/>
    <tripinfo id="f_0_1.0" depart="0.00" departLane="np16_nt1_0" departPos="57.84" departSpeed="0.00" departDelay="0.00" arrival="154.00" arrivalLane="nt16_np8_0" arrivalPos="75.00" arrivalSpeed="20.93" duration="154.00" routeLength="1290.04" waitingTime="8.00" waitingCount="3" stopTime="0.00" timeLoss="68.97" rerouteNo="0" devices="tripinfo_f_0_1.0" vType="type1" speedFactor="1.07" vaporized=""/>
    <tripinfo id="f_0_2.2" depart="17.00" departLane="np2_nt2_0" departPos="63.08" departSpeed="0.00" departDelay="0.64" arrival="157.00" arrivalLane="nt15_np10_0" arrivalPos="75.00" arrivalSpeed="10.20" duration="140.00" routeLength="888.00" waitingTime="20.00" waitingCount="6" stopTime="0.00" timeLoss="63.53" rerouteNo="0" devices="tripinfo_f_0_2.2" vType="type1" speedFactor="0.96" vaporized=""/>
    <tripinfo id="f_0_2.3" depart="25.00" departLane="np2_nt2_0" departPos="17.64" departSpeed="0.00" departDelay="0.45" arrival="159.00" arrivalLane="nt15_np10_0" arrivalPos="75.00" arrivalSpeed="9.66" duration="134.00" routeLength="933.44" waitingTime="17.00" waitingCount="4" stopTime="0.00" timeLoss="61.23" rerouteNo="0" devices="tripinfo_f_0_2.3" vType="type1" speedFactor="1.07" vaporized=""/>
    <tripinfo id="f_0_2.4" depart="33.00" departLane="np2_nt2_0" departPos="27.31" departSpeed="0.00" departDelay="0.27" arrival="165.00" arrivalLane="nt15_np10_0" arrivalPos="75.00" arrivalSpeed="9.75" duration="132.00" routeLength="923.77" waitingTime="24.00" waitingCount="4" stopTime="0.00" timeLoss="48.42" rerouteNo="0" devices="tripinfo_f_0_2.4" vType="type1" speedFactor="0.92" vaporized=""/>
    <tripinfo id="f_0_2.5" depart="41.00" departLane="np2_nt2_0" departPos="16.19" departSpeed="0.00" departDelay="0.09" arrival="167.00" arrivalLane="nt15_np10_0" arrivalPos="75.00" arrivalSpeed="9.04" duration="126.00" routeLength="934.89" waitingTime="15.00" waitingCount="3" stopTime="0.00" timeLoss="43.80" rerouteNo="0" devices="tripinfo_f_0_2.5" vType="type1" speedFactor="0.96" vaporized=""/>
    <tripinfo id="f_0_2.6" depart="50.00" departLane="np2_nt2_0" departPos="37.60" departSpeed="0.00" departDelay="0.91" arrival="169.00" arrivalLane="nt15_np10_0" arrivalPos="75.00" arrivalSpeed="11.11" duration="119.00" routeLength="913.48" waitingTime="11.00" waitingCount="2" stopTime="0.00" timeLoss="44.96" rerouteNo="0" devices="tripinfo_f_0_2.6" vType="type1" speedFactor="1.03" vaporized=""/>
    <tripinfo id="f_0_2.7" depart="58.00" departLane="np2_nt2_0" departPos="51.66" departSpeed="0.00" departDelay="0.73" arrival="171.00" arrivalLane="nt15_np10_0" arrivalPos="75.00" arrivalSpeed="10.17" duration="113.00" routeLength="899.42" waitingTime="6.00" waitingCount="2" stopTime="0.00" timeLoss="39.37" rerouteNo="0" devices="tripinfo_f_0_2.7" vType="type1" speedFactor="1.02" vaporized=""/>
    <tripinfo id="f_0_1.1" depart="14.00" departLane="np16_nt1_0" departPos="25.00" departSpeed="0.00" departDelay="0.36" arrival="172.00" arrivalLane="nt16_np8_0" arrivalPos="75.00" arrivalSpeed="16.34" duration="158.00" routeLength="1322.88" waitingTime="26.00" waitingCount="3" stopTime="0.00" timeLoss="53.98" rerouteNo="0" devices="tripinfo_f_0_1.1" vType="type1" speedFactor="0.89" vaporized=""/>
    <tripinfo id="f_0_3.1" depart="9.00" departLane="np3_nt3_0" departPos="22.20" departSpeed="0.00" departDelay="0.82" arrival="173.00" arrivalLane="nt14_np11_0" arrivalPos="75.00" arrivalSpeed="8.80" duration="164.00" routeLength="928.89" waitingTime="59.00" waitingCount="4" stopTime="0.00" timeLoss="86.32" rerouteNo="0" devices="tripinfo_f_0_3.1" vType="type1" speedFactor="1.01" vaporized=""/>
    <tripinfo id="f_0_3.2" depart="17.00" departLane="np3_nt3_0" departPos="48.23" departSpeed="0.00" departDelay="0.64" arrival="175.00" arrivalLane="nt14_np11_0" arrivalPos="75.00" arrivalSpeed="9.46" duration="158.00" routeLength="902.86" waitingTime="49.00" waitingCount="6" stopTime="0.00" timeLoss="79.90" rerouteNo="0" devices="tripinfo_f_0_3.2" vType="type1" speedFactor="0.97" vaporized=""/>
    <tripinfo id="f_0_3.3" depart="25.00" departLane="np3_nt3_0" departPos="36.13" departSpeed="0.00" departDelay="0.45" arrival="177.00" arrivalLane="nt14_np11_0" arrivalPos="75.00" arrivalSpeed="9.77" duration="152.00" routeLength="914.96" waitingTime="39.00" waitingCount="5" stopTime="0.00" timeLoss="77.33" rerouteNo="0" devices="tripinfo_f_0_3.3" vType="type1" speedFactor="1.03" vaporized=""/>
    <tripinfo id="f_0_3.4" depart="33.00" departLane="np3_nt3_0" departPos="24.06" departSpeed="0.00" departDelay="0.27" arrival="179.00" arrivalLane="nt14_np11_0" arrivalPos="75.00" arrivalSpeed="10.93" duration="146.00" routeLength="927.03" waitingTime="39.00" waitingCount="4" stopTime="0.00" timeLoss="71.74" rerouteNo="0" devices="tripinfo_f_0_3.4" vType="type1" speedFactor="1.05" vaporized=""/>
    <tripinfo id="f_0_1.2" depart="28.00" departLane="np16_nt1_0" departPos="7.78" departSpeed="0.00" departDelay="0.73" arrival="182.00" arrivalLane="nt16_np8_0" arrivalPos="75.00" arrivalSpeed="20.83" duration="154.00" routeLength="1340.10" waitingTime="26.00" waitingCount="2" stopTime="0.00" timeLoss="64.48" rerouteNo="0" devices="tripinfo_f_0_1.2" vType="type1" speedFactor="1.05" vaporized=""/>
    <tripinfo id="f_0_0.1" depart="14.00" departLane="np13_nt13_0" departPos="32.66" departSpeed="0.00" departDelay="0.36" arrival="183.00" arrivalLane="nt4_np5_0" arrivalPos="75.00" arrivalSpeed="19.35" duration="169.00" routeLength="1315.23" waitingTime="45.00" waitingCount="4" stopTime="0.00" timeLoss="80.26" rerouteNo="0" devices="tripinfo_f_0_0.1" vType="type1" speedFactor="1.03" vaporized=""/>
    <tripinfo id="f_0_1.3" depart="41.00" departLane="np16_nt1_0" departPos="49.33" departSpeed="0.00" departDelay="0.09" arrival="187.00" arrivalLane="nt16_np8_0" arrivalPos="75.00" arrivalSpeed="18.58" duration="146.00" routeLength="1298.55" waitingTime="24.00" waitingCount="3" stopTime="0.00" timeLoss="55.69" rerouteNo="0" devices="tripinfo_f_0_1.3" vType="type1" speedFactor="1.01" vaporized=""/>
    <tripinfo id="f_0_1.4" depart="55.00" departLane="np16_nt1_0" departPos="37.42" departSpeed="0.00" departDelay="0.46" arrival="192.00" arrivalLane="nt16_np8_0" arrivalPos="75.00" arrivalSpeed="22.11" duration="137.00" routeLength="1310.46" waitingTime="20.00" waitingCount="4" stopTime="0.00" timeLoss="57.18" rerouteNo="0" devices="tripinfo_f_0_1.4" vType="type1" speedFactor="1.14" vaporized=""/>
    <tripinfo id="f_0_3.5" depart="41.00" departLane="np3_nt3_0" departPos="7.59" departSpeed="0.00" departDelay="0.09" arrival="193.00" arrivalLane="nt14_np11_0" arrivalPos="75.00" arrivalSpeed="7.43" duration="152.00" routeLength="943.50" waitingTime="31.00" waitingCount="4" stopTime="0.00" timeLoss="64.39" rerouteNo="0" devices="tripinfo_f_0_3.5" vType="type1" speedFactor="0.90" vaporized=""/>
    <tripinfo id="f_0_3.6" depart="50.00" departLane="np3_nt3_0" departPos="35.70" departSpeed="0.00" departDelay="0.91" arrival="195.00" arrivalLane="nt14_np11_0" arrivalPos="75.00" arrivalSpeed="9.22" duration="145.00" routeLength="915.39" waitingTime="29.00" waitingCount="6" stopTime="0.00" timeLoss="69.95" rerouteNo="0" devices="tripinfo_f_0_3.6" vType="type1" speedFactor="1.02" vaporized=""/>
    <tripinfo id="f_0_3.7" depart="58.00" departLane="np3_nt3_0" departPos="30.34" departSpeed="0.00" departDelay="0.73" arrival="197.00" arrivalLane="nt14_np11_0" arrivalPos="75.00" arrivalSpeed="9.69" duration="139.00" routeLength="920.75" waitingTime="30.00" waitingCount="4" stopTime="0.00" timeLoss="65.84" rerouteNo="0" devices="tripinfo_f_0_3.7" vType="type1" speedFactor="1.05" vaporized=""/>
    <tripinfo id="f_0_3.8" depart="66.00" departLane="np3_nt3_0" departPos="15.78" departSpeed="0.00" departDelay="0.54" arrival="202.00" arrivalLane="nt14_np11_0" arrivalPos="75.00" arrivalSpeed="10.58" duration="136.00" routeLength="935.31" waitingTime="32.00" waitingCount="4" stopTime="0.00" timeLoss="57.36" rerouteNo="0" devices="tripinfo_f_0_3.8" vType="type1" speedFactor="1.00" vaporized=""/>
    <tripinfo id="f_0_0.2" depart="28.00" departLane="np13_nt13_0" departPos="13.78" departSpeed="0.00" departDelay="0.73" arrival="204.00" arrivalLane="nt4_np5_0" arrivalPos="75.00" arrivalSpeed="18.47" duration="176.00" routeLength="1334.11" waitingTime="46.00" waitingCount="5" stopTime="0.00" timeLoss="84.97" rerouteNo="0" devices="tripinfo_f_0_0.2" vType="type1" speedFactor="1.02" vaporized=""/>
    <tripinfo id="f_0_1.5" depart="69.00" departLane="np16_nt1_0" departPos="33.40" departSpeed="0.00" departDelay="0.82" arrival="211.00" arrivalLane="nt16_np8_0" arrivalPos="75.00" arrivalSpeed="20.82" duration="142.00" routeLength="1314.48" waitingTime="31.00" waitingCount="3" stopTime="0.00" timeLoss="54.73" rerouteNo="0" devices="tripinfo_f_0_1.5" vType="type1" speedFactor="1.04" vaporized=""/>
    <tripinfo id="f_0_3.9" depart="74.00" departLane="np3_nt3_0" departPos="13.18" departSpeed="0.00" departDelay="0.36" arrival="217.00" arrivalLane="nt14_np11_0" arrivalPos="75.00" arrivalSpeed="10.89" duration="143.00" routeLength="937.91" waitingTime="36.00" waitingCount="4" stopTime="0.00" timeLoss="65.06" rerouteNo="0" devices="tripinfo_f_0_3.9" vType="type1" speedFactor="1.01" vaporized=""/>
    <tripinfo id="f_0_3.10" depart="82.00" departLane="np3_nt3_0" departPos="9.74" departSpeed="0.00" departDelay="0.18" arrival="219.00" arrivalLane="nt14_np11_0" arrivalPos="75.00" arrivalSpeed="9.76" duration="137.00" routeLength="941.35" waitingTime="24.00" waitingCount="3" stopTime="0.00" timeLoss="56.98" rerouteNo="0" devices="tripinfo_f_0_3.10" vType="type1" speedFactor="0.99" vaporized=""/>
    <tripinfo id="f_0_0.3" depart="41.00" departLane="np13_nt13_0" departPos="30.54" departSpeed="0.00" departDelay="0.09" arrival="224.00" arrivalLane="nt4_np5_0" arrivalPos="75.00" arrivalSpeed="15.82" duration="183.00" routeLength="1317.35" waitingTime="52.00" waitingCount="4" stopTime="0.00" timeLoss="81.96" rerouteNo="0" devices="tripinfo_f_0_0.3" vType="type1" speedFactor="0.91" vaporized=""/>
    <tripinfo id="f_0_0.4" depart="55.00" departLane="np13_nt13_0" departPos="51.11" departSpeed="0.00" departDelay="0.46" arrival="243.00" arrivalLane="nt4_np5_0" arrivalPos="75.00" arrivalSpeed="20.46" duration="188.00" routeLength="1296.78" waitingTime="65.00" waitingCount="6" stopTime="0.00" timeLoss="101.80" rerouteNo="0" devices="tripinfo_f_0_0.4" vType="type1" speedFactor="1.05" vaporized=""/>
    <tripinfo id="f_0_0.5" depart="69.00" departLane="np13_nt13_0" departPos="5.08" departSpeed="0.00" departDelay="0.82" arrival="245.00" arrivalLane="nt4_np5_0" arrivalPos="75.00" arrivalSpeed="17.43" duration="176.00" routeLength="1342.81" waitingTime="42.00" waitingCount="5" stopTime="0.00" timeLoss="77.78" rerouteNo="0" devices="tripinfo_f_0_0.5" vType="type1" speedFactor="0.94" vaporized=""/>
    <tripinfo id="f_0_0.6" depart="82.00" departLane="np13_nt13_0" departPos="22.35" departSpeed="0.00" departDelay="0.18" arrival="253.00" arrivalLane="nt4_np5_0" arrivalPos="75.00" arrivalSpeed="17.65" duration="171.00" routeLength="1325.54" waitingTime="42.00" waitingCount="6" stopTime="0.00" timeLoss="79.60" rerouteNo="0" devices="tripinfo_f_0_0.6" vType="type1" speedFactor="1.00" vaporized=""/>
    <tripinfo id="f_0_3.11" depart="90.00" departLane="np3_nt3_0" departPos="4.02" departSpeed="0.00" departDelay="0.00" arrival="253.00" arrivalLane="nt14_np11_0" arrivalPos="75.00" arrivalSpeed="10.16" duration="163.00" routeLength="947.07" waitingTime="45.00" waitingCount="4" stopTime="0.00" timeLoss="80.86" rerouteNo="0" devices="tripinfo_f_0_3.11" vType="type1" speedFactor="0.97" vaporized=""/>
    <tripinfo id="f_0_0.7" depart="96.00" departLane="np13_nt13_0" departPos="21.84" departSpeed="0.00" departDelay="0.55" arrival="255.00" arrivalLane="nt4_np5_0" arrivalPos="75.00" arrivalSpeed="22.29" duration="159.00" routeLength="1326.05" waitingTime="33.00" waitingCount="5" stopTime="0.00" timeLoss="76.70" rerouteNo="0" devices="tripinfo_f_0_0.7" vType="type1" speedFactor="1.12" vaporized=""/>
    <tripinfo id="f_0_3.12" depart="99.00" departLane="np3_nt3_0" departPos="10.06" departSpeed="0.00" departDelay="0.82" arrival="256.00" arrivalLane="nt14_np11_0" arrivalPos="75.00" arrivalSpeed="8.70" duration="157.00" routeLength="941.03" waitingTime="22.00" waitingCount="3" stopTime="0.00" timeLoss="63.74" rerouteNo="0" devices="tripinfo_f_0_3.12" vType="type1" speedFactor="0.85" vaporized=""/>
    <tripinfo id="f_0_0.8" depart="110.00" departLane="np13_nt13_0" departPos="36.08" departSpeed="0.00" departDelay="0.91" arrival="257.00" arrivalLane="nt4_np5_0" arrivalPos="75.00" arrivalSpeed="19.88" duration="147.00" routeLength="1311.81" waitingTime="14.00" waitingCount="4" stopTime="0.00" timeLoss="56.91" rerouteNo="0" devices="tripinfo_f_0_0.8" vType="type1" speedFactor="1.02" vaporized=""/>
    <tripinfo id="f_0_2.8" depart="66.00" departLane="np2_nt2_0" departPos="4.05" departSpeed="0.00" departDelay="0.54" arrival="259.00" arrivalLane="nt15_np10_0" arrivalPos="75.00" arrivalSpeed="8.35" duration="193.00" routeLength="947.03" waitingTime="72.00" waitingCount="4" stopTime="0.00" timeLoss="100.07" rerouteNo="0" devices="tripinfo_f_0_2.8" vType="type1" speedFactor="0.86" vaporized=""/>
    <tripinfo id="f_0_2.9" depart="74.00" departLane="np2_nt2_0" departPos="41.13" departSpeed="0.00" departDelay="0.36" arrival="261.00" arrivalLane="nt15_np10_0" arrivalPos="75.00" arrivalSpeed="9.72" duration="187.00" routeLength="909.95" waitingTime="66.00" waitingCount="5" stopTime="0.00" timeLoss="114.11" rerouteNo="0" devices="tripinfo_f_0_2.9" vType="type1" speedFactor="1.05" vaporized=""/>
    <tripinfo id="f_0_2.10" depart="82.00" departLane="np2_nt2_0" departPos="33.92" departSpeed="0.00" departDelay="0.18" arrival="267.00" arrivalLane="nt15_np10_0" arrivalPos="75.00" arrivalSpeed="5.81" duration="185.00" routeLength="917.16" waitingTime="37.00" waitingCount="6" stopTime="0.00" timeLoss="78.13" rerouteNo="0" devices="tripinfo_f_0_2.10" vType="type1" speedFactor="0.72" vaporized=""/>
    <tripinfo id="f_0_1.6" depart="82.00" departLane="np16_nt1_0" departPos="18.29" departSpeed="0.00" departDelay="0.18" arrival="272.00" arrivalLane="nt16_np8_0" arrivalPos="75.00" arrivalSpeed="18.17" duration="190.00" routeLength="1329.59" waitingTime="35.00" waitingCount="5" stopTime="0.00" timeLoss="100.08" rerouteNo="0" devices="tripinfo_f_0_1.6" vType="type1" speedFactor="1.03" vaporized=""/>
    <tripinfo id="f_0_2.11" depart="90.00" departLane="np2_nt2_0" departPos="1.17" departSpeed="0.00" departDelay="0.00" arrival="278.00" arrivalLane="nt15_np10_0" arrivalPos="75.00" arrivalSpeed="12.83" duration="188.00" routeLength="949.91" waitingTime="48.00" waitingCount="6" stopTime="0.00" timeLoss="119.35" rerouteNo="0" devices="tripinfo_f_0_2.11" vType="type1" speedFactor="1.17" vaporized=""/>
    <tripinfo id="f_0_3.13" depart="107.00" departLane="np3_nt3_0" departPos="17.61" departSpeed="0.00" departDelay="0.63" arrival="278.00" arrivalLane="nt14_np11_0" arrivalPos="75.00" arrivalSpeed="8.84" duration="171.00" routeLength="933.48" waitingTime="57.00" waitingCount="5" stopTime="0.00" timeLoss="87.02" rerouteNo="0" devices="tripinfo_f_0_3.13" vType="type1" speedFactor="0.94" vaporized=""/>
    <tripinfo id="f_0_3.14" depart="115.00" departLane="np3_nt3_0" departPos="6.18" departSpeed="0.00" departDelay="0.45" arrival="280.00" arrivalLane="nt14_np11_0" arrivalPos="75.00" arrivalSpeed="10.37" duration="165.00" routeLength="944.91" waitingTime="53.00" waitingCount="5" stopTime="0.00" timeLoss="96.00" rerouteNo="0" devices="tripinfo_f_0_3.14" vType="type1" speedFactor="1.15" vaporized=""/>
    <tripinfo id="f_0_2.12" depart="99.00" departLane="np2_nt2_0" departPos="20.60" departSpeed="0.00" departDelay="0.82" arrival="282.00" arrivalLane="nt15_np10_0" arrivalPos="75.00" arrivalSpeed="9.89" duration="183.00" routeLength="930.48" waitingTime="54.00" waitingCount="6" stopTime="0.00" timeLoss="97.69" rerouteNo="0" devices="tripinfo_f_0_2.12" vType="type1" speedFactor="0.91" vaporized=""/>
    <tripinfo id="f_0_2.13" depart="107.00" departLane="np2_nt2_0" departPos="40.77" departSpeed="0.00" departDelay="0.63" arrival="284.00" arrivalLane="nt15_np10_0" arrivalPos="75.00" arrivalSpeed="11.25" duration="177.00" routeLength="910.31" waitingTime="46.00" waitingCount="6" stopTime="0.00" timeLoss="112.41" rerouteNo="0" devices="tripinfo_f_0_2.13" vType="type1" speedFactor="1.20" vaporized=""/>
    <tripinfo id="f_0_1.7" depart="96.00" departLane="np16_nt1_0" departPos="12.89" departSpeed="0.00" departDelay="0.55" arrival="287.00" arrivalLane="nt16_np8_0" arrivalPos="75.00" arrivalSpeed="17.19" duration="191.00" routeLength="1334.99" waitingTime="39.00" waitingCount="5" stopTime="0.00" timeLoss="85.59" rerouteNo="0" devices="tripinfo_f_0_1.7" vType="type1" speedFactor="0.88" vaporized=""/>
    <tripinfo id="f_0_1.8" depart="110.00" departLane="np16_nt1_0" departPos="42.80" departSpeed="0.00" departDelay="0.91" arrival="299.00" arrivalLane="nt16_np8_0" arrivalPos="75.00" arrivalSpeed="21.02" duration="189.00" routeLength="1305.08" waitingTime="42.00" waitingCount="5" stopTime="0.00" timeLoss="103.36" rerouteNo="0" devices="tripinfo_f_0_1.8" vType="type1" speedFactor="1.07" vaporized=""/>
    <tripinfo id="f_0_0.9" depart="123.00" departLane="np13_nt13_0" departPos="38.74" departSpeed="0.00" departDelay="0.28" arrival="299.00" arrivalLane="nt4_np5_0" arrivalPos="75.00" arrivalSpeed="14.68" duration="176.00" routeLength="1309.15" waitingTime="13.00" waitingCount="5" stopTime="0.00" timeLoss="52.87" rerouteNo="0" devices="tripinfo_f_0_0.9" vType="type1" speedFactor="0.74" vaporized=""/>
    <tripinfo id="f_0_0.10" depart="137.00" departLane="np13_nt13_0" departPos="9.91" departSpeed="0.00" departDelay="0.64" arrival="300.00" arrivalLane="nt4_np5_0" arrivalPos="75.00" arrivalSpeed="19.17" duration="163.00" routeLength="1337.98" waitingTime="21.00" waitingCount="3" stopTime="0.00" timeLoss="69.21" rerouteNo="0" devices="tripinfo_f_0_0.10" vType="type1" speedFactor="0.98" vaporized=""/>
    <tripinfo id="f_0_3.15" depart="123.00" departLane="np3_nt3_0" departPos="17.32" departSpeed="0.00" departDelay="0.27" arrival="307.00" arrivalLane="nt14_np11_0" arrivalPos="75.00" arrivalSpeed="8.48" duration="184.00" routeLength="933.77" waitingTime="70.00" waitingCount="6" stopTime="0.00" timeLoss="103.78" rerouteNo="0" devices="tripinfo_f_0_3.15" vType="type1" speedFactor="0.97" vaporized=""/>
    <tripinfo id="f_0_3.16" depart="131.00" departLane="np3_nt3_0" departPos="9.53" departSpeed="0.00" departDelay="0.09" arrival="309.00" arrivalLane="nt14_np11_0" arrivalPos="75.00" arrivalSpeed="9.26" duration="178.00" routeLength="941.56" waitingTime="63.00" waitingCount="7" stopTime="0.00" timeLoss="102.90" rerouteNo="0" devices="tripinfo_f_0_3.16" vType="type1" speedFactor="1.05" vaporized=""/>
    <tripinfo id="f_0_2.14" depart="115.00" departLane="np2_nt2_0" departPos="1.71" departSpeed="0.00" departDelay="0.45" arrival="311.00" arrivalLane="nt15_np10_0" arrivalPos="75.00" arrivalSpeed="11.59" duration="196.00" routeLength="949.37" waitingTime="59.00" waitingCount="9" stopTime="0.00" timeLoss="124.81" rerouteNo="0" devices="tripinfo_f_0_2.14" vType="type1" speedFactor="1.12" vaporized=""/>
    <tripinfo id="f_0_1.9" depart="123.00" departLane="np16_nt1_0" departPos="39.87" departSpeed="0.00" departDelay="0.28" arrival="311.00" arrivalLane="nt16_np8_0" arrivalPos="75.00" arrivalSpeed="19.05" duration="188.00" routeLength="1308.01" waitingTime="38.00" waitingCount="5" stopTime="0.00" timeLoss="94.45" rerouteNo="0" devices="tripinfo_f_0_1.9" vType="type1" speedFactor="0.98" vaporized=""/>
    <tripinfo id="f_0_2.15" depart="123.00" departLane="np2_nt2_0" departPos="11.63" departSpeed="0.00" departDelay="0.27" arrival="314.00" arrivalLane="nt15_np10_0" arrivalPos="75.00" arrivalSpeed="8.63" duration="191.00" routeLength="939.45" waitingTime="56.00" waitingCount="9" stopTime="0.00" timeLoss="109.68" rerouteNo="0" devices="tripinfo_f_0_2.15" vType="type1" speedFactor="0.97" vaporized=""/>
    <tripinfo id="f_0_1.10" depart="137.00" departLane="np16_nt1_0" departPos="9.86" departSpeed="0.00" departDelay="0.64" arrival="333.00" arrivalLane="nt16_np8_0" arrivalPos="75.00" arrivalSpeed="20.92" duration="196.00" routeLength="1338.02" waitingTime="37.00" waitingCount="8" stopTime="0.00" timeLoss="108.29" rerouteNo="0" devices="tripinfo_f_0_1.10" vType="type1" speedFactor="1.06" vaporized=""/>
    <tripinfo id="f_0_2.16" depart="131.00" departLane="np2_nt2_0" departPos="31.36" departSpeed="0.00" departDelay="0.09" arrival="342.00" arrivalLane="nt15_np10_0" arrivalPos="75.00" arrivalSpeed="10.44" duration="211.00" routeLength="919.72" waitingTime="56.00" waitingCount="11" stopTime="0.00" timeLoss="131.09" rerouteNo="0" devices="tripinfo_f_0_2.16" vType="type1" speedFactor="0.97" vaporized=""/>
    <tripinfo id="f_0_2.17" depart="140.00" departLane="np2_nt2_0" departPos="18.54" departSpeed="0.00" departDelay="0.91" arrival="344.00" arrivalLane="nt15_np10_0" arrivalPos="75.00" arrivalSpeed="10.48" duration="204.00" routeLength="932.54" waitingTime="57.00" waitingCount="10" stopTime="0.00" timeLoss="124.75" rerouteNo="0" devices="tripinfo_f_0_2.17" vType="type1" speedFactor="0.98" vaporized=""/>
    <tripinfo id="f_0_0.11" depart="150.00" departLane="np13_nt13_0" departPos="34.83" departSpeed="0.00" departDelay="0.00" arrival="354.00" arrivalLane="nt4_np5_0" arrivalPos="75.00" arrivalSpeed="14.08" duration="204.00" routeLength="1313.06" waitingTime="62.00" waitingCount="4" stopTime="0.00" timeLoss="92.22" rerouteNo="0" devices="tripinfo_f_0_0.11" vType="type1" speedFactor="0.82" vaporized=""/>
    <tripinfo id="f_0_2.18" depart="148.00" departLane="np2_nt2_0" departPos="38.04" departSpeed="0.00" departDelay="0.72" arrival="357.00" arrivalLane="nt15_np10_0" arrivalPos="75.00" arrivalSpeed="8.80" duration="209.00" routeLength="913.04" waitingTime="63.00" waitingCount="10" stopTime="0.00" timeLoss="133.28" rerouteNo="0" devices="tripinfo_f_0_2.18" vType="type1" speedFactor="1.02" vaporized=""/>
    <tripinfo id="f_0_0.12" depart="164.00" departLane="np13_nt13_0" departPos="34.87" departSpeed="0.00" departDelay="0.37" arrival="357.00" arrivalLane="nt4_np5_0" arrivalPos="75.00" arrivalSpeed="16.39" duration="193.00" routeLength="1313.02" waitingTime="56.00" waitingCount="5" stopTime="0.00" timeLoss="95.94" rerouteNo="0" devices="tripinfo_f_0_0.12" vType="type1" speedFactor="0.94" vaporized=""/>
    <tripinfo id="f_0_2.19" depart="156.00" departLane="np2_nt2_0" departPos="33.17" departSpeed="0.00" departDelay="0.54" arrival="359.00" arrivalLane="nt15_np10_0" arrivalPos="75.00" arrivalSpeed="10.28" duration="203.00" routeLength="917.91" waitingTime="51.00" waitingCount="10" stopTime="0.00" timeLoss="123.73" rerouteNo="0" devices="tripinfo_f_0_2.19" vType="type1" speedFactor="0.97" vaporized=""/>
    <tripinfo id="f_0_2.20" depart="164.00" departLane="np2_nt2_0" departPos="28.28" departSpeed="0.00" departDelay="0.36" arrival="361.00" arrivalLane="nt15_np10_0" arrivalPos="75.00" arrivalSpeed="9.40" duration="197.00" routeLength="922.80" waitingTime="45.00" waitingCount="9" stopTime="0.00" timeLoss="125.71" rerouteNo="0" devices="tripinfo_f_0_2.20" vType="type1" speedFactor="1.08" vaporized=""/>
    <tripinfo id="f_0_3.17" depart="140.00" departLane="np3_nt3_0" departPos="11.43" departSpeed="0.00" departDelay="0.91" arrival="373.00" arrivalLane="nt14_np11_0" arrivalPos="75.00" arrivalSpeed="8.43" duration="233.00" routeLength="939.66" waitingTime="108.00" waitingCount="8" stopTime="0.00" timeLoss="152.00" rerouteNo="0" devices="tripinfo_f_0_3.17" vType="type1" speedFactor="0.98" vaporized=""/>
    <tripinfo id="f_0_3.18" depart="148.00" departLane="np3_nt3_0" departPos="15.80" departSpeed="0.00" departDelay="0.72" arrival="374.00" arrivalLane="nt14_np11_0" arrivalPos="75.00" arrivalSpeed="10.76" duration="226.00" routeLength="935.29" waitingTime="117.00" waitingCount="6" stopTime="0.00" timeLoss="148.59" rerouteNo="0" devices="tripinfo_f_0_3.18" vType="type1" speedFactor="1.01" vaporized=""/>
    <tripinfo id="f_0_0.13" depart="178.00" departLane="np13_nt13_0" departPos="16.47" departSpeed="0.00" departDelay="0.73" arrival="374.00" arrivalLane="nt4_np5_0" arrivalPos="75.00" arrivalSpeed="14.73" duration="196.00" routeLength="1331.42" waitingTime="50.00" waitingCount="5" stopTime="0.00" timeLoss="84.98" rerouteNo="0" devices="tripinfo_f_0_0.13" vType="type1" speedFactor="0.84" vaporized=""/>
    <tripinfo id="f_0_2.21" depart="172.00" departLane="np2_nt2_0" departPos="59.49" departSpeed="0.00" departDelay="0.18" arrival="375.00" arrivalLane="nt15_np10_0" arrivalPos="75.00" arrivalSpeed="10.40" duration="203.00" routeLength="891.59" waitingTime="52.00" waitingCount="9" stopTime="0.00" timeLoss="125.85" rerouteNo="0" devices="tripinfo_f_0_2.21" vType="type1" speedFactor="0.97" vaporized=""/>
    <tripinfo id="f_0_3.19" depart="156.00" departLane="np3_nt3_0" departPos="7.13" departSpeed="0.00" departDelay="0.54" arrival="378.00" arrivalLane="nt14_np11_0" arrivalPos="75.00" arrivalSpeed="6.96" duration="222.00" routeLength="943.96" waitingTime="91.00" waitingCount="5" stopTime="0.00" timeLoss="127.62" rerouteNo="0" devices="tripinfo_f_0_3.19" vType="type1" speedFactor="0.84" vaporized=""/>
    <tripinfo id="f_0_2.22" depart="180.00" departLane="np2_nt2_0" departPos="49.40" departSpeed="0.00" departDelay="0.00" arrival="378.00" arrivalLane="nt15_np10_0" arrivalPos="75.00" arrivalSpeed="9.01" duration="198.00" routeLength="901.68" waitingTime="42.00" waitingCount="8" stopTime="0.00" timeLoss="112.64" rerouteNo="0" devices="tripinfo_f_0_2.22" vType="type1" speedFactor="0.88" vaporized=""/>
    <tripinfo id="f_0_1.11" depart="150.00" departLane="np16_nt1_0" departPos="21.51" departSpeed="0.00" departDelay="0.00" arrival="379.00" arrivalLane="nt16_np8_0" arrivalPos="75.00" arrivalSpeed="15.04" duration="229.00" routeLength="1326.37" waitingTime="53.00" waitingCount="8" stopTime="0.00" timeLoss="121.62" rerouteNo="0" devices="tripinfo_f_0_1.11" vType="type1" speedFactor="0.86" vaporized=""/>
    <tripinfo id="f_0_1.12" depart="164.00" departLane="np16_nt1_0" departPos="41.17" departSpeed="0.00" departDelay="0.37" arrival="380.00" arrivalLane="nt16_np8_0" arrivalPos="75.00" arrivalSpeed="19.17" duration="216.00" routeLength="1306.71" waitingTime="47.00" waitingCount="9" stopTime="0.00" timeLoss="121.48" rerouteNo="0" devices="tripinfo_f_0_1.12" vType="type1" speedFactor="0.97" vaporized=""/>
    <tripinfo id="f_0_3.20" depart="164.00" departLane="np3_nt3_0" departPos="15.82" departSpeed="0.00" departDelay="0.36" arrival="380.00" arrivalLane="nt14_np11_0" arrivalPos="75.00" arrivalSpeed="9.61" duration="216.00" routeLength="935.27" waitingTime="89.00" waitingCount="7" stopTime="0.00" timeLoss="135.16" rerouteNo="0" devices="tripinfo_f_0_3.20" vType="type1" speedFactor="0.97" vaporized=""/>