<?xml version="1.0" encoding="UTF-8"?>

<!-- generated on 2023-08-23 16:05:50 by Eclipse SUMO libsumo Version 1.18.0
<configuration xmlns:xsi="http://www.w3.org/2001/XMLSchema-instance" xsi:noNamespaceSchemaLocation="http://sumo.dlr.de/xsd/libsumoConfiguration.xsd">

    <input>
        <net-file value="/home/stefan/RESCO/./environments/arterial4x4/arterial4x4.net.xml"/>
        <route-files value="/home/stefan/RESCO/./environments/arterial4x4/arterial4x4_20.rou.xml"/>
    </input>

    <output>
        <tripinfo-output value="/home/stefan/results/IDDQN-tr0-arterial4x4-0-drq_norm-wait_norm/tripinfo_20.xml"/>
        <tripinfo-output.write-unfinished value="true"/>
    </output>

    <processing>
        <time-to-teleport value="-1"/>
    </processing>

    <report>
        <no-warnings value="True"/>
        <no-step-log value="True"/>
    </report>

    <random_number>
        <random value="true"/>
    </random_number>

</configuration>
-->

<tripinfos xmlns:xsi="http://www.w3.org/2001/XMLSchema-instance" xsi:noNamespaceSchemaLocation="http://sumo.dlr.de/xsd/tripinfo_file.xsd">
    <tripinfo id="f_0_2.0" depart="0.00" departLane="np2_nt2_0" departPos="44.30" departSpeed="0.00" departDelay="0.00" arrival="126.00" arrivalLane="nt15_np10_0" arrivalPos="75.00" arrivalSpeed="12.10" duration="126.00" routeLength="906.78" waitingTime="35.00" waitingCount="3" stopTime="0.00" timeLoss="59.14" rerouteNo="0" devices="tripinfo_f_0_2.0" vType="type1" speedFactor="1.14" vaporized=""/>
    <tripinfo id="f_0_0.0" depart="0.00" departLane="np13_nt13_0" departPos="49.91" departSpeed="0.00" departDelay="0.00" arrival="144.00" arrivalLane="nt4_np5_0" arrivalPos="75.00" arrivalSpeed="19.95" duration="144.00" routeLength="1297.98" waitingTime="35.00" waitingCount="4" stopTime="0.00" timeLoss="60.56" rerouteNo="0" devices="tripinfo_f_0_0.0" vType="type1" speedFactor="1.09" vaporized=""/>
    <tripinfo id="f_0_0.1" depart="14.00" departLane="np13_nt13_0" departPos="54.29" departSpeed="0.00" departDelay="0.36" arrival="146.00" arrivalLane="nt4_np5_0" arrivalPos="75.00" arrivalSpeed="20.44" duration="132.00" routeLength="1293.60" waitingTime="21.00" waitingCount="4" stopTime="0.00" timeLoss="48.80" rerouteNo="0" devices="tripinfo_f_0_0.1" vType="type1" speedFactor="1.09" vaporized=""/>
    <tripinfo id="f_0_2.1" depart="9.00" departLane="np2_nt2_0" departPos="48.61" departSpeed="0.00" departDelay="0.82" arrival="152.00" arrivalLane="nt15_np10_0" arrivalPos="75.00" arrivalSpeed="10.18" duration="143.00" routeLength="902.47" waitingTime="42.00" waitingCount="3" stopTime="0.00" timeLoss="70.02" rerouteNo="0" devices="tripinfo_f_0_2.1" vType="type1" speedFactor="1.03" vaporized=""/>
    <tripinfo id="f_0_2.2" depart="17.00" departLane="np2_nt2_0" departPos="8.82" departSpeed="0.00" departDelay="0.64" arrival="154.00" arrivalLane="nt15_np10_0" arrivalPos="75.00" arrivalSpeed="11.61" duration="137.00" routeLength="942.26" waitingTime="35.00" waitingCount="4" stopTime="0.00" timeLoss="61.87" rerouteNo="0" devices="tripinfo_f_0_2.2" vType="type1" speedFactor="1.06" vaporized=""/>
    <tripinfo id="f_0_3.0" depart="0.00" departLane="np3_nt3_0" departPos="63.21" departSpeed="0.00" departDelay="0.00" arrival="158.00" arrivalLane="nt14_np11_0" arrivalPos="75.00" arrivalSpeed="9.38" duration="158.00" routeLength="887.88" waitingTime="58.00" waitingCount="4" stopTime="0.00" timeLoss="81.66" rerouteNo="0" devices="tripinfo_f_0_3.0" vType="type1" speedFactor="0.97" vaporized=""/>
    <tripinfo id="f_0_2.3" depart="25.00" departLane="np2_nt2_0" departPos="43.73" departSpeed="0.00" departDelay="0.45" arrival="172.00" arrivalLane="nt15_np10_0" arrivalPos="75.00" arrivalSpeed="9.61" duration="147.00" routeLength="907.35" waitingTime="37.00" waitingCount="6" stopTime="0.00" timeLoss="70.25" rerouteNo="0" devices="tripinfo_f_0_2.3" vType="type1" speedFactor="0.99" vaporized=""/>
    <tripinfo id="f_0_2.4" depart="33.00" departLane="np2_nt2_0" departPos="57.79" departSpeed="0.00" departDelay="0.27" arrival="174.00" arrivalLane="nt15_np10_0" arrivalPos="75.00" arrivalSpeed="11.61" duration="141.00" routeLength="893.29" waitingTime="42.00" waitingCount="7" stopTime="0.00" timeLoss="73.75" rerouteNo="0" devices="tripinfo_f_0_2.4" vType="type1" speedFactor="1.11" vaporized=""/>
    <tripinfo id="f_0_2.5" depart="41.00" departLane="np2_nt2_0" departPos="49.35" departSpeed="0.00" departDelay="0.09" arrival="177.00" arrivalLane="nt15_np10_0" arrivalPos="75.00" arrivalSpeed="10.43" duration="136.00" routeLength="901.73" waitingTime="20.00" waitingCount="6" stopTime="0.00" timeLoss="58.93" rerouteNo="0" devices="tripinfo_f_0_2.5" vType="type1" speedFactor="0.98" vaporized=""/>
    <tripinfo id="f_0_0.2" depart="28.00" departLane="np13_nt13_0" departPos="53.15" departSpeed="0.00" departDelay="0.73" arrival="183.00" arrivalLane="nt4_np5_0" arrivalPos="75.00" arrivalSpeed="18.59" duration="155.00" routeLength="1294.74" waitingTime="35.00" waitingCount="3" stopTime="0.00" timeLoss="62.50" rerouteNo="0" devices="tripinfo_f_0_0.2" vType="type1" speedFactor="0.98" vaporized=""/>
    <tripinfo id="f_0_0.3" depart="41.00" departLane="np13_nt13_0" departPos="16.11" departSpeed="0.00" departDelay="0.09" arrival="185.00" arrivalLane="nt4_np5_0" arrivalPos="75.00" arrivalSpeed="18.29" duration="144.00" routeLength="1331.78" waitingTime="29.00" waitingCount="2" stopTime="0.00" timeLoss="55.19" rerouteNo="0" devices="tripinfo_f_0_0.3" vType="type1" speedFactor="1.04" vaporized=""/>
    <tripinfo id="f_0_3.1" depart="9.00" departLane="np3_nt3_0" departPos="43.25" departSpeed="0.00" departDelay="0.82" arrival="188.00" arrivalLane="nt14_np11_0" arrivalPos="75.00" arrivalSpeed="10.29" duration="179.00" routeLength="907.84" waitingTime="68.00" waitingCount="5" stopTime="0.00" timeLoss="98.62" rerouteNo="0" devices="tripinfo_f_0_3.1" vType="type1" speedFactor="0.95" vaporized=""/>
    <tripinfo id="f_0_3.2" depart="17.00" departLane="np3_nt3_0" departPos="11.91" departSpeed="0.00" departDelay="0.64" arrival="191.00" arrivalLane="nt14_np11_0" arrivalPos="75.00" arrivalSpeed="8.61" duration="174.00" routeLength="939.18" waitingTime="49.00" waitingCount="5" stopTime="0.00" timeLoss="84.10" rerouteNo="0" devices="tripinfo_f_0_3.2" vType="type1" speedFactor="0.88" vaporized=""/>
    <tripinfo id="f_0_1.0" depart="0.00" departLane="np16_nt1_0" departPos="18.15" departSpeed="0.00" departDelay="0.00" arrival="193.00" arrivalLane="nt16_np8_0" arrivalPos="75.00" arrivalSpeed="21.20" duration="193.00" routeLength="1329.73" waitingTime="49.00" waitingCount="9" stopTime="0.00" timeLoss="110.18" rerouteNo="0" devices="tripinfo_f_0_1.0" vType="type1" speedFactor="1.12" vaporized=""/>
    <tripinfo id="f_0_3.3" depart="25.00" departLane="np3_nt3_0" departPos="25.68" departSpeed="0.00" departDelay="0.45" arrival="193.00" arrivalLane="nt14_np11_0" arrivalPos="75.00" arrivalSpeed="10.34" duration="168.00" routeLength="925.41" waitingTime="62.00" waitingCount="6" stopTime="0.00" timeLoss="97.56" rerouteNo="0" devices="tripinfo_f_0_3.3" vType="type1" speedFactor="1.11" vaporized=""/>
    <tripinfo id="f_0_3.4" depart="33.00" departLane="np3_nt3_0" departPos="25.33" departSpeed="0.00" departDelay="0.27" arrival="195.00" arrivalLane="nt14_np11_0" arrivalPos="75.00" arrivalSpeed="11.68" duration="162.00" routeLength="925.76" waitingTime="57.00" waitingCount="4" stopTime="0.00" timeLoss="90.19" rerouteNo="0" devices="tripinfo_f_0_3.4" vType="type1" speedFactor="1.09" vaporized=""/>
    <tripinfo id="f_0_1.1" depart="14.00" departLane="np16_nt1_0" departPos="35.04" departSpeed="0.00" departDelay="0.36" arrival="202.00" arrivalLane="nt16_np8_0" arrivalPos="75.00" arrivalSpeed="16.08" duration="188.00" routeLength="1312.84" waitingTime="30.00" waitingCount="6" stopTime="0.00" timeLoss="79.21" rerouteNo="0" devices="tripinfo_f_0_1.1" vType="type1" speedFactor="0.84" vaporized=""/>
    <tripinfo id="f_0_3.5" depart="41.00" departLane="np3_nt3_0" departPos="12.04" departSpeed="0.00" departDelay="0.09" arrival="229.00" arrivalLane="nt14_np11_0" arrivalPos="75.00" arrivalSpeed="8.92" duration="188.00" routeLength="939.05" waitingTime="74.00" waitingCount="6" stopTime="0.00" timeLoss="105.07" rerouteNo="0" devices="tripinfo_f_0_3.5" vType="type1" speedFactor="0.95" vaporized=""/>
    <tripinfo id="f_0_1.2" depart="28.00" departLane="np16_nt1_0" departPos="47.54" departSpeed="0.00" departDelay="0.73" arrival="239.00" arrivalLane="nt16_np8_0" arrivalPos="75.00" arrivalSpeed="15.00" duration="211.00" routeLength="1300.34" waitingTime="47.00" waitingCount="8" stopTime="0.00" timeLoss="101.63" rerouteNo="0" devices="tripinfo_f_0_1.2" vType="type1" speedFactor="0.83" vaporized=""/>
    <tripinfo id="f_0_0.4" depart="55.00" departLane="np13_nt13_0" departPos="21.25" departSpeed="0.00" departDelay="0.46" arrival="239.00" arrivalLane="nt4_np5_0" arrivalPos="75.00" arrivalSpeed="17.16" duration="184.00" routeLength="1326.64" waitingTime="45.00" waitingCount="5" stopTime="0.00" timeLoss="87.38" rerouteNo="0" devices="tripinfo_f_0_0.4" vType="type1" speedFactor="0.95" vaporized=""/>
    <tripinfo id="f_0_2.6" depart="50.00" departLane="np2_nt2_0" departPos="52.33" departSpeed="0.00" departDelay="0.91" arrival="242.00" arrivalLane="nt15_np10_0" arrivalPos="75.00" arrivalSpeed="9.83" duration="192.00" routeLength="898.75" waitingTime="52.00" waitingCount="8" stopTime="0.00" timeLoss="117.71" rerouteNo="0" devices="tripinfo_f_0_2.6" vType="type1" speedFactor="1.02" vaporized=""/>
    <tripinfo id="f_0_2.7" depart="58.00" departLane="np2_nt2_0" departPos="30.83" departSpeed="0.00" departDelay="0.73" arrival="244.00" arrivalLane="nt15_np10_0" arrivalPos="75.00" arrivalSpeed="9.94" duration="186.00" routeLength="920.25" waitingTime="54.00" waitingCount="6" stopTime="0.00" timeLoss="108.59" rerouteNo="0" devices="tripinfo_f_0_2.7" vType="type1" speedFactor="1.00" vaporized=""/>
    <tripinfo id="f_0_0.5" depart="69.00" departLane="np13_nt13_0" departPos="37.56" departSpeed="0.00" departDelay="0.82" arrival="258.00" arrivalLane="nt4_np5_0" arrivalPos="75.00" arrivalSpeed="18.06" duration="189.00" routeLength="1310.33" waitingTime="44.00" waitingCount="6" stopTime="0.00" timeLoss="96.94" rerouteNo="0" devices="tripinfo_f_0_0.5" vType="type1" speedFactor="0.99" vaporized=""/>
    <tripinfo id="f_0_0.6" depart="82.00" departLane="np13_nt13_0" departPos="64.76" departSpeed="0.00" departDelay="0.18" arrival="260.00" arrivalLane="nt4_np5_0" arrivalPos="75.00" arrivalSpeed="18.50" duration="178.00" routeLength="1283.13" waitingTime="43.00" waitingCount="7" stopTime="0.00" timeLoss="87.71" rerouteNo="0" devices="tripinfo_f_0_0.6" vType="type1" speedFactor="1.00" vaporized=""/>
    <tripinfo id="f_0_3.6" depart="50.00" departLane="np3_nt3_0" departPos="4.72" departSpeed="0.00" departDelay="0.91" arrival="263.00" arrivalLane="nt14_np11_0" arrivalPos="75.00" arrivalSpeed="10.92" duration="213.00" routeLength="946.37" waitingTime="99.00" waitingCount="7" stopTime="0.00" timeLoss="135.40" rerouteNo="0" devices="tripinfo_f_0_3.6" vType="type1" speedFactor="1.02" vaporized=""/>
    <tripinfo id="f_0_0.7" depart="96.00" departLane="np13_nt13_0" departPos="24.37" departSpeed="0.00" departDelay="0.55" arrival="268.00" arrivalLane="nt4_np5_0" arrivalPos="75.00" arrivalSpeed="16.17" duration="172.00" routeLength="1323.52" waitingTime="33.00" waitingCount="4" stopTime="0.00" timeLoss="64.16" rerouteNo="0" devices="tripinfo_f_0_0.7" vType="type1" speedFactor="0.85" vaporized=""/>
    <tripinfo id="f_0_1.3" depart="41.00" departLane="np16_nt1_0" departPos="30.99" departSpeed="0.00" departDelay="0.09" arrival="270.00" arrivalLane="nt16_np8_0" arrivalPos="75.00" arrivalSpeed="16.05" duration="229.00" routeLength="1316.89" waitingTime="45.00" waitingCount="9" stopTime="0.00" timeLoss="116.44" rerouteNo="0" devices="tripinfo_f_0_1.3" vType="type1" speedFactor="0.82" vaporized=""/>
    <tripinfo id="f_0_3.7" depart="58.00" departLane="np3_nt3_0" departPos="13.21" departSpeed="0.00" departDelay="0.73" arrival="277.00" arrivalLane="nt14_np11_0" arrivalPos="75.00" arrivalSpeed="10.79" duration="219.00" routeLength="937.88" waitingTime="90.00" waitingCount="9" stopTime="0.00" timeLoss="141.09" rerouteNo="0" devices="tripinfo_f_0_3.7" vType="type1" speedFactor="1.01" vaporized=""/>
    <tripinfo id="f_0_2.8" depart="66.00" departLane="np2_nt2_0" departPos="37.28" departSpeed="0.00" departDelay="0.54" arrival="287.00" arrivalLane="nt15_np10_0" arrivalPos="75.00" arrivalSpeed="10.71" duration="221.00" routeLength="913.80" waitingTime="73.00" waitingCount="8" stopTime="0.00" timeLoss="147.43" rerouteNo="0" devices="tripinfo_f_0_2.8" vType="type1" speedFactor="1.04" vaporized=""/>
    <tripinfo id="f_0_3.8" depart="66.00" departLane="np3_nt3_0" departPos="0.55" departSpeed="0.00" departDelay="0.54" arrival="293.00" arrivalLane="nt14_np11_0" arrivalPos="75.00" arrivalSpeed="10.23" duration="227.00" routeLength="950.54" waitingTime="83.00" waitingCount="11" stopTime="0.00" timeLoss="140.93" rerouteNo="0" devices="tripinfo_f_0_3.8" vType="type1" speedFactor="0.93" vaporized=""/>
    <tripinfo id="f_0_2.9" depart="74.00" departLane="np2_nt2_0" departPos="26.28" departSpeed="0.00" departDelay="0.36" arrival="293.00" arrivalLane="nt15_np10_0" arrivalPos="75.00" arrivalSpeed="10.83" duration="219.00" routeLength="924.80" waitingTime="57.00" waitingCount="8" stopTime="0.00" timeLoss="140.54" rerouteNo="0" devices="tripinfo_f_0_2.9" vType="type1" speedFactor="0.99" vaporized=""/>
    <tripinfo id="f_0_3.9" depart="74.00" departLane="np3_nt3_0" departPos="7.38" departSpeed="0.00" departDelay="0.36" arrival="295.00" arrivalLane="nt14_np11_0" arrivalPos="75.00" arrivalSpeed="8.80" duration="221.00" routeLength="943.71" waitingTime="75.00" waitingCount="9" stopTime="0.00" timeLoss="142.32" rerouteNo="0" devices="tripinfo_f_0_3.9" vType="type1" speedFactor="1.01" vaporized=""/>
    <tripinfo id="f_0_1.4" depart="55.00" departLane="np16_nt1_0" departPos="45.14" departSpeed="0.00" departDelay="0.46" arrival="309.00" arrivalLane="nt16_np8_0" arrivalPos="75.00" arrivalSpeed="18.58" duration="254.00" routeLength="1302.74" waitingTime="79.00" waitingCount="10" stopTime="0.00" timeLoss="158.65" rerouteNo="0" devices="tripinfo_f_0_1.4" vType="type1" speedFactor="0.96" vaporized=""/>
    <tripinfo id="f_0_2.10" depart="82.00" departLane="np2_nt2_0" departPos="47.56" departSpeed="0.00" departDelay="0.18" arrival="313.00" arrivalLane="nt15_np10_0" arrivalPos="75.00" arrivalSpeed="10.21" duration="231.00" routeLength="903.52" waitingTime="70.00" waitingCount="12" stopTime="0.00" timeLoss="150.13" rerouteNo="0" devices="tripinfo_f_0_2.10" vType="type1" speedFactor="0.94" vaporized=""/>
    <tripinfo id="f_0_0.8" depart="110.00" departLane="np13_nt13_0" departPos="64.72" departSpeed="0.00" departDelay="0.91" arrival="314.00" arrivalLane="nt4_np5_0" arrivalPos="75.00" arrivalSpeed="17.93" duration="204.00" routeLength="1283.17" waitingTime="72.00" waitingCount="7" stopTime="0.00" timeLoss="112.66" rerouteNo="0" devices="tripinfo_f_0_0.8" vType="type1" speedFactor="0.99" vaporized=""/>
    <tripinfo id="f_0_0.9" depart="123.00" departLane="np13_nt13_0" departPos="53.05" departSpeed="0.00" departDelay="0.28" arrival="315.00" arrivalLane="nt4_np5_0" arrivalPos="75.00" arrivalSpeed="19.93" duration="192.00" routeLength="1294.84" waitingTime="64.00" waitingCount="6" stopTime="0.00" timeLoss="104.74" rerouteNo="0" devices="tripinfo_f_0_0.9" vType="type1" speedFactor="1.03" vaporized=""/>
    <tripinfo id="f_0_0.10" depart="137.00" departLane="np13_nt13_0" departPos="14.13" departSpeed="0.00" departDelay="0.64" arrival="317.00" arrivalLane="nt4_np5_0" arrivalPos="75.00" arrivalSpeed="21.81" duration="180.00" routeLength="1333.76" waitingTime="55.00" waitingCount="5" stopTime="0.00" timeLoss="98.10" rerouteNo="0" devices="tripinfo_f_0_0.10" vType="type1" speedFactor="1.14" vaporized=""/>
    <tripinfo id="f_0_3.10" depart="82.00" departLane="np3_nt3_0" departPos="7.88" departSpeed="0.00" departDelay="0.18" arrival="328.00" arrivalLane="nt14_np11_0" arrivalPos="75.00" arrivalSpeed="8.63" duration="246.00" routeLength="943.21" waitingTime="108.00" waitingCount="10" stopTime="0.00" timeLoss="164.14" rerouteNo="0" devices="tripinfo_f_0_3.10" vType="type1" speedFactor="0.97" vaporized=""/>
    <tripinfo id="f_0_1.5" depart="69.00" departLane="np16_nt1_0" departPos="23.48" departSpeed="0.00" departDelay="0.82" arrival="333.00" arrivalLane="nt16_np8_0" arrivalPos="75.00" arrivalSpeed="19.02" duration="264.00" routeLength="1324.40" waitingTime="74.00" waitingCount="11" stopTime="0.00" timeLoss="169.25" rerouteNo="0" devices="tripinfo_f_0_1.5" vType="type1" speedFactor="0.97" vaporized=""/>
    <tripinfo id="f_0_0.11" depart="150.00" departLane="np13_nt13_0" departPos="32.91" departSpeed="0.00" departDelay="0.00" arrival="338.00" arrivalLane="nt4_np5_0" arrivalPos="75.00" arrivalSpeed="19.13" duration="188.00" routeLength="1314.98" waitingTime="63.00" waitingCount="5" stopTime="0.00" timeLoss="99.18" rerouteNo="0" devices="tripinfo_f_0_0.11" vType="type1" speedFactor="1.03" vaporized=""/>
    <tripinfo id="f_0_2.11" depart="90.00" departLane="np2_nt2_0" departPos="19.17" departSpeed="0.00" departDelay="0.00" arrival="348.00" arrivalLane="nt15_np10_0" arrivalPos="75.00" arrivalSpeed="7.89" duration="258.00" routeLength="931.91" waitingTime="101.00" waitingCount="11" stopTime="0.00" timeLoss="174.66" rerouteNo="0" devices="tripinfo_f_0_2.11" vType="type1" speedFactor="0.94" vaporized=""/>
    <tripinfo id="f_0_3.11" depart="90.00" departLane="np3_nt3_0" departPos="1.69" departSpeed="0.00" departDelay="0.00" arrival="348.00" arrivalLane="nt14_np11_0" arrivalPos="75.00" arrivalSpeed="9.62" duration="258.00" routeLength="949.40" waitingTime="120.00" waitingCount="11" stopTime="0.00" timeLoss="173.22" rerouteNo="0" devices="tripinfo_f_0_3.11" vType="type1" speedFactor="0.94" vaporized=""/>
    <tripinfo id="f_0_2.12" depart="99.00" departLane="np2_nt2_0" departPos="44.78" departSpeed="0.00" departDelay="0.82" arrival="350.00" arrivalLane="nt15_np10_0" arrivalPos="75.00" arrivalSpeed="10.51" duration="251.00" routeLength="906.30" waitingTime="85.00" waitingCount="7" stopTime="0.00" timeLoss="173.41" rerouteNo="0" devices="tripinfo_f_0_2.12" vType="type1" speedFactor="0.98" vaporized=""/>
    <tripinfo id="f_0_3.12" depart="99.00" departLane="np3_nt3_0" departPos="8.29" departSpeed="0.00" departDelay="0.82" arrival="350.00" arrivalLane="nt14_np11_0" arrivalPos="75.00" arrivalSpeed="9.93" duration="251.00" routeLength="942.80" waitingTime="102.00" waitingCount="11" stopTime="0.00" timeLoss="164.19" rerouteNo="0" devices="tripinfo_f_0_3.12" vType="type1" speedFactor="0.91" vaporized=""/>
    <tripinfo id="f_0_3.13" depart="107.00" departLane="np3_nt3_0" departPos="0.64" departSpeed="0.00" departDelay="0.63" arrival="352.00" arrivalLane="nt14_np11_0" arrivalPos="75.00" arrivalSpeed="11.09" duration="245.00" routeLength="950.45" waitingTime="99.00" waitingCount="12" stopTime="0.00" timeLoss="176.63" rerouteNo="0" devices="tripinfo_f_0_3.13" vType="type1" speedFactor="1.17" vaporized=""/>
    <tripinfo id="f_0_3.14" depart="115.00" departLane="np3_nt3_0" departPos="26.76" departSpeed="0.00" departDelay="0.45" arrival="354.00" arrivalLane="nt14_np11_0" arrivalPos="75.00" arrivalSpeed="11.51" duration="239.00" routeLength="924.33" waitingTime="107.00" waitingCount="11" stopTime="0.00" timeLoss="174.46" rerouteNo="0" devices="tripinfo_f_0_3.14" vType="type1" speedFactor="1.21" vaporized=""/>
    <tripinfo id="f_0_3.15" depart="123.00" departLane="np3_nt3_0" departPos="8.90" departSpeed="0.00" departDelay="0.27" arrival="368.00" arrivalLane="nt14_np11_0" arrivalPos="75.00" arrivalSpeed="8.58" duration="245.00" routeLength="942.19" waitingTime="98.00" waitingCount="12" stopTime="0.00" timeLoss="159.66" rerouteNo="0" devices="tripinfo_f_0_3.15" vType="type1" speedFactor="0.92" vaporized=""/>
    <tripinfo id="f_0_3.16" depart="131.00" departLane="np3_nt3_0" departPos="6.17" departSpeed="0.00" departDelay="0.09" arrival="370.00" arrivalLane="nt14_np11_0" arrivalPos="75.00" arrivalSpeed="12.23" duration="239.00" routeLength="944.92" waitingTime="95.00" waitingCount="12" stopTime="0.00" timeLoss="170.41" rerouteNo="0" devices="tripinfo_f_0_3.16" vType="type1" speedFactor="1.16" vaporized=""/>
    <tripinfo id="f_0_3.17" depart="140.00" departLane="np3_nt3_0" departPos="0.67" departSpeed="0.00" departDelay="0.91" arrival="372.00" arrivalLane="nt14_np11_0" arrivalPos="75.00" arrivalSpeed="11.62" duration="232.00" routeLength="950.42" waitingTime="89.00" waitingCount="12" stopTime="0.00" timeLoss="161.80" rerouteNo="0" devices="tripinfo_f_0_3.17" vType="type1" speedFactor="1.14" vaporized=""/>
    <tripinfo id="f_0_3.18" depart="148.00" departLane="np3_nt3_0" departPos="3.08" departSpeed="0.00" departDelay="0.72" arrival="374.00" arrivalLane="nt14_np11_0" arrivalPos="75.00" arrivalSpeed="11.07" duration="226.00" routeLength="948.01" waitingTime="81.00" waitingCount="13" stopTime="0.00" timeLoss="154.92" rerouteNo="0" devices="tripinfo_f_0_3.18" vType="type1" speedFactor="1.12" vaporized=""/>
    <tripinfo id="f_0_3.19" depart="156.00" departLane="np3_nt3_0" departPos="0.26" departSpeed="0.00" departDelay="0.54" arrival="376.00" arrivalLane="nt14_np11_0" arrivalPos="75.00" arrivalSpeed="9.15" duration="220.00" routeLength="950.83" waitingTime="78.00" waitingCount="9" stopTime="0.00" timeLoss="133.99" rerouteNo="0" devices="tripinfo_f_0_3.19" vType="type1" speedFactor="0.92" vaporized=""/>
    <tripinfo id="f_0_1.6" depart="82.00" departLane="np16_nt1_0" departPos="49.77" departSpeed="0.00" departDelay="0.18" arrival="377.00" arrivalLane="nt16_np8_0" arrivalPos="75.00" arrivalSpeed="20.86" duration="295.00" routeLength="1298.11" waitingTime="117.00" waitingCount="7" stopTime="0.00" timeLoss="211.91" rerouteNo="0" devices="tripinfo_f_0_1.6" vType="type1" speedFactor="1.09" vaporized=""/>
    <tripinfo id="f_0_3.20" depart="167.00" departLane="np3_nt3_0" departPos="0.00" departSpeed="0.00" departDelay="3.36" arrival="378.00" arrivalLane="nt14_np11_0" arrivalPos="75.00" arrivalSpeed="9.69" duration="211.00" routeLength="951.09" waitingTime="69.00" waitingCount="6" stopTime="0.00" timeLoss="128.88" rerouteNo="0" devices="tripinfo_f_0_3.20" vType="type1" speedFactor="0.97" vaporized=""/>
    <tripinfo id="f_0_0.12" depart="164.00" departLane="np13_nt13_0" departPos="16.73" departSpeed="0.00" departDelay="0.37" arrival="388.00" arrivalLane="nt4_np5_0" arrivalPos="75.00" arrivalSpeed="20.05" duration="224.00" routeLength="1331.16" waitingTime="90.00" waitingCount="6" stopTime="0.00" timeLoss="131.92" rerouteNo="0" devices="tripinfo_f_0_0.12" vType="type1" speedFactor="1.00" vaporized=""/>
    <tripinfo id="f_0_0.13" depart="178.00" departLane="np13_nt13_0" departPos="19.26" departSpeed="0.00" departDelay="0.73" arrival="390.00" arrivalLane="nt4_np5_0" arrivalPos="75.00" arrivalSpeed="17.54" duration="212.00" routeLength="1328.63" waitingTime="69.00" waitingCount="5" stopTime="0.00" timeLoss="109.02" rerouteNo="0" devices="tripinfo_f_0_0.13" vType="type1" speedFactor="0.89" vaporized=""/>
    <tripinfo id="f_0_2.13" depart="107.00" departLane="np2_nt2_0" departPos="14.79" departSpeed="0.00" departDelay="0.63" arrival="397.00" arrivalLane="nt15_np10_0" arrivalPos="75.00" arrivalSpeed="11.69" duration="290.00" routeLength="936.29" waitingTime="132.00" waitingCount="8" stopTime="0.00" timeLoss="217.72" rerouteNo="0" devices="tripinfo_f_0_2.13" vType="type1" speedFactor="1.09" vaporized=""/>
    <tripinfo id="f_0_2.14" depart="115.00" departLane="np2_nt2_0" departPos="8.93" departSpeed="0.00" departDelay="0.45" arrival="400.00" arrivalLane="nt15_np10_0" arrivalPos="75.00" arrivalSpeed="9.05" duration="285.00" routeLength="942.15" waitingTime="125.00" waitingCount="8" stopTime="0.00" timeLoss="197.10" rerouteNo="0" devices="tripinfo_f_0_2.14" vType="type1" speedFactor="0.90" vaporized=""/>
    <tripinfo id="f_0_2.15" depart="123.00" departLane="np2_nt2_0" departPos="55.78" departSpeed="0.00" departDelay="0.27" arrival="402.00" arrivalLane="nt15_np10_0" arrivalPos="75.00" arrivalSpeed="11.50" duration="279.00" routeLength="895.30" waitingTime="135.00" waitingCount="8" stopTime="0.00" timeLoss="207.80" rerouteNo="0" devices="tripinfo_f_0_2.15" vType="type1" speedFactor="1.05" vaporized=""/>
    <tripinfo id="f_0_2.16" depart="131.00" departLane="np2_nt2_0" departPos="4.85" departSpeed="0.00" departDelay="0.09" arrival="406.00" arrivalLane="nt15_np10_0" arrivalPos="75.00" arrivalSpeed="11.51" duration="275.00" routeLength="946.23" waitingTime="130.00" waitingCount="10" stopTime="0.00" timeLoss="199.11" rerouteNo="0" devices="tripinfo_f_0_2.16" vType="type1" speedFactor="1.06" vaporized=""/>
    <tripinfo id="f_0_2.17" depart="140.00" departLane="np2_nt2_0" departPos="6.55" departSpeed="0.00" departDelay="0.91" arrival="410.00" arrivalLane="nt15_np10_0" arrivalPos="75.00" arrivalSpeed="9.10" duration="270.00" routeLength="944.53" waitingTime="109.00" waitingCount="10" stopTime="0.00" timeLoss="182.71" rerouteNo="0" devices="tripinfo_f_0_2.17" vType="type1" speedFactor="0.91" vaporized=""/>
    <tripinfo id="f_0_1.7" depart="96.00" departLane="np16_nt1_0" departPos="30.53" departSpeed="0.00" departDelay="0.55" arrival="418.00" arrivalLane="nt16_np8_0" arrivalPos="75.00" arrivalSpeed="19.97" duration="322.00" routeLength="1317.35" waitingTime="166.00" waitingCount="12" stopTime="0.00" timeLoss="239.47" rerouteNo="0" devices="tripinfo_f_0_1.7" vType="type1" speedFactor="1.11" vaporized=""/>
    <tripinfo id="f_0_2.18" depart="148.00" departLane="np2_nt2_0" departPos="34.32" departSpeed="0.00" departDelay="0.72" arrival="433.00" arrivalLane="nt15_np10_0" arrivalPos="75.00" arrivalSpeed="10.44" duration="285.00" routeLength="916.76" waitingTime="128.00" waitingCount="11" stopTime="0.00" timeLoss="204.68" rerouteNo="0" devices="tripinfo_f_0_2.18" vType="type1" speedFactor="0.96" vaporized=""/>
    <tripinfo id="f_0_3.21" depart="178.00" departLane="np3_nt3_0" departPos="0.58" departSpeed="0.00" departDelay="6.18" arrival="442.00" arrivalLane="nt14_np11_0" arrivalPos="75.00" arrivalSpeed="10.13" duration="264.00" routeLength="950.51" waitingTime="128.00" waitingCount="10" stopTime="0.00" timeLoss="190.46" rerouteNo="0" devices="tripinfo_f_0_3.21" vType="type1" speedFactor="1.09" vaporized=""/>
    <tripinfo id="f_0_3.22" depart="193.00" departLane="np3_nt3_0" departPos="0.00" departSpeed="0.00" departDelay="13.00" arrival="445.00" arrivalLane="nt14_np11_0" arrivalPos="75.00" arrivalSpeed="8.74" duration="252.00" routeLength="951.09" waitingTime="107.00" waitingCount="8" stopTime="0.00" timeLoss="166.48" rerouteNo="0" devices="tripinfo_f_0_3.22" vType="type1" speedFactor="0.93" vaporized=""/>
    <tripinfo id="f_0_1.8" depart="110.00" departLane="np16_nt1_0" departPos="58.60" departSpeed="0.00" departDelay="0.91" arrival="448.00" arrivalLane="nt16_np8_0" arrivalPos="75.00" arrivalSpeed="15.57" duration="338.00" routeLength="1289.28" waitingTime="146.00" waitingCount="12" stopTime="0.00" timeLoss="233.72" rerouteNo="0" devices="tripinfo_f_0_1.8" vType="type1" speedFactor="0.87" vaporized=""/>
    <tripinfo id="f_0_0.14" depart="191.00" departLane="np13_nt13_0" departPos="49.57" departSpeed="0.00" departDelay="0.10" arrival="449.00" arrivalLane="nt4_np5_0" arrivalPos="75.00" arrivalSpeed="17.55" duration="258.00" routeLength="1298.32" waitingTime="121.00" waitingCount="8" stopTime="0.00" timeLoss="162.76" rerouteNo="0" devices="tripinfo_f_0_0.14" vType="type1" speedFactor="0.96" vaporized=""/>
    <tripinfo id="f_0_1.9" depart="123.00" departLane="np16_nt1_0" departPos="33.43" departSpeed="0.00" departDelay="0.28" arrival="452.00" arrivalLane="nt16_np8_0" arrivalPos="75.00" arrivalSpeed="16.95" duration="329.00" routeLength="1314.45" waitingTime="128.00" waitingCount="12" stopTime="0.00" timeLoss="230.08" rerouteNo="0" devices="tripinfo_f_0_1.9" vType="type1" speedFactor="0.92" vaporized=""/>
    <tripinfo id="f_0_2.19" depart="156.00" departLane="np2_nt2_0" departPos="7.71" departSpeed="0.00" departDelay="0.54" arrival="452.00" arrivalLane="nt15_np10_0" arrivalPos="75.00" arrivalSpeed="9.56" duration="296.00" routeLength="943.37" waitingTime="113.00" waitingCount="11" stopTime="0.00" timeLoss="211.22" rerouteNo="0" devices="tripinfo_f_0_2.19" vType="type1" speedFactor="0.93" vaporized=""/>
    <tripinfo id="f_0_2.20" depart="164.00" departLane="np2_nt2_0" departPos="47.21" departSpeed="0.00" departDelay="0.36" arrival="456.00" arrivalLane="nt15_np10_0" arrivalPos="75.00" arrivalSpeed="8.48" duration="292.00" routeLength="903.87" waitingTime="97.00" waitingCount="10" stopTime="0.00" timeLoss="203.42" rerouteNo="0" devices="tripinfo_f_0_2.20" vType="type1" speedFactor="0.86" vaporized=""/>
    <tripinfo id="f_0_3.23" depart="209.00" departLane="np3_nt3_0" departPos="1.26" departSpeed="0.00" departDelay="20.81" arrival="457.00" arrivalLane="nt14_np11_0" arrivalPos="75.00" arrivalSpeed="10.18" duration="248.00" routeLength="949.83" waitingTime="117.00" waitingCount="10" stopTime="0.00" timeLoss="171.64" rerouteNo="0" devices="tripinfo_f_0_3.23" vType="type1" speedFactor="1.04" vaporized=""/>
    <tripinfo id="f_0_3.24" depart="224.00" departLane="np3_nt3_0" departPos="0.00" departSpeed="0.00" departDelay="27.63" arrival="460.00" arrivalLane="nt14_np11_0" arrivalPos="75.00" arrivalSpeed="8.88" duration="236.00" routeLength="951.09" waitingTime="106.00" waitingCount="9" stopTime="0.00" timeLoss="155.62" rerouteNo="0" devices="tripinfo_f_0_3.24" vType="type1" speedFactor="1.00" vaporized=""/>