<?xml version="1.0" encoding="UTF-8"?>

<!-- generated on 2023-08-23 16:24:13 by Eclipse SUMO libsumo Version 1.18.0
<configuration xmlns:xsi="http://www.w3.org/2001/XMLSchema-instance" xsi:noNamespaceSchemaLocation="http://sumo.dlr.de/xsd/libsumoConfiguration.xsd">

    <input>
        <net-file value="/home/stefan/RESCO/./environments/arterial4x4/arterial4x4.net.xml"/>
        <route-files value="/home/stefan/RESCO/./environments/arterial4x4/arterial4x4_42.rou.xml"/>
    </input>

    <output>
        <tripinfo-output value="/home/stefan/results/IDDQN-tr0-arterial4x4-0-drq_norm-wait_norm/tripinfo_42.xml"/>
        <tripinfo-output.write-unfinished value="true"/>
    </output>

    <processing>
        <time-to-teleport value="-1"/>
    </processing>

    <report>
        <no-warnings value="True"/>
        <no-step-log value="True"/>
    </report>

    <random_number>
        <random value="true"/>
    </random_number>

</configuration>
-->

<tripinfos xmlns:xsi="http://www.w3.org/2001/XMLSchema-instance" xsi:noNamespaceSchemaLocation="http://sumo.dlr.de/xsd/tripinfo_file.xsd">
    <tripinfo id="f_0_2.0" depart="0.00" departLane="np2_nt2_0" departPos="50.94" departSpeed="0.00" departDelay="0.00" arrival="107.00" arrivalLane="nt15_np10_0" arrivalPos="75.00" arrivalSpeed="10.00" duration="107.00" routeLength="900.14" waitingTime="6.00" waitingCount="3" stopTime="0.00" timeLoss="29.45" rerouteNo="0" devices="tripinfo_f_0_2.0" vType="type1" speedFactor="0.97" vaporized=""/>
    <tripinfo id="f_0_3.0" depart="0.00" departLane="np3_nt3_0" departPos="52.55" departSpeed="0.00" departDelay="0.00" arrival="131.00" arrivalLane="nt14_np11_0" arrivalPos="75.00" arrivalSpeed="10.77" duration="131.00" routeLength="898.54" waitingTime="37.00" waitingCount="4" stopTime="0.00" timeLoss="61.02" rerouteNo="0" devices="tripinfo_f_0_3.0" vType="type1" speedFactor="1.08" vaporized=""/>
    <tripinfo id="f_0_2.1" depart="9.00" departLane="np2_nt2_0" departPos="15.72" departSpeed="0.00" departDelay="0.82" arrival="133.00" arrivalLane="nt15_np10_0" arrivalPos="75.00" arrivalSpeed="8.88" duration="124.00" routeLength="935.36" waitingTime="23.00" waitingCount="4" stopTime="0.00" timeLoss="47.20" rerouteNo="0" devices="tripinfo_f_0_2.1" vType="type1" speedFactor="1.03" vaporized=""/>
    <tripinfo id="f_0_2.2" depart="17.00" departLane="np2_nt2_0" departPos="48.22" departSpeed="0.00" departDelay="0.64" arrival="147.00" arrivalLane="nt15_np10_0" arrivalPos="75.00" arrivalSpeed="10.08" duration="130.00" routeLength="902.86" waitingTime="28.00" waitingCount="3" stopTime="0.00" timeLoss="52.00" rerouteNo="0" devices="tripinfo_f_0_2.2" vType="type1" speedFactor="0.97" vaporized=""/>
    <tripinfo id="f_0_2.3" depart="25.00" departLane="np2_nt2_0" departPos="60.12" departSpeed="0.00" departDelay="0.45" arrival="152.00" arrivalLane="nt15_np10_0" arrivalPos="75.00" arrivalSpeed="11.56" duration="127.00" routeLength="890.96" waitingTime="21.00" waitingCount="4" stopTime="0.00" timeLoss="59.57" rerouteNo="0" devices="tripinfo_f_0_2.3" vType="type1" speedFactor="1.11" vaporized=""/>
    <tripinfo id="f_0_1.0" depart="0.00" departLane="np16_nt1_0" departPos="1.89" departSpeed="0.00" departDelay="0.00" arrival="163.00" arrivalLane="nt16_np8_0" arrivalPos="75.00" arrivalSpeed="18.74" duration="163.00" routeLength="1345.99" waitingTime="28.00" waitingCount="5" stopTime="0.00" timeLoss="64.71" rerouteNo="0" devices="tripinfo_f_0_1.0" vType="type1" speedFactor="0.95" vaporized=""/>
    <tripinfo id="f_0_3.1" depart="9.00" departLane="np3_nt3_0" departPos="11.27" departSpeed="0.00" departDelay="0.82" arrival="163.00" arrivalLane="nt14_np11_0" arrivalPos="75.00" arrivalSpeed="9.73" duration="154.00" routeLength="939.82" waitingTime="46.00" waitingCount="4" stopTime="0.00" timeLoss="73.52" rerouteNo="0" devices="tripinfo_f_0_3.1" vType="type1" speedFactor="0.98" vaporized=""/>
    <tripinfo id="f_0_3.2" depart="17.00" departLane="np3_nt3_0" departPos="15.69" departSpeed="0.00" departDelay="0.64" arrival="165.00" arrivalLane="nt14_np11_0" arrivalPos="75.00" arrivalSpeed="7.76" duration="148.00" routeLength="935.40" waitingTime="32.00" waitingCount="5" stopTime="0.00" timeLoss="62.16" rerouteNo="0" devices="tripinfo_f_0_3.2" vType="type1" speedFactor="0.92" vaporized=""/>
    <tripinfo id="f_0_3.3" depart="25.00" departLane="np3_nt3_0" departPos="17.34" departSpeed="0.00" departDelay="0.45" arrival="172.00" arrivalLane="nt14_np11_0" arrivalPos="75.00" arrivalSpeed="11.17" duration="147.00" routeLength="933.75" waitingTime="27.00" waitingCount="6" stopTime="0.00" timeLoss="71.33" rerouteNo="0" devices="tripinfo_f_0_3.3" vType="type1" speedFactor="1.04" vaporized=""/>
    <tripinfo id="f_0_3.4" depart="33.00" departLane="np3_nt3_0" departPos="22.87" departSpeed="0.00" departDelay="0.27" arrival="174.00" arrivalLane="nt14_np11_0" arrivalPos="75.00" arrivalSpeed="9.32" duration="141.00" routeLength="928.22" waitingTime="21.00" waitingCount="6" stopTime="0.00" timeLoss="63.66" rerouteNo="0" devices="tripinfo_f_0_3.4" vType="type1" speedFactor="1.00" vaporized=""/>
    <tripinfo id="f_0_2.4" depart="33.00" departLane="np2_nt2_0" departPos="23.29" departSpeed="0.00" departDelay="0.27" arrival="178.00" arrivalLane="nt15_np10_0" arrivalPos="75.00" arrivalSpeed="8.81" duration="145.00" routeLength="927.79" waitingTime="25.00" waitingCount="5" stopTime="0.00" timeLoss="56.80" rerouteNo="0" devices="tripinfo_f_0_2.4" vType="type1" speedFactor="0.89" vaporized=""/>
    <tripinfo id="f_0_2.5" depart="41.00" departLane="np2_nt2_0" departPos="1.32" departSpeed="0.00" departDelay="0.09" arrival="180.00" arrivalLane="nt15_np10_0" arrivalPos="75.00" arrivalSpeed="10.37" duration="139.00" routeLength="949.76" waitingTime="21.00" waitingCount="4" stopTime="0.00" timeLoss="64.75" rerouteNo="0" devices="tripinfo_f_0_2.5" vType="type1" speedFactor="1.09" vaporized=""/>
    <tripinfo id="f_0_3.5" depart="41.00" departLane="np3_nt3_0" departPos="37.62" departSpeed="0.00" departDelay="0.09" arrival="183.00" arrivalLane="nt14_np11_0" arrivalPos="75.00" arrivalSpeed="9.95" duration="142.00" routeLength="913.47" waitingTime="21.00" waitingCount="7" stopTime="0.00" timeLoss="62.57" rerouteNo="0" devices="tripinfo_f_0_3.5" vType="type1" speedFactor="0.96" vaporized=""/>
    <tripinfo id="f_0_2.6" depart="50.00" departLane="np2_nt2_0" departPos="50.76" departSpeed="0.00" departDelay="0.91" arrival="184.00" arrivalLane="nt15_np10_0" arrivalPos="75.00" arrivalSpeed="11.58" duration="134.00" routeLength="900.32" waitingTime="24.00" waitingCount="3" stopTime="0.00" timeLoss="72.23" rerouteNo="0" devices="tripinfo_f_0_2.6" vType="type1" speedFactor="1.22" vaporized=""/>
    <tripinfo id="f_0_1.1" depart="14.00" departLane="np16_nt1_0" departPos="15.43" departSpeed="0.00" departDelay="0.36" arrival="187.00" arrivalLane="nt16_np8_0" arrivalPos="75.00" arrivalSpeed="21.38" duration="173.00" routeLength="1332.45" waitingTime="43.00" waitingCount="5" stopTime="0.00" timeLoss="91.85" rerouteNo="0" devices="tripinfo_f_0_1.1" vType="type1" speedFactor="1.15" vaporized=""/>
    <tripinfo id="f_0_2.7" depart="58.00" departLane="np2_nt2_0" departPos="42.75" departSpeed="0.00" departDelay="0.73" arrival="187.00" arrivalLane="nt15_np10_0" arrivalPos="75.00" arrivalSpeed="9.92" duration="129.00" routeLength="908.33" waitingTime="15.00" waitingCount="3" stopTime="0.00" timeLoss="56.37" rerouteNo="0" devices="tripinfo_f_0_2.7" vType="type1" speedFactor="1.05" vaporized=""/>
    <tripinfo id="f_0_0.0" depart="0.00" departLane="np13_nt13_0" departPos="63.09" departSpeed="0.00" departDelay="0.00" arrival="189.00" arrivalLane="nt4_np5_0" arrivalPos="75.00" arrivalSpeed="20.48" duration="189.00" routeLength="1284.80" waitingTime="71.00" waitingCount="4" stopTime="0.00" timeLoss="103.08" rerouteNo="0" devices="tripinfo_f_0_0.0" vType="type1" speedFactor="1.05" vaporized=""/>
    <tripinfo id="f_0_1.2" depart="28.00" departLane="np16_nt1_0" departPos="57.33" departSpeed="0.00" departDelay="0.73" arrival="192.00" arrivalLane="nt16_np8_0" arrivalPos="75.00" arrivalSpeed="16.63" duration="164.00" routeLength="1290.55" waitingTime="28.00" waitingCount="3" stopTime="0.00" timeLoss="66.70" rerouteNo="0" devices="tripinfo_f_0_1.2" vType="type1" speedFactor="0.93" vaporized=""/>
    <tripinfo id="f_0_1.3" depart="41.00" departLane="np16_nt1_0" departPos="29.86" departSpeed="0.00" departDelay="0.09" arrival="208.00" arrivalLane="nt16_np8_0" arrivalPos="75.00" arrivalSpeed="20.75" duration="167.00" routeLength="1318.02" waitingTime="31.00" waitingCount="6" stopTime="0.00" timeLoss="79.72" rerouteNo="0" devices="tripinfo_f_0_1.3" vType="type1" speedFactor="1.05" vaporized=""/>
    <tripinfo id="f_0_1.4" depart="55.00" departLane="np16_nt1_0" departPos="41.70" departSpeed="0.00" departDelay="0.46" arrival="217.00" arrivalLane="nt16_np8_0" arrivalPos="75.00" arrivalSpeed="20.59" duration="162.00" routeLength="1306.18" waitingTime="32.00" waitingCount="5" stopTime="0.00" timeLoss="77.49" rerouteNo="0" devices="tripinfo_f_0_1.4" vType="type1" speedFactor="1.09" vaporized=""/>
    <tripinfo id="f_0_3.6" depart="50.00" departLane="np3_nt3_0" departPos="24.12" departSpeed="0.00" departDelay="0.91" arrival="222.00" arrivalLane="nt14_np11_0" arrivalPos="75.00" arrivalSpeed="8.46" duration="172.00" routeLength="926.97" waitingTime="67.00" waitingCount="5" stopTime="0.00" timeLoss="93.44" rerouteNo="0" devices="tripinfo_f_0_3.6" vType="type1" speedFactor="0.99" vaporized=""/>
    <tripinfo id="f_0_3.7" depart="58.00" departLane="np3_nt3_0" departPos="51.60" departSpeed="0.00" departDelay="0.73" arrival="224.00" arrivalLane="nt14_np11_0" arrivalPos="75.00" arrivalSpeed="10.28" duration="166.00" routeLength="899.49" waitingTime="60.00" waitingCount="5" stopTime="0.00" timeLoss="94.51" rerouteNo="0" devices="tripinfo_f_0_3.7" vType="type1" speedFactor="1.05" vaporized=""/>
    <tripinfo id="f_0_0.1" depart="14.00" departLane="np13_nt13_0" departPos="30.17" departSpeed="0.00" departDelay="0.36" arrival="229.00" arrivalLane="nt4_np5_0" arrivalPos="75.00" arrivalSpeed="14.93" duration="215.00" routeLength="1317.72" waitingTime="65.00" waitingCount="4" stopTime="0.00" timeLoss="97.99" rerouteNo="0" devices="tripinfo_f_0_0.1" vType="type1" speedFactor="0.78" vaporized=""/>
    <tripinfo id="f_0_0.2" depart="28.00" departLane="np13_nt13_0" departPos="5.04" departSpeed="0.00" departDelay="0.73" arrival="231.00" arrivalLane="nt4_np5_0" arrivalPos="75.00" arrivalSpeed="17.36" duration="203.00" routeLength="1342.85" waitingTime="54.00" waitingCount="6" stopTime="0.00" timeLoss="102.95" rerouteNo="0" devices="tripinfo_f_0_0.2" vType="type1" speedFactor="0.93" vaporized=""/>
    <tripinfo id="f_0_0.3" depart="41.00" departLane="np13_nt13_0" departPos="35.04" departSpeed="0.00" departDelay="0.09" arrival="232.00" arrivalLane="nt4_np5_0" arrivalPos="75.00" arrivalSpeed="20.25" duration="191.00" routeLength="1312.85" waitingTime="42.00" waitingCount="6" stopTime="0.00" timeLoss="101.25" rerouteNo="0" devices="tripinfo_f_0_0.3" vType="type1" speedFactor="1.02" vaporized=""/>
    <tripinfo id="f_0_0.4" depart="55.00" departLane="np13_nt13_0" departPos="19.16" departSpeed="0.00" departDelay="0.46" arrival="234.00" arrivalLane="nt4_np5_0" arrivalPos="75.00" arrivalSpeed="19.42" duration="179.00" routeLength="1328.73" waitingTime="25.00" waitingCount="7" stopTime="0.00" timeLoss="92.87" rerouteNo="0" devices="tripinfo_f_0_0.4" vType="type1" speedFactor="1.07" vaporized=""/>
    <tripinfo id="f_0_3.8" depart="66.00" departLane="np3_nt3_0" departPos="14.55" departSpeed="0.00" departDelay="0.54" arrival="242.00" arrivalLane="nt14_np11_0" arrivalPos="75.00" arrivalSpeed="9.75" duration="176.00" routeLength="936.54" waitingTime="59.00" waitingCount="5" stopTime="0.00" timeLoss="98.43" rerouteNo="0" devices="tripinfo_f_0_3.8" vType="type1" speedFactor="1.02" vaporized=""/>
    <tripinfo id="f_0_3.9" depart="74.00" departLane="np3_nt3_0" departPos="21.89" departSpeed="0.00" departDelay="0.36" arrival="244.00" arrivalLane="nt14_np11_0" arrivalPos="75.00" arrivalSpeed="11.82" duration="170.00" routeLength="929.20" waitingTime="49.00" waitingCount="6" stopTime="0.00" timeLoss="100.76" rerouteNo="0" devices="tripinfo_f_0_3.9" vType="type1" speedFactor="1.14" vaporized=""/>
    <tripinfo id="f_0_0.5" depart="69.00" departLane="np13_nt13_0" departPos="53.16" departSpeed="0.00" departDelay="0.82" arrival="253.00" arrivalLane="nt4_np5_0" arrivalPos="75.00" arrivalSpeed="21.19" duration="184.00" routeLength="1294.73" waitingTime="40.00" waitingCount="6" stopTime="0.00" timeLoss="104.90" rerouteNo="0" devices="tripinfo_f_0_0.5" vType="type1" speedFactor="1.14" vaporized=""/>
    <tripinfo id="f_0_3.10" depart="82.00" departLane="np3_nt3_0" departPos="3.41" departSpeed="0.00" departDelay="0.18" arrival="257.00" arrivalLane="nt14_np11_0" arrivalPos="75.00" arrivalSpeed="8.92" duration="175.00" routeLength="947.68" waitingTime="48.00" waitingCount="6" stopTime="0.00" timeLoss="92.95" rerouteNo="0" devices="tripinfo_f_0_3.10" vType="type1" speedFactor="0.97" vaporized=""/>
    <tripinfo id="f_0_3.11" depart="90.00" departLane="np3_nt3_0" departPos="46.64" departSpeed="0.00" departDelay="0.00" arrival="260.00" arrivalLane="nt14_np11_0" arrivalPos="75.00" arrivalSpeed="10.14" duration="170.00" routeLength="904.45" waitingTime="38.00" waitingCount="7" stopTime="0.00" timeLoss="97.63" rerouteNo="0" devices="tripinfo_f_0_3.11" vType="type1" speedFactor="1.05" vaporized=""/>
    <tripinfo id="f_0_3.12" depart="99.00" departLane="np3_nt3_0" departPos="38.71" departSpeed="0.00" departDelay="0.82" arrival="262.00" arrivalLane="nt14_np11_0" arrivalPos="75.00" arrivalSpeed="10.53" duration="163.00" routeLength="912.38" waitingTime="42.00" waitingCount="7" stopTime="0.00" timeLoss="85.24" rerouteNo="0" devices="tripinfo_f_0_3.12" vType="type1" speedFactor="0.99" vaporized=""/>
    <tripinfo id="f_0_3.13" depart="107.00" departLane="np3_nt3_0" departPos="29.99" departSpeed="0.00" departDelay="0.63" arrival="263.00" arrivalLane="nt14_np11_0" arrivalPos="75.00" arrivalSpeed="11.26" duration="156.00" routeLength="921.10" waitingTime="34.00" waitingCount="7" stopTime="0.00" timeLoss="85.72" rerouteNo="0" devices="tripinfo_f_0_3.13" vType="type1" speedFactor="1.10" vaporized=""/>
    <tripinfo id="f_0_2.8" depart="66.00" departLane="np2_nt2_0" departPos="9.57" departSpeed="0.00" departDelay="0.54" arrival="265.00" arrivalLane="nt15_np10_0" arrivalPos="75.00" arrivalSpeed="8.29" duration="199.00" routeLength="941.51" waitingTime="54.00" waitingCount="6" stopTime="0.00" timeLoss="95.12" rerouteNo="0" devices="tripinfo_f_0_2.8" vType="type1" speedFactor="0.76" vaporized=""/>
    <tripinfo id="f_0_2.9" depart="74.00" departLane="np2_nt2_0" departPos="42.56" departSpeed="0.00" departDelay="0.36" arrival="267.00" arrivalLane="nt15_np10_0" arrivalPos="75.00" arrivalSpeed="11.23" duration="193.00" routeLength="908.52" waitingTime="47.00" waitingCount="5" stopTime="0.00" timeLoss="121.47" rerouteNo="0" devices="tripinfo_f_0_2.9" vType="type1" speedFactor="1.07" vaporized=""/>
    <tripinfo id="f_0_1.5" depart="69.00" departLane="np16_nt1_0" departPos="6.35" departSpeed="0.00" departDelay="0.82" arrival="271.00" arrivalLane="nt16_np8_0" arrivalPos="75.00" arrivalSpeed="25.00" duration="202.00" routeLength="1341.53" waitingTime="44.00" waitingCount="4" stopTime="0.00" timeLoss="130.79" rerouteNo="0" devices="tripinfo_f_0_1.5" vType="type1" speedFactor="1.31" vaporized=""/>
    <tripinfo id="f_0_0.6" depart="82.00" departLane="np13_nt13_0" departPos="46.29" departSpeed="0.00" departDelay="0.18" arrival="274.00" arrivalLane="nt4_np5_0" arrivalPos="75.00" arrivalSpeed="16.12" duration="192.00" routeLength="1301.60" waitingTime="38.00" waitingCount="6" stopTime="0.00" timeLoss="83.27" rerouteNo="0" devices="tripinfo_f_0_0.6" vType="type1" speedFactor="0.83" vaporized=""/>
    <tripinfo id="f_0_2.10" depart="82.00" departLane="np2_nt2_0" departPos="14.38" departSpeed="0.00" departDelay="0.18" arrival="277.00" arrivalLane="nt15_np10_0" arrivalPos="75.00" arrivalSpeed="9.51" duration="195.00" routeLength="936.70" waitingTime="57.00" waitingCount="7" stopTime="0.00" timeLoss="117.07" rerouteNo="0" devices="tripinfo_f_0_2.10" vType="type1" speedFactor="1.01" vaporized=""/>
    <tripinfo id="f_0_2.11" depart="90.00" departLane="np2_nt2_0" departPos="45.20" departSpeed="0.00" departDelay="0.00" arrival="279.00" arrivalLane="nt15_np10_0" arrivalPos="75.00" arrivalSpeed="9.27" duration="189.00" routeLength="905.88" waitingTime="52.00" waitingCount="8" stopTime="0.00" timeLoss="114.56" rerouteNo="0" devices="tripinfo_f_0_2.11" vType="type1" speedFactor="1.02" vaporized=""/>
    <tripinfo id="f_0_2.12" depart="99.00" departLane="np2_nt2_0" departPos="9.29" departSpeed="0.00" departDelay="0.82" arrival="281.00" arrivalLane="nt15_np10_0" arrivalPos="75.00" arrivalSpeed="10.88" duration="182.00" routeLength="941.79" waitingTime="42.00" waitingCount="7" stopTime="0.00" timeLoss="107.98" rerouteNo="0" devices="tripinfo_f_0_2.12" vType="type1" speedFactor="1.07" vaporized=""/>
    <tripinfo id="f_0_1.6" depart="82.00" departLane="np16_nt1_0" departPos="34.17" departSpeed="0.00" departDelay="0.18" arrival="283.00" arrivalLane="nt16_np8_0" arrivalPos="75.00" arrivalSpeed="16.50" duration="201.00" routeLength="1313.71" waitingTime="48.00" waitingCount="5" stopTime="0.00" timeLoss="89.97" rerouteNo="0" devices="tripinfo_f_0_1.6" vType="type1" speedFactor="0.83" vaporized=""/>
    <tripinfo id="f_0_2.13" depart="107.00" departLane="np2_nt2_0" departPos="29.19" departSpeed="0.00" departDelay="0.63" arrival="287.00" arrivalLane="nt15_np10_0" arrivalPos="75.00" arrivalSpeed="8.55" duration="180.00" routeLength="921.89" waitingTime="40.00" waitingCount="7" stopTime="0.00" timeLoss="96.36" rerouteNo="0" devices="tripinfo_f_0_2.13" vType="type1" speedFactor="0.92" vaporized=""/>
    <tripinfo id="f_0_2.14" depart="115.00" departLane="np2_nt2_0" departPos="49.21" departSpeed="0.00" departDelay="0.45" arrival="289.00" arrivalLane="nt15_np10_0" arrivalPos="75.00" arrivalSpeed="9.24" duration="174.00" routeLength="901.87" waitingTime="34.00" waitingCount="6" stopTime="0.00" timeLoss="95.17" rerouteNo="0" devices="tripinfo_f_0_2.14" vType="type1" speedFactor="0.96" vaporized=""/>
    <tripinfo id="f_0_2.15" depart="123.00" departLane="np2_nt2_0" departPos="24.08" departSpeed="0.00" departDelay="0.27" arrival="297.00" arrivalLane="nt15_np10_0" arrivalPos="75.00" arrivalSpeed="9.54" duration="174.00" routeLength="927.00" waitingTime="38.00" waitingCount="4" stopTime="0.00" timeLoss="89.75" rerouteNo="0" devices="tripinfo_f_0_2.15" vType="type1" speedFactor="0.93" vaporized=""/>
    <tripinfo id="f_0_1.7" depart="96.00" departLane="np16_nt1_0" departPos="25.35" departSpeed="0.00" departDelay="0.55" arrival="298.00" arrivalLane="nt16_np8_0" arrivalPos="75.00" arrivalSpeed="21.75" duration="202.00" routeLength="1322.53" waitingTime="45.00" waitingCount="7" stopTime="0.00" timeLoss="117.65" rerouteNo="0" devices="tripinfo_f_0_1.7" vType="type1" speedFactor="1.10" vaporized=""/>
    <tripinfo id="f_0_1.8" depart="110.00" departLane="np16_nt1_0" departPos="55.09" departSpeed="0.00" departDelay="0.91" arrival="300.00" arrivalLane="nt16_np8_0" arrivalPos="75.00" arrivalSpeed="20.34" duration="190.00" routeLength="1292.79" waitingTime="31.00" waitingCount="4" stopTime="0.00" timeLoss="106.38" rerouteNo="0" devices="tripinfo_f_0_1.8" vType="type1" speedFactor="1.09" vaporized=""/>
    <tripinfo id="f_0_1.9" depart="123.00" departLane="np16_nt1_0" departPos="11.63" departSpeed="0.00" departDelay="0.28" arrival="301.00" arrivalLane="nt16_np8_0" arrivalPos="75.00" arrivalSpeed="18.87" duration="178.00" routeLength="1336.25" waitingTime="26.00" waitingCount="3" stopTime="0.00" timeLoss="84.61" rerouteNo="0" devices="tripinfo_f_0_1.9" vType="type1" speedFactor="0.99" vaporized=""/>
    <tripinfo id="f_0_2.16" depart="131.00" departLane="np2_nt2_0" departPos="32.32" departSpeed="0.00" departDelay="0.09" arrival="301.00" arrivalLane="nt15_np10_0" arrivalPos="75.00" arrivalSpeed="7.94" duration="170.00" routeLength="918.76" waitingTime="22.00" waitingCount="6" stopTime="0.00" timeLoss="70.77" rerouteNo="0" devices="tripinfo_f_0_2.16" vType="type1" speedFactor="0.78" vaporized=""/>
    <tripinfo id="f_0_2.17" depart="140.00" departLane="np2_nt2_0" departPos="17.01" departSpeed="0.00" departDelay="0.91" arrival="302.00" arrivalLane="nt15_np10_0" arrivalPos="75.00" arrivalSpeed="10.37" duration="162.00" routeLength="934.07" waitingTime="23.00" waitingCount="6" stopTime="0.00" timeLoss="91.14" rerouteNo="0" devices="tripinfo_f_0_2.17" vType="type1" speedFactor="1.10" vaporized=""/>
    <tripinfo id="f_0_0.7" depart="96.00" departLane="np13_nt13_0" departPos="17.97" departSpeed="0.00" departDelay="0.55" arrival="303.00" arrivalLane="nt4_np5_0" arrivalPos="75.00" arrivalSpeed="16.83" duration="207.00" routeLength="1329.92" waitingTime="69.00" waitingCount="4" stopTime="0.00" timeLoss="103.10" rerouteNo="0" devices="tripinfo_f_0_0.7" vType="type1" speedFactor="0.88" vaporized=""/>
    <tripinfo id="f_0_2.18" depart="148.00" departLane="np2_nt2_0" departPos="41.00" departSpeed="0.00" departDelay="0.72" arrival="304.00" arrivalLane="nt15_np10_0" arrivalPos="75.00" arrivalSpeed="9.56" duration="156.00" routeLength="910.08" waitingTime="18.00" waitingCount="4" stopTime="0.00" timeLoss="80.49" rerouteNo="0" devices="tripinfo_f_0_2.18" vType="type1" speedFactor="1.01" vaporized=""/>
    <tripinfo id="f_0_2.19" depart="156.00" departLane="np2_nt2_0" departPos="17.04" departSpeed="0.00" departDelay="0.54" arrival="309.00" arrivalLane="nt15_np10_0" arrivalPos="75.00" arrivalSpeed="11.91" duration="153.00" routeLength="934.04" waitingTime="33.00" waitingCount="7" stopTime="0.00" timeLoss="83.98" rerouteNo="0" devices="tripinfo_f_0_2.19" vType="type1" speedFactor="1.13" vaporized=""/>
    <tripinfo id="f_0_1.10" depart="137.00" departLane="np16_nt1_0" departPos="63.04" departSpeed="0.00" departDelay="0.64" arrival="312.00" arrivalLane="nt16_np8_0" arrivalPos="75.00" arrivalSpeed="20.58" duration="175.00" routeLength="1284.84" waitingTime="34.00" waitingCount="6" stopTime="0.00" timeLoss="88.52" rerouteNo="0" devices="tripinfo_f_0_1.10" vType="type1" speedFactor="1.04" vaporized=""/>
    <tripinfo id="f_0_2.20" depart="164.00" departLane="np2_nt2_0" departPos="36.78" departSpeed="0.00" departDelay="0.36" arrival="313.00" arrivalLane="nt15_np10_0" arrivalPos="75.00" arrivalSpeed="9.33" duration="149.00" routeLength="914.30" waitingTime="25.00" waitingCount="7" stopTime="0.00" timeLoss="76.19" rerouteNo="0" devices="tripinfo_f_0_2.20" vType="type1" speedFactor="1.05" vaporized=""/>
    <tripinfo id="f_0_3.14" depart="115.00" departLane="np3_nt3_0" departPos="41.99" departSpeed="0.00" departDelay="0.45" arrival="316.00" arrivalLane="nt14_np11_0" arrivalPos="75.00" arrivalSpeed="11.90" duration="201.00" routeLength="909.10" waitingTime="73.00" waitingCount="8" stopTime="0.00" timeLoss="131.43" rerouteNo="0" devices="tripinfo_f_0_3.14" vType="type1" speedFactor="1.09" vaporized=""/>
    <tripinfo id="f_0_3.15" depart="123.00" departLane="np3_nt3_0" departPos="24.58" departSpeed="0.00" departDelay="0.27" arrival="321.00" arrivalLane="nt14_np11_0" arrivalPos="75.00" arrivalSpeed="7.15" duration="198.00" routeLength="926.51" waitingTime="77.00" waitingCount="6" stopTime="0.00" timeLoss="106.64" rerouteNo="0" devices="tripinfo_f_0_3.15" vType="type1" speedFactor="0.85" vaporized=""/>
    <tripinfo id="f_0_3.16" depart="131.00" departLane="np3_nt3_0" departPos="1.89" departSpeed="0.00" departDelay="0.09" arrival="324.00" arrivalLane="nt14_np11_0" arrivalPos="75.00" arrivalSpeed="7.25" duration="193.00" routeLength="949.20" waitingTime="62.00" waitingCount="6" stopTime="0.00" timeLoss="98.18" rerouteNo="0" devices="tripinfo_f_0_3.16" vType="type1" speedFactor="0.84" vaporized=""/>
    <tripinfo id="f_0_3.17" depart="140.00" departLane="np3_nt3_0" departPos="42.13" departSpeed="0.00" departDelay="0.91" arrival="326.00" arrivalLane="nt14_np11_0" arrivalPos="75.00" arrivalSpeed="9.50" duration="186.00" routeLength="908.96" waitingTime="55.00" waitingCount="6" stopTime="0.00" timeLoss="99.12" rerouteNo="0" devices="tripinfo_f_0_3.17" vType="type1" speedFactor="0.88" vaporized=""/>
    <tripinfo id="f_0_1.11" depart="150.00" departLane="np16_nt1_0" departPos="57.34" departSpeed="0.00" departDelay="0.00" arrival="327.00" arrivalLane="nt16_np8_0" arrivalPos="75.00" arrivalSpeed="17.73" duration="177.00" routeLength="1290.54" waitingTime="28.00" waitingCount="7" stopTime="0.00" timeLoss="86.06" rerouteNo="0" devices="tripinfo_f_0_1.11" vType="type1" speedFactor="1.00" vaporized=""/>
    <tripinfo id="f_0_0.8" depart="110.00" departLane="np13_nt13_0" departPos="12.16" departSpeed="0.00" departDelay="0.91" arrival="349.00" arrivalLane="nt4_np5_0" arrivalPos="75.00" arrivalSpeed="17.17" duration="239.00" routeLength="1335.73" waitingTime="106.00" waitingCount="6" stopTime="0.00" timeLoss="141.01" rerouteNo="0" devices="tripinfo_f_0_0.8" vType="type1" speedFactor="0.95" vaporized=""/>
    <tripinfo id="f_0_0.9" depart="123.00" departLane="np13_nt13_0" departPos="54.15" departSpeed="0.00" departDelay="0.28" arrival="351.00" arrivalLane="nt4_np5_0" arrivalPos="75.00" arrivalSpeed="17.07" duration="228.00" routeLength="1293.74" waitingTime="89.00" waitingCount="7" stopTime="0.00" timeLoss="128.21" rerouteNo="0" devices="tripinfo_f_0_0.9" vType="type1" speedFactor="0.91" vaporized=""/>
    <tripinfo id="f_0_0.10" depart="137.00" departLane="np13_nt13_0" departPos="15.84" departSpeed="0.00" departDelay="0.64" arrival="352.00" arrivalLane="nt4_np5_0" arrivalPos="75.00" arrivalSpeed="19.48" duration="215.00" routeLength="1332.05" waitingTime="65.00" waitingCount="7" stopTime="0.00" timeLoss="129.56" rerouteNo="0" devices="tripinfo_f_0_0.10" vType="type1" speedFactor="1.08" vaporized=""/>
    <tripinfo id="f_0_0.11" depart="150.00" departLane="np13_nt13_0" departPos="33.22" departSpeed="0.00" departDelay="0.00" arrival="354.00" arrivalLane="nt4_np5_0" arrivalPos="75.00" arrivalSpeed="15.54" duration="204.00" routeLength="1314.67" waitingTime="52.00" waitingCount="7" stopTime="0.00" timeLoss="97.50" rerouteNo="0" devices="tripinfo_f_0_0.11" vType="type1" speedFactor="0.86" vaporized=""/>
    <tripinfo id="f_0_2.21" depart="172.00" departLane="np2_nt2_0" departPos="28.28" departSpeed="0.00" departDelay="0.18" arrival="354.00" arrivalLane="nt15_np10_0" arrivalPos="75.00" arrivalSpeed="10.51" duration="182.00" routeLength="922.80" waitingTime="43.00" waitingCount="9" stopTime="0.00" timeLoss="107.97" rerouteNo="0" devices="tripinfo_f_0_2.21" vType="type1" speedFactor="1.04" vaporized=""/>
    <tripinfo id="f_0_2.22" depart="180.00" departLane="np2_nt2_0" departPos="16.81" departSpeed="0.00" departDelay="0.00" arrival="356.00" arrivalLane="nt15_np10_0" arrivalPos="75.00" arrivalSpeed="11.57" duration="176.00" routeLength="934.27" waitingTime="35.00" waitingCount="7" stopTime="0.00" timeLoss="101.42" rerouteNo="0" devices="tripinfo_f_0_2.22" vType="type1" speedFactor="1.06" vaporized=""/>
    <tripinfo id="f_0_1.12" depart="164.00" departLane="np16_nt1_0" departPos="18.67" departSpeed="0.00" departDelay="0.37" arrival="358.00" arrivalLane="nt16_np8_0" arrivalPos="75.00" arrivalSpeed="19.18" duration="194.00" routeLength="1329.21" waitingTime="44.00" waitingCount="7" stopTime="0.00" timeLoss="108.13" rerouteNo="0" devices="tripinfo_f_0_1.12" vType="type1" speedFactor="1.07" vaporized=""/>
    <tripinfo id="f_0_2.23" depart="189.00" departLane="np2_nt2_0" departPos="4.90" departSpeed="0.00" departDelay="0.81" arrival="364.00" arrivalLane="nt15_np10_0" arrivalPos="75.00" arrivalSpeed="8.51" duration="175.00" routeLength="946.18" waitingTime="27.00" waitingCount="5" stopTime="0.00" timeLoss="94.64" rerouteNo="0" devices="tripinfo_f_0_2.23" vType="type1" speedFactor="0.99" vaporized=""/>
    <tripinfo id="f_0_2.24" depart="197.00" departLane="np2_nt2_0" departPos="41.73" departSpeed="0.00" departDelay="0.63" arrival="366.00" arrivalLane="nt15_np10_0" arrivalPos="75.00" arrivalSpeed="11.24" duration="169.00" routeLength="909.35" waitingTime="38.00" waitingCount="6" stopTime="0.00" timeLoss="96.32" rerouteNo="0" devices="tripinfo_f_0_2.24" vType="type1" speedFactor="1.06" vaporized=""/>
    <tripinfo id="f_0_0.12" depart="164.00" departLane="np13_nt13_0" departPos="41.07" departSpeed="0.00" departDelay="0.37" arrival="368.00" arrivalLane="nt4_np5_0" arrivalPos="75.00" arrivalSpeed="18.86" duration="204.00" routeLength="1306.82" waitingTime="60.00" waitingCount="9" stopTime="0.00" timeLoss="113.14" rerouteNo="0" devices="tripinfo_f_0_0.12" vType="type1" speedFactor="1.01" vaporized=""/>
    <tripinfo id="f_0_0.13" depart="178.00" departLane="np13_nt13_0" departPos="4.80" departSpeed="0.00" departDelay="0.73" arrival="370.00" arrivalLane="nt4_np5_0" arrivalPos="75.00" arrivalSpeed="18.98" duration="192.00" routeLength="1343.09" waitingTime="49.00" waitingCount="7" stopTime="0.00" timeLoss="101.62" rerouteNo="0" devices="tripinfo_f_0_0.13" vType="type1" speedFactor="1.03" vaporized=""/>
    <tripinfo id="f_0_1.13" depart="178.00" departLane="np16_nt1_0" departPos="31.24" departSpeed="0.00" departDelay="0.73" arrival="370.00" arrivalLane="nt16_np8_0" arrivalPos="75.00" arrivalSpeed="16.76" duration="192.00" routeLength="1316.64" waitingTime="31.00" waitingCount="6" stopTime="0.00" timeLoss="92.81" rerouteNo="0" devices="tripinfo_f_0_1.13" vType="type1" speedFactor="0.93" vaporized=""/>