<?xml version="1.0" encoding="UTF-8"?>

<!-- generated on 2023-08-23 16:07:30 by Eclipse SUMO libsumo Version 1.18.0
<configuration xmlns:xsi="http://www.w3.org/2001/XMLSchema-instance" xsi:noNamespaceSchemaLocation="http://sumo.dlr.de/xsd/libsumoConfiguration.xsd">

    <input>
        <net-file value="/home/stefan/RESCO/./environments/arterial4x4/arterial4x4.net.xml"/>
        <route-files value="/home/stefan/RESCO/./environments/arterial4x4/arterial4x4_22.rou.xml"/>
    </input>

    <output>
        <tripinfo-output value="/home/stefan/results/IDDQN-tr0-arterial4x4-0-drq_norm-wait_norm/tripinfo_22.xml"/>
        <tripinfo-output.write-unfinished value="true"/>
    </output>

    <processing>
        <time-to-teleport value="-1"/>
    </processing>

    <report>
        <no-warnings value="True"/>
        <no-step-log value="True"/>
    </report>

    <random_number>
        <random value="true"/>
    </random_number>

</configuration>
-->

<tripinfos xmlns:xsi="http://www.w3.org/2001/XMLSchema-instance" xsi:noNamespaceSchemaLocation="http://sumo.dlr.de/xsd/tripinfo_file.xsd">
    <tripinfo id="f_0_0.0" depart="0.00" departLane="np13_nt13_0" departPos="28.82" departSpeed="0.00" departDelay="0.00" arrival="139.00" arrivalLane="nt4_np5_0" arrivalPos="75.00" arrivalSpeed="19.26" duration="139.00" routeLength="1319.07" waitingTime="15.00" waitingCount="5" stopTime="0.00" timeLoss="44.76" rerouteNo="0" devices="tripinfo_f_0_0.0" vType="type1" speedFactor="0.98" vaporized=""/>
    <tripinfo id="f_0_2.0" depart="0.00" departLane="np2_nt2_0" departPos="24.16" departSpeed="0.00" departDelay="0.00" arrival="145.00" arrivalLane="nt15_np10_0" arrivalPos="75.00" arrivalSpeed="9.45" duration="145.00" routeLength="926.92" waitingTime="38.00" waitingCount="4" stopTime="0.00" timeLoss="61.01" rerouteNo="0" devices="tripinfo_f_0_2.0" vType="type1" speedFactor="0.93" vaporized=""/>
    <tripinfo id="f_0_2.1" depart="9.00" departLane="np2_nt2_0" departPos="8.61" departSpeed="0.00" departDelay="0.82" arrival="153.00" arrivalLane="nt15_np10_0" arrivalPos="75.00" arrivalSpeed="8.53" duration="144.00" routeLength="942.47" waitingTime="33.00" waitingCount="5" stopTime="0.00" timeLoss="60.22" rerouteNo="0" devices="tripinfo_f_0_2.1" vType="type1" speedFactor="0.95" vaporized=""/>
    <tripinfo id="f_0_3.0" depart="0.00" departLane="np3_nt3_0" departPos="57.44" departSpeed="0.00" departDelay="0.00" arrival="159.00" arrivalLane="nt14_np11_0" arrivalPos="75.00" arrivalSpeed="8.91" duration="159.00" routeLength="893.65" waitingTime="51.00" waitingCount="4" stopTime="0.00" timeLoss="77.51" rerouteNo="0" devices="tripinfo_f_0_3.0" vType="type1" speedFactor="0.92" vaporized=""/>
    <tripinfo id="f_0_3.1" depart="9.00" departLane="np3_nt3_0" departPos="45.29" departSpeed="0.00" departDelay="0.82" arrival="160.00" arrivalLane="nt14_np11_0" arrivalPos="75.00" arrivalSpeed="12.01" duration="151.00" routeLength="905.80" waitingTime="53.00" waitingCount="5" stopTime="0.00" timeLoss="87.87" rerouteNo="0" devices="tripinfo_f_0_3.1" vType="type1" speedFactor="1.20" vaporized=""/>
    <tripinfo id="f_0_3.2" depart="17.00" departLane="np3_nt3_0" departPos="30.18" departSpeed="0.00" departDelay="0.64" arrival="166.00" arrivalLane="nt14_np11_0" arrivalPos="75.00" arrivalSpeed="10.80" duration="149.00" routeLength="920.91" waitingTime="48.00" waitingCount="6" stopTime="0.00" timeLoss="81.94" rerouteNo="0" devices="tripinfo_f_0_3.2" vType="type1" speedFactor="1.16" vaporized=""/>
    <tripinfo id="f_0_1.0" depart="0.00" departLane="np16_nt1_0" departPos="59.23" departSpeed="0.00" departDelay="0.00" arrival="168.00" arrivalLane="nt16_np8_0" arrivalPos="75.00" arrivalSpeed="19.25" duration="168.00" routeLength="1288.65" waitingTime="38.00" waitingCount="6" stopTime="0.00" timeLoss="75.36" rerouteNo="0" devices="tripinfo_f_0_1.0" vType="type1" speedFactor="0.97" vaporized=""/>
    <tripinfo id="f_0_3.3" depart="25.00" departLane="np3_nt3_0" departPos="52.03" departSpeed="0.00" departDelay="0.45" arrival="169.00" arrivalLane="nt14_np11_0" arrivalPos="75.00" arrivalSpeed="10.45" duration="144.00" routeLength="899.06" waitingTime="28.00" waitingCount="6" stopTime="0.00" timeLoss="67.83" rerouteNo="0" devices="tripinfo_f_0_3.3" vType="type1" speedFactor="0.99" vaporized=""/>
    <tripinfo id="f_0_0.1" depart="14.00" departLane="np13_nt13_0" departPos="7.68" departSpeed="0.00" departDelay="0.36" arrival="177.00" arrivalLane="nt4_np5_0" arrivalPos="75.00" arrivalSpeed="17.49" duration="163.00" routeLength="1340.21" waitingTime="41.00" waitingCount="2" stopTime="0.00" timeLoss="62.12" rerouteNo="0" devices="tripinfo_f_0_0.1" vType="type1" speedFactor="0.92" vaporized=""/>
    <tripinfo id="f_0_0.2" depart="28.00" departLane="np13_nt13_0" departPos="12.78" departSpeed="0.00" departDelay="0.73" arrival="178.00" arrivalLane="nt4_np5_0" arrivalPos="75.00" arrivalSpeed="21.12" duration="150.00" routeLength="1335.11" waitingTime="42.00" waitingCount="3" stopTime="0.00" timeLoss="64.59" rerouteNo="0" devices="tripinfo_f_0_0.2" vType="type1" speedFactor="1.08" vaporized=""/>
    <tripinfo id="f_0_0.3" depart="41.00" departLane="np13_nt13_0" departPos="4.96" departSpeed="0.00" departDelay="0.09" arrival="183.00" arrivalLane="nt4_np5_0" arrivalPos="75.00" arrivalSpeed="18.20" duration="142.00" routeLength="1342.93" waitingTime="12.00" waitingCount="3" stopTime="0.00" timeLoss="40.75" rerouteNo="0" devices="tripinfo_f_0_0.3" vType="type1" speedFactor="0.92" vaporized=""/>
    <tripinfo id="f_0_2.2" depart="17.00" departLane="np2_nt2_0" departPos="5.16" departSpeed="0.00" departDelay="0.64" arrival="203.00" arrivalLane="nt15_np10_0" arrivalPos="75.00" arrivalSpeed="9.28" duration="186.00" routeLength="945.92" waitingTime="65.00" waitingCount="6" stopTime="0.00" timeLoss="102.20" rerouteNo="0" devices="tripinfo_f_0_2.2" vType="type1" speedFactor="0.95" vaporized=""/>
    <tripinfo id="f_0_3.4" depart="33.00" departLane="np3_nt3_0" departPos="30.62" departSpeed="0.00" departDelay="0.27" arrival="207.00" arrivalLane="nt14_np11_0" arrivalPos="75.00" arrivalSpeed="8.86" duration="174.00" routeLength="920.47" waitingTime="61.00" waitingCount="6" stopTime="0.00" timeLoss="95.51" rerouteNo="0" devices="tripinfo_f_0_3.4" vType="type1" speedFactor="0.98" vaporized=""/>
    <tripinfo id="f_0_0.4" depart="55.00" departLane="np13_nt13_0" departPos="51.89" departSpeed="0.00" departDelay="0.46" arrival="213.00" arrivalLane="nt4_np5_0" arrivalPos="75.00" arrivalSpeed="22.00" duration="158.00" routeLength="1296.00" waitingTime="38.00" waitingCount="6" stopTime="0.00" timeLoss="78.89" rerouteNo="0" devices="tripinfo_f_0_0.4" vType="type1" speedFactor="1.15" vaporized=""/>
    <tripinfo id="f_0_2.3" depart="25.00" departLane="np2_nt2_0" departPos="23.85" departSpeed="0.00" departDelay="0.45" arrival="221.00" arrivalLane="nt15_np10_0" arrivalPos="75.00" arrivalSpeed="11.14" duration="196.00" routeLength="927.23" waitingTime="77.00" waitingCount="6" stopTime="0.00" timeLoss="127.22" rerouteNo="0" devices="tripinfo_f_0_2.3" vType="type1" speedFactor="1.14" vaporized=""/>
    <tripinfo id="f_0_3.5" depart="41.00" departLane="np3_nt3_0" departPos="19.08" departSpeed="0.00" departDelay="0.09" arrival="223.00" arrivalLane="nt14_np11_0" arrivalPos="75.00" arrivalSpeed="9.82" duration="182.00" routeLength="932.01" waitingTime="70.00" waitingCount="5" stopTime="0.00" timeLoss="100.76" rerouteNo="0" devices="tripinfo_f_0_3.5" vType="type1" speedFactor="0.97" vaporized=""/>
    <tripinfo id="f_0_2.4" depart="33.00" departLane="np2_nt2_0" departPos="43.60" departSpeed="0.00" departDelay="0.27" arrival="226.00" arrivalLane="nt15_np10_0" arrivalPos="75.00" arrivalSpeed="7.93" duration="193.00" routeLength="907.48" waitingTime="59.00" waitingCount="6" stopTime="0.00" timeLoss="100.38" rerouteNo="0" devices="tripinfo_f_0_2.4" vType="type1" speedFactor="0.82" vaporized=""/>
    <tripinfo id="f_0_1.1" depart="14.00" departLane="np16_nt1_0" departPos="59.47" departSpeed="0.00" departDelay="0.36" arrival="243.00" arrivalLane="nt16_np8_0" arrivalPos="75.00" arrivalSpeed="21.16" duration="229.00" routeLength="1288.41" waitingTime="84.00" waitingCount="11" stopTime="0.00" timeLoss="146.77" rerouteNo="0" devices="tripinfo_f_0_1.1" vType="type1" speedFactor="1.10" vaporized=""/>
    <tripinfo id="f_0_3.6" depart="50.00" departLane="np3_nt3_0" departPos="52.54" departSpeed="0.00" departDelay="0.91" arrival="247.00" arrivalLane="nt14_np11_0" arrivalPos="75.00" arrivalSpeed="10.36" duration="197.00" routeLength="898.55" waitingTime="88.00" waitingCount="6" stopTime="0.00" timeLoss="126.09" rerouteNo="0" devices="tripinfo_f_0_3.6" vType="type1" speedFactor="1.06" vaporized=""/>
    <tripinfo id="f_0_0.5" depart="69.00" departLane="np13_nt13_0" departPos="51.93" departSpeed="0.00" departDelay="0.82" arrival="259.00" arrivalLane="nt4_np5_0" arrivalPos="75.00" arrivalSpeed="14.29" duration="190.00" routeLength="1295.96" waitingTime="46.00" waitingCount="2" stopTime="0.00" timeLoss="76.22" rerouteNo="0" devices="tripinfo_f_0_0.5" vType="type1" speedFactor="0.80" vaporized=""/>
    <tripinfo id="f_0_0.6" depart="82.00" departLane="np13_nt13_0" departPos="14.25" departSpeed="0.00" departDelay="0.18" arrival="268.00" arrivalLane="nt4_np5_0" arrivalPos="75.00" arrivalSpeed="21.25" duration="186.00" routeLength="1333.64" waitingTime="64.00" waitingCount="5" stopTime="0.00" timeLoss="101.65" rerouteNo="0" devices="tripinfo_f_0_0.6" vType="type1" speedFactor="1.10" vaporized=""/>
    <tripinfo id="f_0_0.7" depart="96.00" departLane="np13_nt13_0" departPos="50.88" departSpeed="0.00" departDelay="0.55" arrival="270.00" arrivalLane="nt4_np5_0" arrivalPos="75.00" arrivalSpeed="19.36" duration="174.00" routeLength="1297.01" waitingTime="42.00" waitingCount="5" stopTime="0.00" timeLoss="82.62" rerouteNo="0" devices="tripinfo_f_0_0.7" vType="type1" speedFactor="0.99" vaporized=""/>
    <tripinfo id="f_0_1.2" depart="28.00" departLane="np16_nt1_0" departPos="60.44" departSpeed="0.00" departDelay="0.73" arrival="273.00" arrivalLane="nt16_np8_0" arrivalPos="75.00" arrivalSpeed="18.18" duration="245.00" routeLength="1287.44" waitingTime="91.00" waitingCount="9" stopTime="0.00" timeLoss="149.80" rerouteNo="0" devices="tripinfo_f_0_1.2" vType="type1" speedFactor="0.95" vaporized=""/>
    <tripinfo id="f_0_2.5" depart="41.00" departLane="np2_nt2_0" departPos="45.57" departSpeed="0.00" departDelay="0.09" arrival="278.00" arrivalLane="nt15_np10_0" arrivalPos="75.00" arrivalSpeed="9.51" duration="237.00" routeLength="905.51" waitingTime="102.00" waitingCount="9" stopTime="0.00" timeLoss="153.51" rerouteNo="0" devices="tripinfo_f_0_2.5" vType="type1" speedFactor="0.91" vaporized=""/>
    <tripinfo id="f_0_2.6" depart="50.00" departLane="np2_nt2_0" departPos="24.19" departSpeed="0.00" departDelay="0.91" arrival="280.00" arrivalLane="nt15_np10_0" arrivalPos="75.00" arrivalSpeed="11.47" duration="230.00" routeLength="926.89" waitingTime="99.00" waitingCount="10" stopTime="0.00" timeLoss="155.61" rerouteNo="0" devices="tripinfo_f_0_2.6" vType="type1" speedFactor="1.05" vaporized=""/>
    <tripinfo id="f_0_2.7" depart="58.00" departLane="np2_nt2_0" departPos="44.05" departSpeed="0.00" departDelay="0.73" arrival="288.00" arrivalLane="nt15_np10_0" arrivalPos="75.00" arrivalSpeed="8.32" duration="230.00" routeLength="907.03" waitingTime="87.00" waitingCount="9" stopTime="0.00" timeLoss="148.16" rerouteNo="0" devices="tripinfo_f_0_2.7" vType="type1" speedFactor="0.93" vaporized=""/>
    <tripinfo id="f_0_3.7" depart="58.00" departLane="np3_nt3_0" departPos="41.86" departSpeed="0.00" departDelay="0.73" arrival="288.00" arrivalLane="nt14_np11_0" arrivalPos="75.00" arrivalSpeed="7.28" duration="230.00" routeLength="909.23" waitingTime="111.00" waitingCount="7" stopTime="0.00" timeLoss="144.03" rerouteNo="0" devices="tripinfo_f_0_3.7" vType="type1" speedFactor="0.89" vaporized=""/>
    <tripinfo id="f_0_0.8" depart="110.00" departLane="np13_nt13_0" departPos="22.15" departSpeed="0.00" departDelay="0.91" arrival="289.00" arrivalLane="nt4_np5_0" arrivalPos="75.00" arrivalSpeed="17.37" duration="179.00" routeLength="1325.74" waitingTime="31.00" waitingCount="7" stopTime="0.00" timeLoss="76.14" rerouteNo="0" devices="tripinfo_f_0_0.8" vType="type1" speedFactor="0.90" vaporized=""/>
    <tripinfo id="f_0_2.8" depart="66.00" departLane="np2_nt2_0" departPos="26.18" departSpeed="0.00" departDelay="0.54" arrival="290.00" arrivalLane="nt15_np10_0" arrivalPos="75.00" arrivalSpeed="10.43" duration="224.00" routeLength="924.90" waitingTime="90.00" waitingCount="10" stopTime="0.00" timeLoss="149.89" rerouteNo="0" devices="tripinfo_f_0_2.8" vType="type1" speedFactor="1.04" vaporized=""/>
    <tripinfo id="f_0_3.8" depart="66.00" departLane="np3_nt3_0" departPos="2.89" departSpeed="0.00" departDelay="0.54" arrival="290.00" arrivalLane="nt14_np11_0" arrivalPos="75.00" arrivalSpeed="9.30" duration="224.00" routeLength="948.20" waitingTime="101.00" waitingCount="7" stopTime="0.00" timeLoss="142.09" rerouteNo="0" devices="tripinfo_f_0_3.8" vType="type1" speedFactor="0.97" vaporized=""/>
    <tripinfo id="f_0_2.9" depart="74.00" departLane="np2_nt2_0" departPos="18.81" departSpeed="0.00" departDelay="0.36" arrival="293.00" arrivalLane="nt15_np10_0" arrivalPos="75.00" arrivalSpeed="10.03" duration="219.00" routeLength="932.27" waitingTime="73.00" waitingCount="8" stopTime="0.00" timeLoss="146.72" rerouteNo="0" devices="tripinfo_f_0_2.9" vType="type1" speedFactor="1.08" vaporized=""/>
    <tripinfo id="f_0_2.10" depart="82.00" departLane="np2_nt2_0" departPos="30.11" departSpeed="0.00" departDelay="0.18" arrival="298.00" arrivalLane="nt15_np10_0" arrivalPos="75.00" arrivalSpeed="12.17" duration="216.00" routeLength="920.97" waitingTime="72.00" waitingCount="9" stopTime="0.00" timeLoss="148.12" rerouteNo="0" devices="tripinfo_f_0_2.10" vType="type1" speedFactor="1.13" vaporized=""/>
    <tripinfo id="f_0_0.9" depart="123.00" departLane="np13_nt13_0" departPos="53.37" departSpeed="0.00" departDelay="0.28" arrival="304.00" arrivalLane="nt4_np5_0" arrivalPos="75.00" arrivalSpeed="20.91" duration="181.00" routeLength="1294.52" waitingTime="68.00" waitingCount="4" stopTime="0.00" timeLoss="102.51" rerouteNo="0" devices="tripinfo_f_0_0.9" vType="type1" speedFactor="1.16" vaporized=""/>
    <tripinfo id="f_0_2.11" depart="90.00" departLane="np2_nt2_0" departPos="13.65" departSpeed="0.00" departDelay="0.00" arrival="306.00" arrivalLane="nt15_np10_0" arrivalPos="75.00" arrivalSpeed="7.83" duration="216.00" routeLength="937.43" waitingTime="60.00" waitingCount="9" stopTime="0.00" timeLoss="123.82" rerouteNo="0" devices="tripinfo_f_0_2.11" vType="type1" speedFactor="0.86" vaporized=""/>
    <tripinfo id="f_0_2.12" depart="99.00" departLane="np2_nt2_0" departPos="17.29" departSpeed="0.00" departDelay="0.82" arrival="317.00" arrivalLane="nt15_np10_0" arrivalPos="75.00" arrivalSpeed="8.75" duration="218.00" routeLength="933.79" waitingTime="56.00" waitingCount="10" stopTime="0.00" timeLoss="139.92" rerouteNo="0" devices="tripinfo_f_0_2.12" vType="type1" speedFactor="1.01" vaporized=""/>
    <tripinfo id="f_0_1.3" depart="41.00" departLane="np16_nt1_0" departPos="32.82" departSpeed="0.00" departDelay="0.09" arrival="319.00" arrivalLane="nt16_np8_0" arrivalPos="75.00" arrivalSpeed="17.49" duration="278.00" routeLength="1315.06" waitingTime="109.00" waitingCount="11" stopTime="0.00" timeLoss="179.68" rerouteNo="0" devices="tripinfo_f_0_1.3" vType="type1" speedFactor="0.94" vaporized=""/>
    <tripinfo id="f_0_0.10" depart="137.00" departLane="np13_nt13_0" departPos="58.88" departSpeed="0.00" departDelay="0.64" arrival="319.00" arrivalLane="nt4_np5_0" arrivalPos="75.00" arrivalSpeed="20.35" duration="182.00" routeLength="1289.01" waitingTime="61.00" waitingCount="4" stopTime="0.00" timeLoss="98.27" rerouteNo="0" devices="tripinfo_f_0_0.10" vType="type1" speedFactor="1.08" vaporized=""/>
    <tripinfo id="f_0_1.4" depart="55.00" departLane="np16_nt1_0" departPos="31.23" departSpeed="0.00" departDelay="0.46" arrival="320.00" arrivalLane="nt16_np8_0" arrivalPos="75.00" arrivalSpeed="20.17" duration="265.00" routeLength="1316.65" waitingTime="103.00" waitingCount="10" stopTime="0.00" timeLoss="174.73" rerouteNo="0" devices="tripinfo_f_0_1.4" vType="type1" speedFactor="1.02" vaporized=""/>
    <tripinfo id="f_0_1.5" depart="69.00" departLane="np16_nt1_0" departPos="16.62" departSpeed="0.00" departDelay="0.82" arrival="322.00" arrivalLane="nt16_np8_0" arrivalPos="75.00" arrivalSpeed="16.94" duration="253.00" routeLength="1331.26" waitingTime="77.00" waitingCount="8" stopTime="0.00" timeLoss="155.66" rerouteNo="0" devices="tripinfo_f_0_1.5" vType="type1" speedFactor="0.95" vaporized=""/>
    <tripinfo id="f_0_1.6" depart="82.00" departLane="np16_nt1_0" departPos="19.10" departSpeed="0.00" departDelay="0.18" arrival="323.00" arrivalLane="nt16_np8_0" arrivalPos="75.00" arrivalSpeed="17.80" duration="241.00" routeLength="1328.78" waitingTime="68.00" waitingCount="8" stopTime="0.00" timeLoss="141.73" rerouteNo="0" devices="tripinfo_f_0_1.6" vType="type1" speedFactor="0.93" vaporized=""/>
    <tripinfo id="f_0_3.9" depart="74.00" departLane="np3_nt3_0" departPos="11.04" departSpeed="0.00" departDelay="0.36" arrival="324.00" arrivalLane="nt14_np11_0" arrivalPos="75.00" arrivalSpeed="9.08" duration="250.00" routeLength="940.05" waitingTime="112.00" waitingCount="8" stopTime="0.00" timeLoss="159.31" rerouteNo="0" devices="tripinfo_f_0_3.9" vType="type1" speedFactor="0.87" vaporized=""/>
    <tripinfo id="f_0_3.10" depart="82.00" departLane="np3_nt3_0" departPos="6.81" departSpeed="0.00" departDelay="0.18" arrival="326.00" arrivalLane="nt14_np11_0" arrivalPos="75.00" arrivalSpeed="11.59" duration="244.00" routeLength="944.28" waitingTime="106.00" waitingCount="7" stopTime="0.00" timeLoss="168.18" rerouteNo="0" devices="tripinfo_f_0_3.10" vType="type1" speedFactor="1.06" vaporized=""/>
    <tripinfo id="f_0_2.13" depart="107.00" departLane="np2_nt2_0" departPos="5.92" departSpeed="0.00" departDelay="0.63" arrival="328.00" arrivalLane="nt15_np10_0" arrivalPos="75.00" arrivalSpeed="9.85" duration="221.00" routeLength="945.16" waitingTime="69.00" waitingCount="8" stopTime="0.00" timeLoss="149.19" rerouteNo="0" devices="tripinfo_f_0_2.13" vType="type1" speedFactor="1.11" vaporized=""/>
    <tripinfo id="f_0_3.11" depart="90.00" departLane="np3_nt3_0" departPos="14.89" departSpeed="0.00" departDelay="0.00" arrival="337.00" arrivalLane="nt14_np11_0" arrivalPos="75.00" arrivalSpeed="9.43" duration="247.00" routeLength="936.20" waitingTime="138.00" waitingCount="7" stopTime="0.00" timeLoss="170.40" rerouteNo="0" devices="tripinfo_f_0_3.11" vType="type1" speedFactor="1.03" vaporized=""/>
    <tripinfo id="f_0_1.7" depart="96.00" departLane="np16_nt1_0" departPos="28.04" departSpeed="0.00" departDelay="0.55" arrival="339.00" arrivalLane="nt16_np8_0" arrivalPos="75.00" arrivalSpeed="17.74" duration="243.00" routeLength="1319.84" waitingTime="53.00" waitingCount="10" stopTime="0.00" timeLoss="143.99" rerouteNo="0" devices="tripinfo_f_0_1.7" vType="type1" speedFactor="0.94" vaporized=""/>
    <tripinfo id="f_0_3.12" depart="99.00" departLane="np3_nt3_0" departPos="7.41" departSpeed="0.00" departDelay="0.82" arrival="339.00" arrivalLane="nt14_np11_0" arrivalPos="75.00" arrivalSpeed="10.14" duration="240.00" routeLength="943.68" waitingTime="118.00" waitingCount="6" stopTime="0.00" timeLoss="163.38" rerouteNo="0" devices="tripinfo_f_0_3.12" vType="type1" speedFactor="1.04" vaporized=""/>
    <tripinfo id="f_0_1.8" depart="110.00" departLane="np16_nt1_0" departPos="62.43" departSpeed="0.00" departDelay="0.91" arrival="341.00" arrivalLane="nt16_np8_0" arrivalPos="75.00" arrivalSpeed="19.88" duration="231.00" routeLength="1285.45" waitingTime="50.00" waitingCount="7" stopTime="0.00" timeLoss="140.12" rerouteNo="0" devices="tripinfo_f_0_1.8" vType="type1" speedFactor="1.00" vaporized=""/>
    <tripinfo id="f_0_2.14" depart="115.00" departLane="np2_nt2_0" departPos="45.47" departSpeed="0.00" departDelay="0.45" arrival="342.00" arrivalLane="nt15_np10_0" arrivalPos="75.00" arrivalSpeed="9.95" duration="227.00" routeLength="905.61" waitingTime="76.00" waitingCount="11" stopTime="0.00" timeLoss="152.75" rerouteNo="0" devices="tripinfo_f_0_2.14" vType="type1" speedFactor="1.02" vaporized=""/>
    <tripinfo id="f_0_0.11" depart="150.00" departLane="np13_nt13_0" departPos="59.40" departSpeed="0.00" departDelay="0.00" arrival="363.00" arrivalLane="nt4_np5_0" arrivalPos="75.00" arrivalSpeed="18.66" duration="213.00" routeLength="1288.49" waitingTime="75.00" waitingCount="7" stopTime="0.00" timeLoss="124.89" rerouteNo="0" devices="tripinfo_f_0_0.11" vType="type1" speedFactor="1.02" vaporized=""/>
    <tripinfo id="f_0_0.12" depart="164.00" departLane="np13_nt13_0" departPos="0.03" departSpeed="0.00" departDelay="0.37" arrival="374.00" arrivalLane="nt4_np5_0" arrivalPos="75.00" arrivalSpeed="18.14" duration="210.00" routeLength="1347.86" waitingTime="74.00" waitingCount="7" stopTime="0.00" timeLoss="117.08" rerouteNo="0" devices="tripinfo_f_0_0.12" vType="type1" speedFactor="1.01" vaporized=""/>
    <tripinfo id="f_0_0.13" depart="178.00" departLane="np13_nt13_0" departPos="43.16" departSpeed="0.00" departDelay="0.73" arrival="383.00" arrivalLane="nt4_np5_0" arrivalPos="75.00" arrivalSpeed="17.96" duration="205.00" routeLength="1304.73" waitingTime="64.00" waitingCount="8" stopTime="0.00" timeLoss="108.74" rerouteNo="0" devices="tripinfo_f_0_0.13" vType="type1" speedFactor="0.94" vaporized=""/>
    <tripinfo id="f_0_2.15" depart="123.00" departLane="np2_nt2_0" departPos="34.74" departSpeed="0.00" departDelay="0.27" arrival="384.00" arrivalLane="nt15_np10_0" arrivalPos="75.00" arrivalSpeed="8.67" duration="261.00" routeLength="916.34" waitingTime="112.00" waitingCount="9" stopTime="0.00" timeLoss="174.22" rerouteNo="0" devices="tripinfo_f_0_2.15" vType="type1" speedFactor="0.89" vaporized=""/>
    <tripinfo id="f_0_0.14" depart="191.00" departLane="np13_nt13_0" departPos="55.57" departSpeed="0.00" departDelay="0.10" arrival="385.00" arrivalLane="nt4_np5_0" arrivalPos="75.00" arrivalSpeed="17.34" duration="194.00" routeLength="1292.32" waitingTime="54.00" waitingCount="5" stopTime="0.00" timeLoss="101.06" rerouteNo="0" devices="tripinfo_f_0_0.14" vType="type1" speedFactor="0.98" vaporized=""/>
    <tripinfo id="f_0_2.16" depart="131.00" departLane="np2_nt2_0" departPos="23.61" departSpeed="0.00" departDelay="0.09" arrival="387.00" arrivalLane="nt15_np10_0" arrivalPos="75.00" arrivalSpeed="7.22" duration="256.00" routeLength="927.47" waitingTime="104.00" waitingCount="9" stopTime="0.00" timeLoss="161.72" rerouteNo="0" devices="tripinfo_f_0_2.16" vType="type1" speedFactor="0.83" vaporized=""/>
    <tripinfo id="f_0_0.15" depart="205.00" departLane="np13_nt13_0" departPos="40.39" departSpeed="0.00" departDelay="0.46" arrival="387.00" arrivalLane="nt4_np5_0" arrivalPos="75.00" arrivalSpeed="19.76" duration="182.00" routeLength="1307.50" waitingTime="48.00" waitingCount="5" stopTime="0.00" timeLoss="92.71" rerouteNo="0" devices="tripinfo_f_0_0.15" vType="type1" speedFactor="1.03" vaporized=""/>
    <tripinfo id="f_0_0.16" depart="219.00" departLane="np13_nt13_0" departPos="33.15" departSpeed="0.00" departDelay="0.82" arrival="389.00" arrivalLane="nt4_np5_0" arrivalPos="75.00" arrivalSpeed="17.47" duration="170.00" routeLength="1314.74" waitingTime="30.00" waitingCount="6" stopTime="0.00" timeLoss="70.08" rerouteNo="0" devices="tripinfo_f_0_0.16" vType="type1" speedFactor="0.92" vaporized=""/>
    <tripinfo id="f_0_0.17" depart="232.00" departLane="np13_nt13_0" departPos="46.14" departSpeed="0.00" departDelay="0.19" arrival="390.00" arrivalLane="nt4_np5_0" arrivalPos="75.00" arrivalSpeed="18.57" duration="158.00" routeLength="1301.75" waitingTime="34.00" waitingCount="5" stopTime="0.00" timeLoss="69.34" rerouteNo="0" devices="tripinfo_f_0_0.17" vType="type1" speedFactor="1.02" vaporized=""/>
    <tripinfo id="f_0_2.17" depart="140.00" departLane="np2_nt2_0" departPos="54.03" departSpeed="0.00" departDelay="0.91" arrival="396.00" arrivalLane="nt15_np10_0" arrivalPos="75.00" arrivalSpeed="11.06" duration="256.00" routeLength="897.05" waitingTime="110.00" waitingCount="8" stopTime="0.00" timeLoss="190.00" rerouteNo="0" devices="tripinfo_f_0_2.17" vType="type1" speedFactor="1.13" vaporized=""/>
    <tripinfo id="f_0_3.13" depart="107.00" departLane="np3_nt3_0" departPos="3.08" departSpeed="0.00" departDelay="0.63" arrival="413.00" arrivalLane="nt14_np11_0" arrivalPos="75.00" arrivalSpeed="8.81" duration="306.00" routeLength="948.01" waitingTime="165.00" waitingCount="8" stopTime="0.00" timeLoss="214.29" rerouteNo="0" devices="tripinfo_f_0_3.13" vType="type1" speedFactor="0.87" vaporized=""/>
    <tripinfo id="f_0_1.9" depart="123.00" departLane="np16_nt1_0" departPos="36.39" departSpeed="0.00" departDelay="0.28" arrival="413.00" arrivalLane="nt16_np8_0" arrivalPos="75.00" arrivalSpeed="17.69" duration="290.00" routeLength="1311.49" waitingTime="112.00" waitingCount="11" stopTime="0.00" timeLoss="197.26" rerouteNo="0" devices="tripinfo_f_0_1.9" vType="type1" speedFactor="0.99" vaporized=""/>
    <tripinfo id="f_0_3.14" depart="115.00" departLane="np3_nt3_0" departPos="1.23" departSpeed="0.00" departDelay="0.45" arrival="415.00" arrivalLane="nt14_np11_0" arrivalPos="75.00" arrivalSpeed="9.90" duration="300.00" routeLength="949.86" waitingTime="152.00" waitingCount="6" stopTime="0.00" timeLoss="217.02" rerouteNo="0" devices="tripinfo_f_0_3.14" vType="type1" speedFactor="0.96" vaporized=""/>
    <tripinfo id="f_0_0.18" depart="246.00" departLane="np13_nt13_0" departPos="56.37" departSpeed="0.00" departDelay="0.55" arrival="415.00" arrivalLane="nt4_np5_0" arrivalPos="75.00" arrivalSpeed="18.86" duration="169.00" routeLength="1291.52" waitingTime="52.00" waitingCount="6" stopTime="0.00" timeLoss="81.46" rerouteNo="0" devices="tripinfo_f_0_0.18" vType="type1" speedFactor="1.03" vaporized=""/>
    <tripinfo id="f_0_3.15" depart="123.00" departLane="np3_nt3_0" departPos="5.92" departSpeed="0.00" departDelay="0.27" arrival="417.00" arrivalLane="nt14_np11_0" arrivalPos="75.00" arrivalSpeed="10.96" duration="294.00" routeLength="945.17" waitingTime="157.00" waitingCount="10" stopTime="0.00" timeLoss="218.01" rerouteNo="0" devices="tripinfo_f_0_3.15" vType="type1" speedFactor="1.04" vaporized=""/>
    <tripinfo id="f_0_2.18" depart="148.00" departLane="np2_nt2_0" departPos="34.00" departSpeed="0.00" departDelay="0.72" arrival="419.00" arrivalLane="nt15_np10_0" arrivalPos="75.00" arrivalSpeed="7.59" duration="271.00" routeLength="917.08" waitingTime="122.00" waitingCount="9" stopTime="0.00" timeLoss="182.01" rerouteNo="0" devices="tripinfo_f_0_2.18" vType="type1" speedFactor="0.87" vaporized=""/>
    <tripinfo id="f_0_3.20" depart="194.00" departLane="np3_nt3_0" departPos="43.79" departSpeed="0.00" departDelay="30.36" arrival="419.00" arrivalLane="nt14_np11_0" arrivalPos="75.00" arrivalSpeed="9.46" duration="225.00" routeLength="907.30" waitingTime="105.00" waitingCount="9" stopTime="0.00" timeLoss="147.42" rerouteNo="0" devices="tripinfo_f_0_3.20" vType="type1" speedFactor="0.98" vaporized=""/>
    <tripinfo id="f_0_3.16" depart="131.00" departLane="np3_nt3_0" departPos="2.08" departSpeed="0.00" departDelay="0.09" arrival="428.00" arrivalLane="nt14_np11_0" arrivalPos="75.00" arrivalSpeed="8.59" duration="297.00" routeLength="949.01" waitingTime="139.00" waitingCount="11" stopTime="0.00" timeLoss="205.93" rerouteNo="0" devices="tripinfo_f_0_3.16" vType="type1" speedFactor="0.87" vaporized=""/>
    <tripinfo id="f_0_3.17" depart="167.00" departLane="np3_nt3_0" departPos="0.00" departSpeed="0.00" departDelay="27.91" arrival="430.00" arrivalLane="nt14_np11_0" arrivalPos="75.00" arrivalSpeed="8.05" duration="263.00" routeLength="951.09" waitingTime="103.00" waitingCount="10" stopTime="0.00" timeLoss="176.26" rerouteNo="0" devices="tripinfo_f_0_3.17" vType="type1" speedFactor="0.92" vaporized=""/>
    <tripinfo id="f_0_2.19" depart="156.00" departLane="np2_nt2_0" departPos="20.56" departSpeed="0.00" departDelay="0.54" arrival="433.00" arrivalLane="nt15_np10_0" arrivalPos="75.00" arrivalSpeed="9.91" duration="277.00" routeLength="930.52" waitingTime="126.00" waitingCount="12" stopTime="0.00" timeLoss="200.40" rerouteNo="0" devices="tripinfo_f_0_2.19" vType="type1" speedFactor="1.02" vaporized=""/>
    <tripinfo id="f_0_1.10" depart="137.00" departLane="np16_nt1_0" departPos="43.06" departSpeed="0.00" departDelay="0.64" arrival="434.00" arrivalLane="nt16_np8_0" arrivalPos="75.00" arrivalSpeed="17.07" duration="297.00" routeLength="1304.82" waitingTime="119.00" waitingCount="10" stopTime="0.00" timeLoss="197.07" rerouteNo="0" devices="tripinfo_f_0_1.10" vType="type1" speedFactor="0.92" vaporized=""/>
    <tripinfo id="f_0_3.18" depart="170.00" departLane="np3_nt3_0" departPos="0.00" departSpeed="0.00" departDelay="22.72" arrival="434.00" arrivalLane="nt14_np11_0" arrivalPos="75.00" arrivalSpeed="8.93" duration="264.00" routeLength="951.09" waitingTime="86.00" waitingCount="10" stopTime="0.00" timeLoss="169.18" rerouteNo="0" devices="tripinfo_f_0_3.18" vType="type1" speedFactor="0.85" vaporized=""/>
    <tripinfo id="f_0_3.19" depart="173.00" departLane="np3_nt3_0" departPos="0.72" departSpeed="0.00" departDelay="17.54" arrival="435.00" arrivalLane="nt14_np11_0" arrivalPos="75.00" arrivalSpeed="9.78" duration="262.00" routeLength="950.37" waitingTime="92.00" waitingCount="12" stopTime="0.00" timeLoss="192.41" rerouteNo="0" devices="tripinfo_f_0_3.19" vType="type1" speedFactor="1.14" vaporized=""/>