<?xml version="1.0" encoding="UTF-8"?>

<!-- generated on 2023-08-23 15:56:37 by Eclipse SUMO libsumo Version 1.18.0
<configuration xmlns:xsi="http://www.w3.org/2001/XMLSchema-instance" xsi:noNamespaceSchemaLocation="http://sumo.dlr.de/xsd/libsumoConfiguration.xsd">

    <input>
        <net-file value="/home/stefan/RESCO/./environments/arterial4x4/arterial4x4.net.xml"/>
        <route-files value="/home/stefan/RESCO/./environments/arterial4x4/arterial4x4_9.rou.xml"/>
    </input>

    <output>
        <tripinfo-output value="/home/stefan/results/IDDQN-tr0-arterial4x4-0-drq_norm-wait_norm/tripinfo_9.xml"/>
        <tripinfo-output.write-unfinished value="true"/>
    </output>

    <processing>
        <time-to-teleport value="-1"/>
    </processing>

    <report>
        <no-warnings value="True"/>
        <no-step-log value="True"/>
    </report>

    <random_number>
        <random value="true"/>
    </random_number>

</configuration>
-->

<tripinfos xmlns:xsi="http://www.w3.org/2001/XMLSchema-instance" xsi:noNamespaceSchemaLocation="http://sumo.dlr.de/xsd/tripinfo_file.xsd">
    <tripinfo id="f_0_2.0" depart="0.00" departLane="np2_nt2_0" departPos="34.69" departSpeed="0.00" departDelay="0.00" arrival="147.00" arrivalLane="nt15_np10_0" arrivalPos="75.00" arrivalSpeed="8.92" duration="147.00" routeLength="916.39" waitingTime="47.00" waitingCount="4" stopTime="0.00" timeLoss="68.03" rerouteNo="0" devices="tripinfo_f_0_2.0" vType="type1" speedFactor="0.97" vaporized=""/>
    <tripinfo id="f_0_2.1" depart="9.00" departLane="np2_nt2_0" departPos="58.02" departSpeed="0.00" departDelay="0.82" arrival="161.00" arrivalLane="nt15_np10_0" arrivalPos="75.00" arrivalSpeed="11.37" duration="152.00" routeLength="893.06" waitingTime="55.00" waitingCount="4" stopTime="0.00" timeLoss="81.73" rerouteNo="0" devices="tripinfo_f_0_2.1" vType="type1" speedFactor="1.06" vaporized=""/>
    <tripinfo id="f_0_3.0" depart="0.00" departLane="np3_nt3_0" departPos="1.65" departSpeed="0.00" departDelay="0.00" arrival="162.00" arrivalLane="nt14_np11_0" arrivalPos="75.00" arrivalSpeed="10.54" duration="162.00" routeLength="949.44" waitingTime="67.00" waitingCount="4" stopTime="0.00" timeLoss="85.71" rerouteNo="0" devices="tripinfo_f_0_3.0" vType="type1" speedFactor="1.05" vaporized=""/>
    <tripinfo id="f_0_0.0" depart="0.00" departLane="np13_nt13_0" departPos="6.26" departSpeed="0.00" departDelay="0.00" arrival="178.00" arrivalLane="nt4_np5_0" arrivalPos="75.00" arrivalSpeed="20.01" duration="178.00" routeLength="1341.63" waitingTime="47.00" waitingCount="7" stopTime="0.00" timeLoss="85.38" rerouteNo="0" devices="tripinfo_f_0_0.0" vType="type1" speedFactor="1.00" vaporized=""/>
    <tripinfo id="f_0_2.2" depart="17.00" departLane="np2_nt2_0" departPos="44.41" departSpeed="0.00" departDelay="0.64" arrival="203.00" arrivalLane="nt15_np10_0" arrivalPos="75.00" arrivalSpeed="9.67" duration="186.00" routeLength="906.67" waitingTime="89.00" waitingCount="4" stopTime="0.00" timeLoss="112.90" rerouteNo="0" devices="tripinfo_f_0_2.2" vType="type1" speedFactor="1.05" vaporized=""/>
    <tripinfo id="f_0_3.1" depart="9.00" departLane="np3_nt3_0" departPos="32.10" departSpeed="0.00" departDelay="0.82" arrival="212.00" arrivalLane="nt14_np11_0" arrivalPos="75.00" arrivalSpeed="10.05" duration="203.00" routeLength="918.99" waitingTime="97.00" waitingCount="6" stopTime="0.00" timeLoss="125.98" rerouteNo="0" devices="tripinfo_f_0_3.1" vType="type1" speedFactor="0.99" vaporized=""/>
    <tripinfo id="f_0_2.3" depart="25.00" departLane="np2_nt2_0" departPos="10.55" departSpeed="0.00" departDelay="0.45" arrival="218.00" arrivalLane="nt15_np10_0" arrivalPos="75.00" arrivalSpeed="8.90" duration="193.00" routeLength="940.53" waitingTime="80.00" waitingCount="5" stopTime="0.00" timeLoss="116.31" rerouteNo="0" devices="tripinfo_f_0_2.3" vType="type1" speedFactor="1.03" vaporized=""/>
    <tripinfo id="f_0_2.4" depart="33.00" departLane="np2_nt2_0" departPos="6.29" departSpeed="0.00" departDelay="0.27" arrival="220.00" arrivalLane="nt15_np10_0" arrivalPos="75.00" arrivalSpeed="12.01" duration="187.00" routeLength="944.79" waitingTime="73.00" waitingCount="6" stopTime="0.00" timeLoss="118.84" rerouteNo="0" devices="tripinfo_f_0_2.4" vType="type1" speedFactor="1.17" vaporized=""/>
    <tripinfo id="f_0_1.0" depart="0.00" departLane="np16_nt1_0" departPos="11.10" departSpeed="0.00" departDelay="0.00" arrival="228.00" arrivalLane="nt16_np8_0" arrivalPos="75.00" arrivalSpeed="21.16" duration="228.00" routeLength="1336.78" waitingTime="101.00" waitingCount="7" stopTime="0.00" timeLoss="143.23" rerouteNo="0" devices="tripinfo_f_0_1.0" vType="type1" speedFactor="1.10" vaporized=""/>
    <tripinfo id="f_0_1.1" depart="14.00" departLane="np16_nt1_0" departPos="10.65" departSpeed="0.00" departDelay="0.36" arrival="229.00" arrivalLane="nt16_np8_0" arrivalPos="75.00" arrivalSpeed="18.98" duration="215.00" routeLength="1337.23" waitingTime="84.00" waitingCount="7" stopTime="0.00" timeLoss="126.98" rerouteNo="0" devices="tripinfo_f_0_1.1" vType="type1" speedFactor="1.05" vaporized=""/>
    <tripinfo id="f_0_2.5" depart="41.00" departLane="np2_nt2_0" departPos="46.94" departSpeed="0.00" departDelay="0.09" arrival="244.00" arrivalLane="nt15_np10_0" arrivalPos="75.00" arrivalSpeed="9.94" duration="203.00" routeLength="904.14" waitingTime="73.00" waitingCount="7" stopTime="0.00" timeLoss="128.85" rerouteNo="0" devices="tripinfo_f_0_2.5" vType="type1" speedFactor="1.02" vaporized=""/>
    <tripinfo id="f_0_1.2" depart="28.00" departLane="np16_nt1_0" departPos="31.63" departSpeed="0.00" departDelay="0.73" arrival="253.00" arrivalLane="nt16_np8_0" arrivalPos="75.00" arrivalSpeed="16.88" duration="225.00" routeLength="1316.25" waitingTime="84.00" waitingCount="7" stopTime="0.00" timeLoss="128.38" rerouteNo="0" devices="tripinfo_f_0_1.2" vType="type1" speedFactor="0.95" vaporized=""/>
    <tripinfo id="f_0_3.2" depart="17.00" departLane="np3_nt3_0" departPos="2.24" departSpeed="0.00" departDelay="0.64" arrival="257.00" arrivalLane="nt14_np11_0" arrivalPos="75.00" arrivalSpeed="9.32" duration="240.00" routeLength="948.85" waitingTime="130.00" waitingCount="6" stopTime="0.00" timeLoss="164.27" rerouteNo="0" devices="tripinfo_f_0_3.2" vType="type1" speedFactor="1.05" vaporized=""/>
    <tripinfo id="f_0_0.1" depart="14.00" departLane="np13_nt13_0" departPos="27.12" departSpeed="0.00" departDelay="0.36" arrival="258.00" arrivalLane="nt4_np5_0" arrivalPos="75.00" arrivalSpeed="18.73" duration="244.00" routeLength="1320.77" waitingTime="113.00" waitingCount="6" stopTime="0.00" timeLoss="148.24" rerouteNo="0" devices="tripinfo_f_0_0.1" vType="type1" speedFactor="0.96" vaporized=""/>
    <tripinfo id="f_0_3.3" depart="25.00" departLane="np3_nt3_0" departPos="34.96" departSpeed="0.00" departDelay="0.45" arrival="259.00" arrivalLane="nt14_np11_0" arrivalPos="75.00" arrivalSpeed="11.72" duration="234.00" routeLength="916.13" waitingTime="121.00" waitingCount="8" stopTime="0.00" timeLoss="169.52" rerouteNo="0" devices="tripinfo_f_0_3.3" vType="type1" speedFactor="1.20" vaporized=""/>
    <tripinfo id="f_0_3.4" depart="33.00" departLane="np3_nt3_0" departPos="4.75" departSpeed="0.00" departDelay="0.27" arrival="261.00" arrivalLane="nt14_np11_0" arrivalPos="75.00" arrivalSpeed="11.43" duration="228.00" routeLength="946.34" waitingTime="102.00" waitingCount="8" stopTime="0.00" timeLoss="154.79" rerouteNo="0" devices="tripinfo_f_0_3.4" vType="type1" speedFactor="1.09" vaporized=""/>
    <tripinfo id="f_0_2.6" depart="50.00" departLane="np2_nt2_0" departPos="2.90" departSpeed="0.00" departDelay="0.91" arrival="273.00" arrivalLane="nt15_np10_0" arrivalPos="75.00" arrivalSpeed="8.68" duration="223.00" routeLength="948.18" waitingTime="88.00" waitingCount="8" stopTime="0.00" timeLoss="138.11" rerouteNo="0" devices="tripinfo_f_0_2.6" vType="type1" speedFactor="0.95" vaporized=""/>
    <tripinfo id="f_0_1.3" depart="41.00" departLane="np16_nt1_0" departPos="43.55" departSpeed="0.00" departDelay="0.09" arrival="282.00" arrivalLane="nt16_np8_0" arrivalPos="75.00" arrivalSpeed="17.61" duration="241.00" routeLength="1304.33" waitingTime="86.00" waitingCount="8" stopTime="0.00" timeLoss="147.14" rerouteNo="0" devices="tripinfo_f_0_1.3" vType="type1" speedFactor="0.97" vaporized=""/>
    <tripinfo id="f_0_3.5" depart="41.00" departLane="np3_nt3_0" departPos="9.90" departSpeed="0.00" departDelay="0.09" arrival="285.00" arrivalLane="nt14_np11_0" arrivalPos="75.00" arrivalSpeed="8.47" duration="244.00" routeLength="941.19" waitingTime="99.00" waitingCount="4" stopTime="0.00" timeLoss="146.42" rerouteNo="0" devices="tripinfo_f_0_3.5" vType="type1" speedFactor="0.82" vaporized=""/>
    <tripinfo id="f_0_2.7" depart="58.00" departLane="np2_nt2_0" departPos="10.53" departSpeed="0.00" departDelay="0.73" arrival="286.00" arrivalLane="nt15_np10_0" arrivalPos="75.00" arrivalSpeed="11.73" duration="228.00" routeLength="940.55" waitingTime="102.00" waitingCount="10" stopTime="0.00" timeLoss="159.36" rerouteNo="0" devices="tripinfo_f_0_2.7" vType="type1" speedFactor="1.15" vaporized=""/>
    <tripinfo id="f_0_3.6" depart="50.00" departLane="np3_nt3_0" departPos="6.71" departSpeed="0.00" departDelay="0.91" arrival="287.00" arrivalLane="nt14_np11_0" arrivalPos="75.00" arrivalSpeed="9.58" duration="237.00" routeLength="944.38" waitingTime="96.00" waitingCount="5" stopTime="0.00" timeLoss="153.38" rerouteNo="0" devices="tripinfo_f_0_3.6" vType="type1" speedFactor="0.95" vaporized=""/>
    <tripinfo id="f_0_2.8" depart="66.00" departLane="np2_nt2_0" departPos="11.45" departSpeed="0.00" departDelay="0.54" arrival="290.00" arrivalLane="nt15_np10_0" arrivalPos="75.00" arrivalSpeed="9.60" duration="224.00" routeLength="939.63" waitingTime="86.00" waitingCount="9" stopTime="0.00" timeLoss="140.52" rerouteNo="0" devices="tripinfo_f_0_2.8" vType="type1" speedFactor="0.95" vaporized=""/>
    <tripinfo id="f_0_3.7" depart="58.00" departLane="np3_nt3_0" departPos="13.88" departSpeed="0.00" departDelay="0.73" arrival="299.00" arrivalLane="nt14_np11_0" arrivalPos="75.00" arrivalSpeed="8.81" duration="241.00" routeLength="937.21" waitingTime="125.00" waitingCount="5" stopTime="0.00" timeLoss="155.49" rerouteNo="0" devices="tripinfo_f_0_3.7" vType="type1" speedFactor="0.93" vaporized=""/>
    <tripinfo id="f_0_2.9" depart="74.00" departLane="np2_nt2_0" departPos="58.25" departSpeed="0.00" departDelay="0.36" arrival="324.00" arrivalLane="nt15_np10_0" arrivalPos="75.00" arrivalSpeed="8.33" duration="250.00" routeLength="892.83" waitingTime="105.00" waitingCount="9" stopTime="0.00" timeLoss="164.31" rerouteNo="0" devices="tripinfo_f_0_2.9" vType="type1" speedFactor="0.87" vaporized=""/>
    <tripinfo id="f_0_1.4" depart="55.00" departLane="np16_nt1_0" departPos="38.69" departSpeed="0.00" departDelay="0.46" arrival="332.00" arrivalLane="nt16_np8_0" arrivalPos="75.00" arrivalSpeed="20.29" duration="277.00" routeLength="1309.19" waitingTime="114.00" waitingCount="11" stopTime="0.00" timeLoss="195.84" rerouteNo="0" devices="tripinfo_f_0_1.4" vType="type1" speedFactor="1.14" vaporized=""/>
    <tripinfo id="f_0_2.10" depart="82.00" departLane="np2_nt2_0" departPos="27.36" departSpeed="0.00" departDelay="0.18" arrival="342.00" arrivalLane="nt15_np10_0" arrivalPos="75.00" arrivalSpeed="10.05" duration="260.00" routeLength="923.72" waitingTime="103.00" waitingCount="10" stopTime="0.00" timeLoss="184.52" rerouteNo="0" devices="tripinfo_f_0_2.10" vType="type1" speedFactor="1.03" vaporized=""/>
    <tripinfo id="f_0_2.11" depart="90.00" departLane="np2_nt2_0" departPos="3.65" departSpeed="0.00" departDelay="0.00" arrival="343.00" arrivalLane="nt15_np10_0" arrivalPos="75.00" arrivalSpeed="12.02" duration="253.00" routeLength="947.43" waitingTime="101.00" waitingCount="9" stopTime="0.00" timeLoss="180.52" rerouteNo="0" devices="tripinfo_f_0_2.11" vType="type1" speedFactor="1.10" vaporized=""/>
    <tripinfo id="f_0_0.2" depart="28.00" departLane="np13_nt13_0" departPos="23.54" departSpeed="0.00" departDelay="0.73" arrival="344.00" arrivalLane="nt4_np5_0" arrivalPos="75.00" arrivalSpeed="17.40" duration="316.00" routeLength="1324.35" waitingTime="173.00" waitingCount="7" stopTime="0.00" timeLoss="217.59" rerouteNo="0" devices="tripinfo_f_0_0.2" vType="type1" speedFactor="0.94" vaporized=""/>
    <tripinfo id="f_0_3.8" depart="66.00" departLane="np3_nt3_0" departPos="3.05" departSpeed="0.00" departDelay="0.54" arrival="354.00" arrivalLane="nt14_np11_0" arrivalPos="75.00" arrivalSpeed="7.24" duration="288.00" routeLength="948.04" waitingTime="154.00" waitingCount="8" stopTime="0.00" timeLoss="197.61" rerouteNo="0" devices="tripinfo_f_0_3.8" vType="type1" speedFactor="0.88" vaporized=""/>
    <tripinfo id="f_0_2.12" depart="99.00" departLane="np2_nt2_0" departPos="35.73" departSpeed="0.00" departDelay="0.82" arrival="364.00" arrivalLane="nt15_np10_0" arrivalPos="75.00" arrivalSpeed="6.94" duration="265.00" routeLength="915.35" waitingTime="104.00" waitingCount="12" stopTime="0.00" timeLoss="172.35" rerouteNo="0" devices="tripinfo_f_0_2.12" vType="type1" speedFactor="0.83" vaporized=""/>
    <tripinfo id="f_0_1.5" depart="69.00" departLane="np16_nt1_0" departPos="23.76" departSpeed="0.00" departDelay="0.82" arrival="373.00" arrivalLane="nt16_np8_0" arrivalPos="75.00" arrivalSpeed="20.15" duration="304.00" routeLength="1324.12" waitingTime="120.00" waitingCount="15" stopTime="0.00" timeLoss="217.22" rerouteNo="0" devices="tripinfo_f_0_1.5" vType="type1" speedFactor="1.06" vaporized=""/>
    <tripinfo id="f_0_0.3" depart="41.00" departLane="np13_nt13_0" departPos="20.30" departSpeed="0.00" departDelay="0.09" arrival="383.00" arrivalLane="nt4_np5_0" arrivalPos="75.00" arrivalSpeed="18.62" duration="342.00" routeLength="1327.59" waitingTime="202.00" waitingCount="8" stopTime="0.00" timeLoss="243.99" rerouteNo="0" devices="tripinfo_f_0_0.3" vType="type1" speedFactor="0.94" vaporized=""/>
    <tripinfo id="f_0_3.9" depart="74.00" departLane="np3_nt3_0" departPos="0.17" departSpeed="0.00" departDelay="0.36" arrival="384.00" arrivalLane="nt14_np11_0" arrivalPos="75.00" arrivalSpeed="8.49" duration="310.00" routeLength="950.92" waitingTime="167.00" waitingCount="10" stopTime="0.00" timeLoss="216.40" rerouteNo="0" devices="tripinfo_f_0_3.9" vType="type1" speedFactor="0.85" vaporized=""/>
    <tripinfo id="f_0_1.6" depart="82.00" departLane="np16_nt1_0" departPos="27.85" departSpeed="0.00" departDelay="0.18" arrival="389.00" arrivalLane="nt16_np8_0" arrivalPos="75.00" arrivalSpeed="14.59" duration="307.00" routeLength="1320.03" waitingTime="97.00" waitingCount="17" stopTime="0.00" timeLoss="191.61" rerouteNo="0" devices="tripinfo_f_0_1.6" vType="type1" speedFactor="0.80" vaporized=""/>
    <tripinfo id="f_0_1.7" depart="96.00" departLane="np16_nt1_0" departPos="26.40" departSpeed="0.00" departDelay="0.55" arrival="390.00" arrivalLane="nt16_np8_0" arrivalPos="75.00" arrivalSpeed="17.46" duration="294.00" routeLength="1321.48" waitingTime="79.00" waitingCount="14" stopTime="0.00" timeLoss="190.02" rerouteNo="0" devices="tripinfo_f_0_1.7" vType="type1" speedFactor="0.88" vaporized=""/>
    <tripinfo id="f_0_1.8" depart="110.00" departLane="np16_nt1_0" departPos="37.27" departSpeed="0.00" departDelay="0.91" arrival="392.00" arrivalLane="nt16_np8_0" arrivalPos="75.00" arrivalSpeed="22.66" duration="282.00" routeLength="1310.61" waitingTime="87.00" waitingCount="13" stopTime="0.00" timeLoss="203.40" rerouteNo="0" devices="tripinfo_f_0_1.8" vType="type1" speedFactor="1.17" vaporized=""/>
    <tripinfo id="f_0_0.4" depart="55.00" departLane="np13_nt13_0" departPos="41.52" departSpeed="0.00" departDelay="0.46" arrival="394.00" arrivalLane="nt4_np5_0" arrivalPos="75.00" arrivalSpeed="18.29" duration="339.00" routeLength="1306.37" waitingTime="192.00" waitingCount="9" stopTime="0.00" timeLoss="250.70" rerouteNo="0" devices="tripinfo_f_0_0.4" vType="type1" speedFactor="1.04" vaporized=""/>
    <tripinfo id="f_0_2.13" depart="107.00" departLane="np2_nt2_0" departPos="4.66" departSpeed="0.00" departDelay="0.63" arrival="403.00" arrivalLane="nt15_np10_0" arrivalPos="75.00" arrivalSpeed="10.74" duration="296.00" routeLength="946.42" waitingTime="102.00" waitingCount="14" stopTime="0.00" timeLoss="215.09" rerouteNo="0" devices="tripinfo_f_0_2.13" vType="type1" speedFactor="0.99" vaporized=""/>
    <tripinfo id="f_0_2.14" depart="115.00" departLane="np2_nt2_0" departPos="51.16" departSpeed="0.00" departDelay="0.45" arrival="405.00" arrivalLane="nt15_np10_0" arrivalPos="75.00" arrivalSpeed="10.73" duration="290.00" routeLength="899.92" waitingTime="117.00" waitingCount="14" stopTime="0.00" timeLoss="216.32" rerouteNo="0" devices="tripinfo_f_0_2.14" vType="type1" speedFactor="1.03" vaporized=""/>
    <tripinfo id="f_0_3.10" depart="92.00" departLane="np3_nt3_0" departPos="3.43" departSpeed="0.00" departDelay="10.18" arrival="409.00" arrivalLane="nt14_np11_0" arrivalPos="75.00" arrivalSpeed="7.67" duration="317.00" routeLength="947.66" waitingTime="171.00" waitingCount="11" stopTime="0.00" timeLoss="226.41" rerouteNo="0" devices="tripinfo_f_0_3.10" vType="type1" speedFactor="0.88" vaporized=""/>
    <tripinfo id="f_0_0.5" depart="69.00" departLane="np13_nt13_0" departPos="29.94" departSpeed="0.00" departDelay="0.82" arrival="418.00" arrivalLane="nt4_np5_0" arrivalPos="75.00" arrivalSpeed="18.72" duration="349.00" routeLength="1317.95" waitingTime="192.00" waitingCount="10" stopTime="0.00" timeLoss="260.63" rerouteNo="0" devices="tripinfo_f_0_0.5" vType="type1" speedFactor="1.04" vaporized=""/>
    <tripinfo id="f_0_0.6" depart="82.00" departLane="np13_nt13_0" departPos="14.12" departSpeed="0.00" departDelay="0.18" arrival="419.00" arrivalLane="nt4_np5_0" arrivalPos="75.00" arrivalSpeed="21.74" duration="337.00" routeLength="1333.77" waitingTime="177.00" waitingCount="9" stopTime="0.00" timeLoss="259.14" rerouteNo="0" devices="tripinfo_f_0_0.6" vType="type1" speedFactor="1.18" vaporized=""/>
    <tripinfo id="f_0_2.15" depart="123.00" departLane="np2_nt2_0" departPos="42.76" departSpeed="0.00" departDelay="0.27" arrival="422.00" arrivalLane="nt15_np10_0" arrivalPos="75.00" arrivalSpeed="8.51" duration="299.00" routeLength="908.32" waitingTime="122.00" waitingCount="14" stopTime="0.00" timeLoss="223.18" rerouteNo="0" devices="tripinfo_f_0_2.15" vType="type1" speedFactor="1.00" vaporized=""/>
    <tripinfo id="f_0_0.7" depart="96.00" departLane="np13_nt13_0" departPos="37.02" departSpeed="0.00" departDelay="0.55" arrival="428.00" arrivalLane="nt4_np5_0" arrivalPos="75.00" arrivalSpeed="22.01" duration="332.00" routeLength="1310.87" waitingTime="184.00" waitingCount="12" stopTime="0.00" timeLoss="255.39" rerouteNo="0" devices="tripinfo_f_0_0.7" vType="type1" speedFactor="1.20" vaporized=""/>
    <tripinfo id="f_0_0.8" depart="110.00" departLane="np13_nt13_0" departPos="12.32" departSpeed="0.00" departDelay="0.91" arrival="430.00" arrivalLane="nt4_np5_0" arrivalPos="75.00" arrivalSpeed="17.51" duration="320.00" routeLength="1335.57" waitingTime="158.00" waitingCount="10" stopTime="0.00" timeLoss="223.78" rerouteNo="0" devices="tripinfo_f_0_0.8" vType="type1" speedFactor="0.97" vaporized=""/>
    <tripinfo id="f_0_0.9" depart="123.00" departLane="np13_nt13_0" departPos="30.03" departSpeed="0.00" departDelay="0.28" arrival="438.00" arrivalLane="nt4_np5_0" arrivalPos="75.00" arrivalSpeed="21.51" duration="315.00" routeLength="1317.86" waitingTime="154.00" waitingCount="12" stopTime="0.00" timeLoss="236.23" rerouteNo="0" devices="tripinfo_f_0_0.9" vType="type1" speedFactor="1.17" vaporized=""/>
    <tripinfo id="f_0_0.10" depart="137.00" departLane="np13_nt13_0" departPos="38.65" departSpeed="0.00" departDelay="0.64" arrival="440.00" arrivalLane="nt4_np5_0" arrivalPos="75.00" arrivalSpeed="18.61" duration="303.00" routeLength="1309.24" waitingTime="143.00" waitingCount="8" stopTime="0.00" timeLoss="205.40" rerouteNo="0" devices="tripinfo_f_0_0.10" vType="type1" speedFactor="0.94" vaporized=""/>
    <tripinfo id="f_0_1.9" depart="123.00" departLane="np16_nt1_0" departPos="0.37" departSpeed="0.00" departDelay="0.28" arrival="453.00" arrivalLane="nt16_np8_0" arrivalPos="75.00" arrivalSpeed="20.01" duration="330.00" routeLength="1347.51" waitingTime="134.00" waitingCount="14" stopTime="0.00" timeLoss="239.68" rerouteNo="0" devices="tripinfo_f_0_1.9" vType="type1" speedFactor="1.03" vaporized=""/>
    <tripinfo id="f_0_0.11" depart="150.00" departLane="np13_nt13_0" departPos="8.17" departSpeed="0.00" departDelay="0.00" arrival="459.00" arrivalLane="nt4_np5_0" arrivalPos="75.00" arrivalSpeed="21.22" duration="309.00" routeLength="1339.72" waitingTime="151.00" waitingCount="9" stopTime="0.00" timeLoss="222.62" rerouteNo="0" devices="tripinfo_f_0_0.11" vType="type1" speedFactor="1.08" vaporized=""/>
    <tripinfo id="f_0_3.11" depart="94.00" departLane="np3_nt3_0" departPos="0.00" departSpeed="0.00" departDelay="4.00" arrival="462.00" arrivalLane="nt14_np11_0" arrivalPos="75.00" arrivalSpeed="9.92" duration="368.00" routeLength="951.09" waitingTime="210.00" waitingCount="12" stopTime="0.00" timeLoss="288.86" rerouteNo="0" devices="tripinfo_f_0_3.11" vType="type1" speedFactor="1.00" vaporized=""/>
    <tripinfo id="f_0_3.12" depart="99.00" departLane="np3_nt3_0" departPos="14.59" departSpeed="0.00" departDelay="0.82" arrival="472.00" arrivalLane="nt14_np11_0" arrivalPos="75.00" arrivalSpeed="11.02" duration="373.00" routeLength="936.50" waitingTime="213.00" waitingCount="14" stopTime="0.00" timeLoss="295.73" rerouteNo="0" devices="tripinfo_f_0_3.12" vType="type1" speedFactor="1.01" vaporized=""/>
    <tripinfo id="f_0_3.13" depart="107.00" departLane="np3_nt3_0" departPos="3.32" departSpeed="0.00" departDelay="0.63" arrival="477.00" arrivalLane="nt14_np11_0" arrivalPos="75.00" arrivalSpeed="8.39" duration="370.00" routeLength="947.77" waitingTime="184.00" waitingCount="13" stopTime="0.00" timeLoss="270.96" rerouteNo="0" devices="tripinfo_f_0_3.13" vType="type1" speedFactor="0.81" vaporized=""/>
    <tripinfo id="f_0_0.12" depart="164.00" departLane="np13_nt13_0" departPos="35.02" departSpeed="0.00" departDelay="0.37" arrival="478.00" arrivalLane="nt4_np5_0" arrivalPos="75.00" arrivalSpeed="21.80" duration="314.00" routeLength="1312.87" waitingTime="165.00" waitingCount="11" stopTime="0.00" timeLoss="233.71" rerouteNo="0" devices="tripinfo_f_0_0.12" vType="type1" speedFactor="1.14" vaporized=""/>
    <tripinfo id="f_0_3.14" depart="115.00" departLane="np3_nt3_0" departPos="9.46" departSpeed="0.00" departDelay="0.45" arrival="483.00" arrivalLane="nt14_np11_0" arrivalPos="75.00" arrivalSpeed="9.74" duration="368.00" routeLength="941.63" waitingTime="181.00" waitingCount="15" stopTime="0.00" timeLoss="288.87" rerouteNo="0" devices="tripinfo_f_0_3.14" vType="type1" speedFactor="1.01" vaporized=""/>
    <tripinfo id="f_0_3.15" depart="123.00" departLane="np3_nt3_0" departPos="0.00" departSpeed="0.00" departDelay="0.27" arrival="486.00" arrivalLane="nt14_np11_0" arrivalPos="75.00" arrivalSpeed="10.02" duration="363.00" routeLength="951.09" waitingTime="161.00" waitingCount="15" stopTime="0.00" timeLoss="274.93" rerouteNo="0" devices="tripinfo_f_0_3.15" vType="type1" speedFactor="0.91" vaporized=""/>
    <tripinfo id="f_0_3.16" depart="143.00" departLane="np3_nt3_0" departPos="0.00" departSpeed="0.00" departDelay="12.09" arrival="487.00" arrivalLane="nt14_np11_0" arrivalPos="75.00" arrivalSpeed="8.83" duration="344.00" routeLength="951.09" waitingTime="145.00" waitingCount="13" stopTime="0.00" timeLoss="264.47" rerouteNo="0" devices="tripinfo_f_0_3.16" vType="type1" speedFactor="1.00" vaporized=""/>
    <tripinfo id="f_0_3.17" depart="163.00" departLane="np3_nt3_0" departPos="0.00" departSpeed="0.00" departDelay="23.91" arrival="489.00" arrivalLane="nt14_np11_0" arrivalPos="75.00" arrivalSpeed="9.05" duration="326.00" routeLength="951.09" waitingTime="139.00" waitingCount="11" stopTime="0.00" timeLoss="244.09" rerouteNo="0" devices="tripinfo_f_0_3.17" vType="type1" speedFactor="0.98" vaporized=""/>
    <tripinfo id="f_0_3.18" depart="181.00" departLane="np3_nt3_0" departPos="0.00" departSpeed="0.00" departDelay="33.72" arrival="494.00" arrivalLane="nt14_np11_0" arrivalPos="75.00" arrivalSpeed="8.06" duration="313.00" routeLength="951.09" waitingTime="149.00" waitingCount="6" stopTime="0.00" timeLoss="213.38" rerouteNo="0" devices="tripinfo_f_0_3.18" vType="type1" speedFactor="0.80" vaporized=""/>
    <tripinfo id="f_0_3.23" depart="204.00" departLane="np3_nt3_0" departPos="42.06" departSpeed="0.00" departDelay="15.81" arrival="496.00" arrivalLane="nt14_np11_0" arrivalPos="75.00" arrivalSpeed="11.14" duration="292.00" routeLength="909.03" waitingTime="166.00" waitingCount="6" stopTime="0.00" timeLoss="219.55" rerouteNo="0" devices="tripinfo_f_0_3.23" vType="type1" speedFactor="1.05" vaporized=""/>
    <tripinfo id="f_0_2.16" depart="131.00" departLane="np2_nt2_0" departPos="22.95" departSpeed="0.00" departDelay="0.09" arrival="497.00" arrivalLane="nt15_np10_0" arrivalPos="75.00" arrivalSpeed="10.16" duration="366.00" routeLength="928.13" waitingTime="197.00" waitingCount="15" stopTime="0.00" timeLoss="289.07" rerouteNo="0" devices="tripinfo_f_0_2.16" vType="type1" speedFactor="1.00" vaporized=""/>
    <tripinfo id="f_0_0.13" depart="178.00" departLane="np13_nt13_0" departPos="54.20" departSpeed="0.00" departDelay="0.73" arrival="498.00" arrivalLane="nt4_np5_0" arrivalPos="75.00" arrivalSpeed="20.87" duration="320.00" routeLength="1293.69" waitingTime="176.00" waitingCount="11" stopTime="0.00" timeLoss="238.49" rerouteNo="0" devices="tripinfo_f_0_0.13" vType="type1" speedFactor="1.11" vaporized=""/>
    <tripinfo id="f_0_2.17" depart="140.00" departLane="np2_nt2_0" departPos="9.78" departSpeed="0.00" departDelay="0.91" arrival="500.00" arrivalLane="nt15_np10_0" arrivalPos="75.00" arrivalSpeed="9.79" duration="360.00" routeLength="941.30" waitingTime="190.00" waitingCount="13" stopTime="0.00" timeLoss="284.47" rerouteNo="0" devices="tripinfo_f_0_2.17" vType="type1" speedFactor="1.05" vaporized=""/>
    <tripinfo id="f_0_3.19" depart="185.00" departLane="np3_nt3_0" departPos="0.00" departSpeed="0.00" departDelay="29.54" arrival="502.00" arrivalLane="nt14_np11_0" arrivalPos="75.00" arrivalSpeed="10.60" duration="317.00" routeLength="951.09" waitingTime="166.00" waitingCount="8" stopTime="0.00" timeLoss="235.64" rerouteNo="0" devices="tripinfo_f_0_3.19" vType="type1" speedFactor="0.98" vaporized=""/>
    <tripinfo id="f_0_3.28" depart="350.00" departLane="np3_nt3_0" departPos="63.18" departSpeed="0.00" departDelay="120.90" arrival="504.00" arrivalLane="nt14_np11_0" arrivalPos="75.00" arrivalSpeed="11.53" duration="154.00" routeLength="887.91" waitingTime="34.00" waitingCount="6" stopTime="0.00" timeLoss="86.82" rerouteNo="0" devices="tripinfo_f_0_3.28" vType="type1" speedFactor="1.10" vaporized=""/>
    <tripinfo id="f_0_2.18" depart="148.00" departLane="np2_nt2_0" departPos="0.49" departSpeed="0.00" departDelay="0.72" arrival="512.00" arrivalLane="nt15_np10_0" arrivalPos="75.00" arrivalSpeed="11.20" duration="364.00" routeLength="950.59" waitingTime="187.00" waitingCount="11" stopTime="0.00" timeLoss="287.57" rerouteNo="0" devices="tripinfo_f_0_2.18" vType="type1" speedFactor="1.05" vaporized=""/>
    <tripinfo id="f_0_0.14" depart="191.00" departLane="np13_nt13_0" departPos="46.84" departSpeed="0.00" departDelay="0.10" arrival="513.00" arrivalLane="nt4_np5_0" arrivalPos="75.00" arrivalSpeed="19.95" duration="322.00" routeLength="1301.05" waitingTime="171.00" waitingCount="12" stopTime="0.00" timeLoss="239.34" rerouteNo="0" devices="tripinfo_f_0_0.14" vType="type1" speedFactor="1.10" vaporized=""/>
    <tripinfo id="f_0_0.15" depart="205.00" departLane="np13_nt13_0" departPos="26.52" departSpeed="0.00" departDelay="0.46" arrival="519.00" arrivalLane="nt4_np5_0" arrivalPos="75.00" arrivalSpeed="22.26" duration="314.00" routeLength="1321.37" waitingTime="154.00" waitingCount="14" stopTime="0.00" timeLoss="231.41" rerouteNo="0" devices="tripinfo_f_0_0.15" vType="type1" speedFactor="1.12" vaporized=""/>
    <tripinfo id="f_0_1.10" depart="137.00" departLane="np16_nt1_0" departPos="61.62" departSpeed="0.00" departDelay="0.64" arrival="528.00" arrivalLane="nt16_np8_0" arrivalPos="75.00" arrivalSpeed="19.83" duration="391.00" routeLength="1286.26" waitingTime="207.00" waitingCount="12" stopTime="0.00" timeLoss="304.12" rerouteNo="0" devices="tripinfo_f_0_1.10" vType="type1" speedFactor="1.04" vaporized=""/>
    <tripinfo id="f_0_2.19" depart="156.00" departLane="np2_nt2_0" departPos="49.30" departSpeed="0.00" departDelay="0.54" arrival="537.00" arrivalLane="nt15_np10_0" arrivalPos="75.00" arrivalSpeed="8.71" duration="381.00" routeLength="901.78" waitingTime="200.00" waitingCount="12" stopTime="0.00" timeLoss="304.79" rerouteNo="0" devices="tripinfo_f_0_2.19" vType="type1" speedFactor="1.00" vaporized=""/>
    <tripinfo id="f_0_3.20" depart="193.00" departLane="np3_nt3_0" departPos="0.00" departSpeed="0.00" departDelay="29.36" arrival="538.00" arrivalLane="nt14_np11_0" arrivalPos="75.00" arrivalSpeed="9.47" duration="345.00" routeLength="951.09" waitingTime="210.00" waitingCount="8" stopTime="0.00" timeLoss="260.99" rerouteNo="0" devices="tripinfo_f_0_3.20" vType="type1" speedFactor="0.96" vaporized=""/>
    <tripinfo id="f_0_3.21" depart="195.00" departLane="np3_nt3_0" departPos="0.00" departSpeed="0.00" departDelay="23.18" arrival="540.00" arrivalLane="nt14_np11_0" arrivalPos="75.00" arrivalSpeed="8.70" duration="345.00" routeLength="951.09" waitingTime="197.00" waitingCount="9" stopTime="0.00" timeLoss="258.98" rerouteNo="0" devices="tripinfo_f_0_3.21" vType="type1" speedFactor="0.93" vaporized=""/>