<?xml version="1.0" encoding="UTF-8"?>

<!-- generated on 2023-08-23 16:28:21 by Eclipse SUMO libsumo Version 1.18.0
<configuration xmlns:xsi="http://www.w3.org/2001/XMLSchema-instance" xsi:noNamespaceSchemaLocation="http://sumo.dlr.de/xsd/libsumoConfiguration.xsd">

    <input>
        <net-file value="/home/stefan/RESCO/./environments/arterial4x4/arterial4x4.net.xml"/>
        <route-files value="/home/stefan/RESCO/./environments/arterial4x4/arterial4x4_47.rou.xml"/>
    </input>

    <output>
        <tripinfo-output value="/home/stefan/results/IDDQN-tr0-arterial4x4-0-drq_norm-wait_norm/tripinfo_47.xml"/>
        <tripinfo-output.write-unfinished value="true"/>
    </output>

    <processing>
        <time-to-teleport value="-1"/>
    </processing>

    <report>
        <no-warnings value="True"/>
        <no-step-log value="True"/>
    </report>

    <random_number>
        <random value="true"/>
    </random_number>

</configuration>
-->

<tripinfos xmlns:xsi="http://www.w3.org/2001/XMLSchema-instance" xsi:noNamespaceSchemaLocation="http://sumo.dlr.de/xsd/tripinfo_file.xsd">
    <tripinfo id="f_0_2.0" depart="0.00" departLane="np2_nt2_0" departPos="10.51" departSpeed="0.00" departDelay="0.00" arrival="102.00" arrivalLane="nt15_np10_0" arrivalPos="75.00" arrivalSpeed="9.74" duration="102.00" routeLength="940.57" waitingTime="5.00" waitingCount="3" stopTime="0.00" timeLoss="25.76" rerouteNo="0" devices="tripinfo_f_0_2.0" vType="type1" speedFactor="1.04" vaporized=""/>
    <tripinfo id="f_0_3.0" depart="0.00" departLane="np3_nt3_0" departPos="51.73" departSpeed="0.00" departDelay="0.00" arrival="112.00" arrivalLane="nt14_np11_0" arrivalPos="75.00" arrivalSpeed="9.98" duration="112.00" routeLength="899.36" waitingTime="15.00" waitingCount="3" stopTime="0.00" timeLoss="39.34" rerouteNo="0" devices="tripinfo_f_0_3.0" vType="type1" speedFactor="1.03" vaporized=""/>
    <tripinfo id="f_0_3.1" depart="9.00" departLane="np3_nt3_0" departPos="9.19" departSpeed="0.00" departDelay="0.82" arrival="122.00" arrivalLane="nt14_np11_0" arrivalPos="75.00" arrivalSpeed="10.14" duration="113.00" routeLength="941.90" waitingTime="18.00" waitingCount="2" stopTime="0.00" timeLoss="37.20" rerouteNo="0" devices="tripinfo_f_0_3.1" vType="type1" speedFactor="1.05" vaporized=""/>
    <tripinfo id="f_0_0.0" depart="0.00" departLane="np13_nt13_0" departPos="44.59" departSpeed="0.00" departDelay="0.00" arrival="136.00" arrivalLane="nt4_np5_0" arrivalPos="75.00" arrivalSpeed="18.47" duration="136.00" routeLength="1303.30" waitingTime="17.00" waitingCount="5" stopTime="0.00" timeLoss="46.96" rerouteNo="0" devices="tripinfo_f_0_0.0" vType="type1" speedFactor="1.02" vaporized=""/>
    <tripinfo id="f_0_0.1" depart="14.00" departLane="np13_nt13_0" departPos="37.95" departSpeed="0.00" departDelay="0.36" arrival="163.00" arrivalLane="nt4_np5_0" arrivalPos="75.00" arrivalSpeed="19.93" duration="149.00" routeLength="1309.94" waitingTime="23.00" waitingCount="6" stopTime="0.00" timeLoss="60.59" rerouteNo="0" devices="tripinfo_f_0_0.1" vType="type1" speedFactor="1.03" vaporized=""/>
    <tripinfo id="f_0_0.2" depart="28.00" departLane="np13_nt13_0" departPos="63.48" departSpeed="0.00" departDelay="0.73" arrival="171.00" arrivalLane="nt4_np5_0" arrivalPos="75.00" arrivalSpeed="16.90" duration="143.00" routeLength="1284.41" waitingTime="22.00" waitingCount="4" stopTime="0.00" timeLoss="49.08" rerouteNo="0" devices="tripinfo_f_0_0.2" vType="type1" speedFactor="0.96" vaporized=""/>
    <tripinfo id="f_0_0.3" depart="41.00" departLane="np13_nt13_0" departPos="40.82" departSpeed="0.00" departDelay="0.09" arrival="173.00" arrivalLane="nt4_np5_0" arrivalPos="75.00" arrivalSpeed="19.36" duration="132.00" routeLength="1307.07" waitingTime="17.00" waitingCount="3" stopTime="0.00" timeLoss="40.57" rerouteNo="0" devices="tripinfo_f_0_0.3" vType="type1" speedFactor="1.00" vaporized=""/>
    <tripinfo id="f_0_3.2" depart="17.00" departLane="np3_nt3_0" departPos="4.82" departSpeed="0.00" departDelay="0.64" arrival="182.00" arrivalLane="nt14_np11_0" arrivalPos="75.00" arrivalSpeed="10.42" duration="165.00" routeLength="946.27" waitingTime="57.00" waitingCount="5" stopTime="0.00" timeLoss="82.09" rerouteNo="0" devices="tripinfo_f_0_3.2" vType="type1" speedFactor="0.96" vaporized=""/>
    <tripinfo id="f_0_3.3" depart="25.00" departLane="np3_nt3_0" departPos="52.18" departSpeed="0.00" departDelay="0.45" arrival="185.00" arrivalLane="nt14_np11_0" arrivalPos="75.00" arrivalSpeed="9.19" duration="160.00" routeLength="898.91" waitingTime="49.00" waitingCount="6" stopTime="0.00" timeLoss="78.38" rerouteNo="0" devices="tripinfo_f_0_3.3" vType="type1" speedFactor="0.92" vaporized=""/>
    <tripinfo id="f_0_2.1" depart="9.00" departLane="np2_nt2_0" departPos="41.90" departSpeed="0.00" departDelay="0.82" arrival="187.00" arrivalLane="nt15_np10_0" arrivalPos="75.00" arrivalSpeed="9.48" duration="178.00" routeLength="909.18" waitingTime="78.00" waitingCount="3" stopTime="0.00" timeLoss="101.15" rerouteNo="0" devices="tripinfo_f_0_2.1" vType="type1" speedFactor="0.99" vaporized=""/>
    <tripinfo id="f_0_3.4" depart="33.00" departLane="np3_nt3_0" departPos="14.55" departSpeed="0.00" departDelay="0.27" arrival="188.00" arrivalLane="nt14_np11_0" arrivalPos="75.00" arrivalSpeed="7.56" duration="155.00" routeLength="936.54" waitingTime="27.00" waitingCount="4" stopTime="0.00" timeLoss="65.32" rerouteNo="0" devices="tripinfo_f_0_3.4" vType="type1" speedFactor="0.88" vaporized=""/>
    <tripinfo id="f_0_2.2" depart="17.00" departLane="np2_nt2_0" departPos="28.09" departSpeed="0.00" departDelay="0.64" arrival="190.00" arrivalLane="nt15_np10_0" arrivalPos="75.00" arrivalSpeed="8.07" duration="173.00" routeLength="922.99" waitingTime="69.00" waitingCount="3" stopTime="0.00" timeLoss="90.66" rerouteNo="0" devices="tripinfo_f_0_2.2" vType="type1" speedFactor="0.94" vaporized=""/>
    <tripinfo id="f_0_3.5" depart="41.00" departLane="np3_nt3_0" departPos="12.85" departSpeed="0.00" departDelay="0.09" arrival="190.00" arrivalLane="nt14_np11_0" arrivalPos="75.00" arrivalSpeed="8.27" duration="149.00" routeLength="938.24" waitingTime="31.00" waitingCount="4" stopTime="0.00" timeLoss="66.22" rerouteNo="0" devices="tripinfo_f_0_3.5" vType="type1" speedFactor="0.96" vaporized=""/>
    <tripinfo id="f_0_2.3" depart="25.00" departLane="np2_nt2_0" departPos="4.89" departSpeed="0.00" departDelay="0.45" arrival="197.00" arrivalLane="nt15_np10_0" arrivalPos="75.00" arrivalSpeed="8.92" duration="172.00" routeLength="946.19" waitingTime="63.00" waitingCount="5" stopTime="0.00" timeLoss="92.00" rerouteNo="0" devices="tripinfo_f_0_2.3" vType="type1" speedFactor="0.99" vaporized=""/>
    <tripinfo id="f_0_0.4" depart="55.00" departLane="np13_nt13_0" departPos="33.14" departSpeed="0.00" departDelay="0.46" arrival="198.00" arrivalLane="nt4_np5_0" arrivalPos="75.00" arrivalSpeed="16.73" duration="143.00" routeLength="1314.75" waitingTime="10.00" waitingCount="2" stopTime="0.00" timeLoss="37.40" rerouteNo="0" devices="tripinfo_f_0_0.4" vType="type1" speedFactor="0.87" vaporized=""/>
    <tripinfo id="f_0_3.6" depart="50.00" departLane="np3_nt3_0" departPos="9.14" departSpeed="0.00" departDelay="0.91" arrival="202.00" arrivalLane="nt14_np11_0" arrivalPos="75.00" arrivalSpeed="9.50" duration="152.00" routeLength="941.95" waitingTime="36.00" waitingCount="5" stopTime="0.00" timeLoss="75.34" rerouteNo="0" devices="tripinfo_f_0_3.6" vType="type1" speedFactor="1.04" vaporized=""/>
    <tripinfo id="f_0_2.4" depart="33.00" departLane="np2_nt2_0" departPos="35.35" departSpeed="0.00" departDelay="0.27" arrival="206.00" arrivalLane="nt15_np10_0" arrivalPos="75.00" arrivalSpeed="9.38" duration="173.00" routeLength="915.73" waitingTime="40.00" waitingCount="5" stopTime="0.00" timeLoss="92.61" rerouteNo="0" devices="tripinfo_f_0_2.4" vType="type1" speedFactor="0.95" vaporized=""/>
    <tripinfo id="f_0_3.7" depart="58.00" departLane="np3_nt3_0" departPos="33.12" departSpeed="0.00" departDelay="0.73" arrival="206.00" arrivalLane="nt14_np11_0" arrivalPos="75.00" arrivalSpeed="9.29" duration="148.00" routeLength="917.97" waitingTime="30.00" waitingCount="4" stopTime="0.00" timeLoss="58.38" rerouteNo="0" devices="tripinfo_f_0_3.7" vType="type1" speedFactor="0.86" vaporized=""/>
    <tripinfo id="f_0_2.5" depart="41.00" departLane="np2_nt2_0" departPos="16.31" departSpeed="0.00" departDelay="0.09" arrival="208.00" arrivalLane="nt15_np10_0" arrivalPos="75.00" arrivalSpeed="10.98" duration="167.00" routeLength="934.77" waitingTime="34.00" waitingCount="4" stopTime="0.00" timeLoss="91.12" rerouteNo="0" devices="tripinfo_f_0_2.5" vType="type1" speedFactor="1.03" vaporized=""/>
    <tripinfo id="f_0_3.8" depart="66.00" departLane="np3_nt3_0" departPos="2.57" departSpeed="0.00" departDelay="0.54" arrival="208.00" arrivalLane="nt14_np11_0" arrivalPos="75.00" arrivalSpeed="9.67" duration="142.00" routeLength="948.52" waitingTime="35.00" waitingCount="4" stopTime="0.00" timeLoss="65.40" rerouteNo="0" devices="tripinfo_f_0_3.8" vType="type1" speedFactor="1.04" vaporized=""/>
    <tripinfo id="f_0_0.5" depart="69.00" departLane="np13_nt13_0" departPos="24.49" departSpeed="0.00" departDelay="0.82" arrival="208.00" arrivalLane="nt4_np5_0" arrivalPos="75.00" arrivalSpeed="22.44" duration="139.00" routeLength="1323.40" waitingTime="27.00" waitingCount="4" stopTime="0.00" timeLoss="59.65" rerouteNo="0" devices="tripinfo_f_0_0.5" vType="type1" speedFactor="1.15" vaporized=""/>
    <tripinfo id="f_0_3.9" depart="74.00" departLane="np3_nt3_0" departPos="8.93" departSpeed="0.00" departDelay="0.36" arrival="210.00" arrivalLane="nt14_np11_0" arrivalPos="75.00" arrivalSpeed="11.02" duration="136.00" routeLength="942.16" waitingTime="26.00" waitingCount="3" stopTime="0.00" timeLoss="68.42" rerouteNo="0" devices="tripinfo_f_0_3.9" vType="type1" speedFactor="1.18" vaporized=""/>
    <tripinfo id="f_0_3.10" depart="82.00" departLane="np3_nt3_0" departPos="42.94" departSpeed="0.00" departDelay="0.18" arrival="219.00" arrivalLane="nt14_np11_0" arrivalPos="75.00" arrivalSpeed="8.32" duration="137.00" routeLength="908.15" waitingTime="31.00" waitingCount="4" stopTime="0.00" timeLoss="59.79" rerouteNo="0" devices="tripinfo_f_0_3.10" vType="type1" speedFactor="0.98" vaporized=""/>
    <tripinfo id="f_0_1.0" depart="0.00" departLane="np16_nt1_0" departPos="62.21" departSpeed="0.00" departDelay="0.00" arrival="224.00" arrivalLane="nt16_np8_0" arrivalPos="75.00" arrivalSpeed="18.40" duration="224.00" routeLength="1285.67" waitingTime="87.00" waitingCount="7" stopTime="0.00" timeLoss="129.03" rerouteNo="0" devices="tripinfo_f_0_1.0" vType="type1" speedFactor="0.95" vaporized=""/>
    <tripinfo id="f_0_1.1" depart="14.00" departLane="np16_nt1_0" departPos="16.04" departSpeed="0.00" departDelay="0.36" arrival="225.00" arrivalLane="nt16_np8_0" arrivalPos="75.00" arrivalSpeed="19.54" duration="211.00" routeLength="1331.84" waitingTime="66.00" waitingCount="7" stopTime="0.00" timeLoss="121.75" rerouteNo="0" devices="tripinfo_f_0_1.1" vType="type1" speedFactor="1.04" vaporized=""/>
    <tripinfo id="f_0_2.6" depart="50.00" departLane="np2_nt2_0" departPos="17.76" departSpeed="0.00" departDelay="0.91" arrival="226.00" arrivalLane="nt15_np10_0" arrivalPos="75.00" arrivalSpeed="11.44" duration="176.00" routeLength="933.32" waitingTime="42.00" waitingCount="5" stopTime="0.00" timeLoss="109.27" rerouteNo="0" devices="tripinfo_f_0_2.6" vType="type1" speedFactor="1.17" vaporized=""/>
    <tripinfo id="f_0_0.6" depart="82.00" departLane="np13_nt13_0" departPos="29.33" departSpeed="0.00" departDelay="0.18" arrival="230.00" arrivalLane="nt4_np5_0" arrivalPos="75.00" arrivalSpeed="20.76" duration="148.00" routeLength="1318.56" waitingTime="31.00" waitingCount="4" stopTime="0.00" timeLoss="61.56" rerouteNo="0" devices="tripinfo_f_0_0.6" vType="type1" speedFactor="1.07" vaporized=""/>
    <tripinfo id="f_0_3.11" depart="90.00" departLane="np3_nt3_0" departPos="29.55" departSpeed="0.00" departDelay="0.00" arrival="235.00" arrivalLane="nt14_np11_0" arrivalPos="75.00" arrivalSpeed="6.04" duration="145.00" routeLength="921.54" waitingTime="13.00" waitingCount="3" stopTime="0.00" timeLoss="39.77" rerouteNo="0" devices="tripinfo_f_0_3.11" vType="type1" speedFactor="0.74" vaporized=""/>
    <tripinfo id="f_0_3.12" depart="99.00" departLane="np3_nt3_0" departPos="19.62" departSpeed="0.00" departDelay="0.82" arrival="236.00" arrivalLane="nt14_np11_0" arrivalPos="75.00" arrivalSpeed="10.64" duration="137.00" routeLength="931.47" waitingTime="1.00" waitingCount="1" stopTime="0.00" timeLoss="64.19" rerouteNo="0" devices="tripinfo_f_0_3.12" vType="type1" speedFactor="1.07" vaporized=""/>
    <tripinfo id="f_0_1.2" depart="28.00" departLane="np16_nt1_0" departPos="45.67" departSpeed="0.00" departDelay="0.73" arrival="237.00" arrivalLane="nt16_np8_0" arrivalPos="75.00" arrivalSpeed="19.15" duration="209.00" routeLength="1302.21" waitingTime="47.00" waitingCount="7" stopTime="0.00" timeLoss="117.73" rerouteNo="0" devices="tripinfo_f_0_1.2" vType="type1" speedFactor="1.00" vaporized=""/>
    <tripinfo id="f_0_1.3" depart="41.00" departLane="np16_nt1_0" departPos="54.81" departSpeed="0.00" departDelay="0.09" arrival="248.00" arrivalLane="nt16_np8_0" arrivalPos="75.00" arrivalSpeed="19.29" duration="207.00" routeLength="1293.07" waitingTime="33.00" waitingCount="10" stopTime="0.00" timeLoss="115.23" rerouteNo="0" devices="tripinfo_f_0_1.3" vType="type1" speedFactor="0.98" vaporized=""/>
    <tripinfo id="f_0_2.7" depart="58.00" departLane="np2_nt2_0" departPos="4.68" departSpeed="0.00" departDelay="0.73" arrival="270.00" arrivalLane="nt15_np10_0" arrivalPos="75.00" arrivalSpeed="7.78" duration="212.00" routeLength="946.40" waitingTime="55.00" waitingCount="7" stopTime="0.00" timeLoss="111.41" rerouteNo="0" devices="tripinfo_f_0_2.7" vType="type1" speedFactor="0.79" vaporized=""/>
    <tripinfo id="f_0_2.8" depart="66.00" departLane="np2_nt2_0" departPos="14.20" departSpeed="0.00" departDelay="0.54" arrival="272.00" arrivalLane="nt15_np10_0" arrivalPos="75.00" arrivalSpeed="7.39" duration="206.00" routeLength="936.88" waitingTime="62.00" waitingCount="6" stopTime="0.00" timeLoss="112.19" rerouteNo="0" devices="tripinfo_f_0_2.8" vType="type1" speedFactor="0.84" vaporized=""/>
    <tripinfo id="f_0_2.9" depart="74.00" departLane="np2_nt2_0" departPos="32.87" departSpeed="0.00" departDelay="0.36" arrival="278.00" arrivalLane="nt15_np10_0" arrivalPos="75.00" arrivalSpeed="9.60" duration="204.00" routeLength="918.21" waitingTime="54.00" waitingCount="6" stopTime="0.00" timeLoss="122.79" rerouteNo="0" devices="tripinfo_f_0_2.9" vType="type1" speedFactor="0.95" vaporized=""/>
    <tripinfo id="f_0_2.10" depart="82.00" departLane="np2_nt2_0" departPos="23.27" departSpeed="0.00" departDelay="0.18" arrival="282.00" arrivalLane="nt15_np10_0" arrivalPos="75.00" arrivalSpeed="8.19" duration="200.00" routeLength="927.81" waitingTime="67.00" waitingCount="5" stopTime="0.00" timeLoss="110.87" rerouteNo="0" devices="tripinfo_f_0_2.10" vType="type1" speedFactor="0.88" vaporized=""/>
    <tripinfo id="f_0_2.11" depart="90.00" departLane="np2_nt2_0" departPos="24.42" departSpeed="0.00" departDelay="0.00" arrival="285.00" arrivalLane="nt15_np10_0" arrivalPos="75.00" arrivalSpeed="8.92" duration="195.00" routeLength="926.66" waitingTime="58.00" waitingCount="6" stopTime="0.00" timeLoss="111.51" rerouteNo="0" devices="tripinfo_f_0_2.11" vType="type1" speedFactor="0.93" vaporized=""/>
    <tripinfo id="f_0_2.12" depart="99.00" departLane="np2_nt2_0" departPos="14.57" departSpeed="0.00" departDelay="0.82" arrival="289.00" arrivalLane="nt15_np10_0" arrivalPos="75.00" arrivalSpeed="9.47" duration="190.00" routeLength="936.51" waitingTime="54.00" waitingCount="7" stopTime="0.00" timeLoss="109.30" rerouteNo="0" devices="tripinfo_f_0_2.12" vType="type1" speedFactor="0.98" vaporized=""/>
    <tripinfo id="f_0_1.4" depart="55.00" departLane="np16_nt1_0" departPos="17.53" departSpeed="0.00" departDelay="0.46" arrival="293.00" arrivalLane="nt16_np8_0" arrivalPos="75.00" arrivalSpeed="18.29" duration="238.00" routeLength="1330.35" waitingTime="76.00" waitingCount="8" stopTime="0.00" timeLoss="141.49" rerouteNo="0" devices="tripinfo_f_0_1.4" vType="type1" speedFactor="0.96" vaporized=""/>
    <tripinfo id="f_0_0.7" depart="96.00" departLane="np13_nt13_0" departPos="55.31" departSpeed="0.00" departDelay="0.55" arrival="293.00" arrivalLane="nt4_np5_0" arrivalPos="75.00" arrivalSpeed="19.75" duration="197.00" routeLength="1292.58" waitingTime="77.00" waitingCount="5" stopTime="0.00" timeLoss="110.61" rerouteNo="0" devices="tripinfo_f_0_0.7" vType="type1" speedFactor="1.05" vaporized=""/>
    <tripinfo id="f_0_0.8" depart="110.00" departLane="np13_nt13_0" departPos="1.47" departSpeed="0.00" departDelay="0.91" arrival="294.00" arrivalLane="nt4_np5_0" arrivalPos="75.00" arrivalSpeed="24.12" duration="184.00" routeLength="1346.42" waitingTime="56.00" waitingCount="5" stopTime="0.00" timeLoss="110.13" rerouteNo="0" devices="tripinfo_f_0_0.8" vType="type1" speedFactor="1.26" vaporized=""/>
    <tripinfo id="f_0_1.5" depart="69.00" departLane="np16_nt1_0" departPos="0.22" departSpeed="0.00" departDelay="0.82" arrival="295.00" arrivalLane="nt16_np8_0" arrivalPos="75.00" arrivalSpeed="19.01" duration="226.00" routeLength="1347.66" waitingTime="70.00" waitingCount="7" stopTime="0.00" timeLoss="131.23" rerouteNo="0" devices="tripinfo_f_0_1.5" vType="type1" speedFactor="0.99" vaporized=""/>
    <tripinfo id="f_0_3.13" depart="107.00" departLane="np3_nt3_0" departPos="30.28" departSpeed="0.00" departDelay="0.63" arrival="304.00" arrivalLane="nt14_np11_0" arrivalPos="75.00" arrivalSpeed="7.60" duration="197.00" routeLength="920.81" waitingTime="67.00" waitingCount="2" stopTime="0.00" timeLoss="108.58" rerouteNo="0" devices="tripinfo_f_0_3.13" vType="type1" speedFactor="0.88" vaporized=""/>
    <tripinfo id="f_0_0.9" depart="123.00" departLane="np13_nt13_0" departPos="23.19" departSpeed="0.00" departDelay="0.28" arrival="304.00" arrivalLane="nt4_np5_0" arrivalPos="75.00" arrivalSpeed="18.66" duration="181.00" routeLength="1324.70" waitingTime="44.00" waitingCount="6" stopTime="0.00" timeLoss="91.85" rerouteNo="0" devices="tripinfo_f_0_0.9" vType="type1" speedFactor="1.03" vaporized=""/>
    <tripinfo id="f_0_2.13" depart="107.00" departLane="np2_nt2_0" departPos="55.21" departSpeed="0.00" departDelay="0.63" arrival="305.00" arrivalLane="nt15_np10_0" arrivalPos="75.00" arrivalSpeed="8.15" duration="198.00" routeLength="895.87" waitingTime="54.00" waitingCount="9" stopTime="0.00" timeLoss="111.77" rerouteNo="0" devices="tripinfo_f_0_2.13" vType="type1" speedFactor="0.87" vaporized=""/>
    <tripinfo id="f_0_0.10" depart="137.00" departLane="np13_nt13_0" departPos="17.60" departSpeed="0.00" departDelay="0.64" arrival="305.00" arrivalLane="nt4_np5_0" arrivalPos="75.00" arrivalSpeed="20.44" duration="168.00" routeLength="1330.29" waitingTime="26.00" waitingCount="6" stopTime="0.00" timeLoss="80.52" rerouteNo="0" devices="tripinfo_f_0_0.10" vType="type1" speedFactor="1.05" vaporized=""/>
    <tripinfo id="f_0_3.14" depart="115.00" departLane="np3_nt3_0" departPos="20.08" departSpeed="0.00" departDelay="0.45" arrival="306.00" arrivalLane="nt14_np11_0" arrivalPos="75.00" arrivalSpeed="10.40" duration="191.00" routeLength="931.01" waitingTime="86.00" waitingCount="4" stopTime="0.00" timeLoss="114.16" rerouteNo="0" devices="tripinfo_f_0_3.14" vType="type1" speedFactor="1.03" vaporized=""/>
    <tripinfo id="f_0_1.6" depart="82.00" departLane="np16_nt1_0" departPos="49.23" departSpeed="0.00" departDelay="0.18" arrival="308.00" arrivalLane="nt16_np8_0" arrivalPos="75.00" arrivalSpeed="20.46" duration="226.00" routeLength="1298.65" waitingTime="73.00" waitingCount="9" stopTime="0.00" timeLoss="138.23" rerouteNo="0" devices="tripinfo_f_0_1.6" vType="type1" speedFactor="1.03" vaporized=""/>
    <tripinfo id="f_0_3.15" depart="123.00" departLane="np3_nt3_0" departPos="54.67" departSpeed="0.00" departDelay="0.27" arrival="308.00" arrivalLane="nt14_np11_0" arrivalPos="75.00" arrivalSpeed="8.97" duration="185.00" routeLength="896.42" waitingTime="72.00" waitingCount="5" stopTime="0.00" timeLoss="106.20" rerouteNo="0" devices="tripinfo_f_0_3.15" vType="type1" speedFactor="0.95" vaporized=""/>
    <tripinfo id="f_0_3.16" depart="131.00" departLane="np3_nt3_0" departPos="33.50" departSpeed="0.00" departDelay="0.09" arrival="310.00" arrivalLane="nt14_np11_0" arrivalPos="75.00" arrivalSpeed="11.77" duration="179.00" routeLength="917.59" waitingTime="62.00" waitingCount="5" stopTime="0.00" timeLoss="114.09" rerouteNo="0" devices="tripinfo_f_0_3.16" vType="type1" speedFactor="1.19" vaporized=""/>
    <tripinfo id="f_0_3.17" depart="140.00" departLane="np3_nt3_0" departPos="4.63" departSpeed="0.00" departDelay="0.91" arrival="312.00" arrivalLane="nt14_np11_0" arrivalPos="75.00" arrivalSpeed="10.33" duration="172.00" routeLength="946.46" waitingTime="52.00" waitingCount="3" stopTime="0.00" timeLoss="95.53" rerouteNo="0" devices="tripinfo_f_0_3.17" vType="type1" speedFactor="1.04" vaporized=""/>
    <tripinfo id="f_0_3.18" depart="148.00" departLane="np3_nt3_0" departPos="34.08" departSpeed="0.00" departDelay="0.72" arrival="314.00" arrivalLane="nt14_np11_0" arrivalPos="75.00" arrivalSpeed="10.99" duration="166.00" routeLength="917.01" waitingTime="58.00" waitingCount="4" stopTime="0.00" timeLoss="93.86" rerouteNo="0" devices="tripinfo_f_0_3.18" vType="type1" speedFactor="1.07" vaporized=""/>
    <tripinfo id="f_0_3.19" depart="156.00" departLane="np3_nt3_0" departPos="8.65" departSpeed="0.00" departDelay="0.54" arrival="316.00" arrivalLane="nt14_np11_0" arrivalPos="75.00" arrivalSpeed="9.97" duration="160.00" routeLength="942.44" waitingTime="48.00" waitingCount="3" stopTime="0.00" timeLoss="75.18" rerouteNo="0" devices="tripinfo_f_0_3.19" vType="type1" speedFactor="0.93" vaporized=""/>
    <tripinfo id="f_0_2.14" depart="115.00" departLane="np2_nt2_0" departPos="12.17" departSpeed="0.00" departDelay="0.45" arrival="317.00" arrivalLane="nt15_np10_0" arrivalPos="75.00" arrivalSpeed="11.52" duration="202.00" routeLength="938.91" waitingTime="41.00" waitingCount="7" stopTime="0.00" timeLoss="128.13" rerouteNo="0" devices="tripinfo_f_0_2.14" vType="type1" speedFactor="1.07" vaporized=""/>
    <tripinfo id="f_0_0.11" depart="150.00" departLane="np13_nt13_0" departPos="58.47" departSpeed="0.00" departDelay="0.00" arrival="319.00" arrivalLane="nt4_np5_0" arrivalPos="75.00" arrivalSpeed="16.26" duration="169.00" routeLength="1289.42" waitingTime="30.00" waitingCount="3" stopTime="0.00" timeLoss="60.88" rerouteNo="0" devices="tripinfo_f_0_0.11" vType="type1" speedFactor="0.84" vaporized=""/>
    <tripinfo id="f_0_3.20" depart="164.00" departLane="np3_nt3_0" departPos="29.56" departSpeed="0.00" departDelay="0.36" arrival="319.00" arrivalLane="nt14_np11_0" arrivalPos="75.00" arrivalSpeed="9.59" duration="155.00" routeLength="921.53" waitingTime="38.00" waitingCount="5" stopTime="0.00" timeLoss="67.95" rerouteNo="0" devices="tripinfo_f_0_3.20" vType="type1" speedFactor="0.90" vaporized=""/>
    <tripinfo id="f_0_0.12" depart="164.00" departLane="np13_nt13_0" departPos="51.27" departSpeed="0.00" departDelay="0.37" arrival="320.00" arrivalLane="nt4_np5_0" arrivalPos="75.00" arrivalSpeed="18.38" duration="156.00" routeLength="1296.62" waitingTime="22.00" waitingCount="3" stopTime="0.00" timeLoss="80.48" rerouteNo="0" devices="tripinfo_f_0_0.12" vType="type1" speedFactor="1.20" vaporized=""/>
    <tripinfo id="f_0_3.21" depart="172.00" departLane="np3_nt3_0" departPos="27.74" departSpeed="0.00" departDelay="0.18" arrival="320.00" arrivalLane="nt14_np11_0" arrivalPos="75.00" arrivalSpeed="10.73" duration="148.00" routeLength="923.35" waitingTime="32.00" waitingCount="6" stopTime="0.00" timeLoss="76.26" rerouteNo="0" devices="tripinfo_f_0_3.21" vType="type1" speedFactor="1.07" vaporized=""/>
    <tripinfo id="f_0_0.13" depart="178.00" departLane="np13_nt13_0" departPos="17.81" departSpeed="0.00" departDelay="0.73" arrival="322.00" arrivalLane="nt4_np5_0" arrivalPos="75.00" arrivalSpeed="18.02" duration="144.00" routeLength="1330.08" waitingTime="12.00" waitingCount="3" stopTime="0.00" timeLoss="53.48" rerouteNo="0" devices="tripinfo_f_0_0.13" vType="type1" speedFactor="1.02" vaporized=""/>
    <tripinfo id="f_0_3.22" depart="180.00" departLane="np3_nt3_0" departPos="29.91" departSpeed="0.00" departDelay="0.00" arrival="323.00" arrivalLane="nt14_np11_0" arrivalPos="75.00" arrivalSpeed="10.03" duration="143.00" routeLength="921.18" waitingTime="24.00" waitingCount="5" stopTime="0.00" timeLoss="57.99" rerouteNo="0" devices="tripinfo_f_0_3.22" vType="type1" speedFactor="0.92" vaporized=""/>
    <tripinfo id="f_0_3.23" depart="189.00" departLane="np3_nt3_0" departPos="7.07" departSpeed="0.00" departDelay="0.81" arrival="325.00" arrivalLane="nt14_np11_0" arrivalPos="75.00" arrivalSpeed="9.60" duration="136.00" routeLength="944.02" waitingTime="19.00" waitingCount="4" stopTime="0.00" timeLoss="56.12" rerouteNo="0" devices="tripinfo_f_0_3.23" vType="type1" speedFactor="1.00" vaporized=""/>
    <tripinfo id="f_0_1.7" depart="96.00" departLane="np16_nt1_0" departPos="37.68" departSpeed="0.00" departDelay="0.55" arrival="334.00" arrivalLane="nt16_np8_0" arrivalPos="75.00" arrivalSpeed="17.45" duration="238.00" routeLength="1310.20" waitingTime="58.00" waitingCount="10" stopTime="0.00" timeLoss="142.96" rerouteNo="0" devices="tripinfo_f_0_1.7" vType="type1" speedFactor="0.97" vaporized=""/>
    <tripinfo id="f_0_1.8" depart="110.00" departLane="np16_nt1_0" departPos="56.37" departSpeed="0.00" departDelay="0.91" arrival="335.00" arrivalLane="nt16_np8_0" arrivalPos="75.00" arrivalSpeed="19.75" duration="225.00" routeLength="1291.51" waitingTime="52.00" waitingCount="10" stopTime="0.00" timeLoss="151.96" rerouteNo="0" devices="tripinfo_f_0_1.8" vType="type1" speedFactor="1.23" vaporized=""/>
    <tripinfo id="f_0_3.24" depart="197.00" departLane="np3_nt3_0" departPos="0.93" departSpeed="0.00" departDelay="0.63" arrival="338.00" arrivalLane="nt14_np11_0" arrivalPos="75.00" arrivalSpeed="10.10" duration="141.00" routeLength="950.16" waitingTime="29.00" waitingCount="4" stopTime="0.00" timeLoss="59.52" rerouteNo="0" devices="tripinfo_f_0_3.24" vType="type1" speedFactor="0.98" vaporized=""/>
    <tripinfo id="f_0_3.25" depart="205.00" departLane="np3_nt3_0" departPos="4.78" departSpeed="0.00" departDelay="0.45" arrival="340.00" arrivalLane="nt14_np11_0" arrivalPos="75.00" arrivalSpeed="11.33" duration="135.00" routeLength="946.31" waitingTime="23.00" waitingCount="3" stopTime="0.00" timeLoss="64.11" rerouteNo="0" devices="tripinfo_f_0_3.25" vType="type1" speedFactor="1.12" vaporized=""/>
    <tripinfo id="f_0_0.14" depart="191.00" departLane="np13_nt13_0" departPos="63.03" departSpeed="0.00" departDelay="0.10" arrival="344.00" arrivalLane="nt4_np5_0" arrivalPos="75.00" arrivalSpeed="20.28" duration="153.00" routeLength="1284.86" waitingTime="35.00" waitingCount="3" stopTime="0.00" timeLoss="70.62" rerouteNo="0" devices="tripinfo_f_0_0.14" vType="type1" speedFactor="1.09" vaporized=""/>
    <tripinfo id="f_0_3.26" depart="213.00" departLane="np3_nt3_0" departPos="21.20" departSpeed="0.00" departDelay="0.27" arrival="344.00" arrivalLane="nt14_np11_0" arrivalPos="75.00" arrivalSpeed="11.39" duration="131.00" routeLength="929.89" waitingTime="25.00" waitingCount="4" stopTime="0.00" timeLoss="63.21" rerouteNo="0" devices="tripinfo_f_0_3.26" vType="type1" speedFactor="1.16" vaporized=""/>
    <tripinfo id="f_0_2.15" depart="123.00" departLane="np2_nt2_0" departPos="54.40" departSpeed="0.00" departDelay="0.27" arrival="357.00" arrivalLane="nt15_np10_0" arrivalPos="75.00" arrivalSpeed="11.70" duration="234.00" routeLength="896.68" waitingTime="70.00" waitingCount="8" stopTime="0.00" timeLoss="164.38" rerouteNo="0" devices="tripinfo_f_0_2.15" vType="type1" speedFactor="1.08" vaporized=""/>
    <tripinfo id="f_0_2.16" depart="131.00" departLane="np2_nt2_0" departPos="21.79" departSpeed="0.00" departDelay="0.09" arrival="359.00" arrivalLane="nt15_np10_0" arrivalPos="75.00" arrivalSpeed="9.96" duration="228.00" routeLength="929.29" waitingTime="62.00" waitingCount="7" stopTime="0.00" timeLoss="154.06" rerouteNo="0" devices="tripinfo_f_0_2.16" vType="type1" speedFactor="1.06" vaporized=""/>
    <tripinfo id="f_0_2.17" depart="140.00" departLane="np2_nt2_0" departPos="51.60" departSpeed="0.00" departDelay="0.91" arrival="367.00" arrivalLane="nt15_np10_0" arrivalPos="75.00" arrivalSpeed="10.54" duration="227.00" routeLength="899.48" waitingTime="58.00" waitingCount="8" stopTime="0.00" timeLoss="160.75" rerouteNo="0" devices="tripinfo_f_0_2.17" vType="type1" speedFactor="1.14" vaporized=""/>
    <tripinfo id="f_0_2.18" depart="148.00" departLane="np2_nt2_0" departPos="16.07" departSpeed="0.00" departDelay="0.72" arrival="370.00" arrivalLane="nt15_np10_0" arrivalPos="75.00" arrivalSpeed="9.55" duration="222.00" routeLength="935.01" waitingTime="52.00" waitingCount="7" stopTime="0.00" timeLoss="148.66" rerouteNo="0" devices="tripinfo_f_0_2.18" vType="type1" speedFactor="1.08" vaporized=""/>
    <tripinfo id="f_0_2.19" depart="156.00" departLane="np2_nt2_0" departPos="46.42" departSpeed="0.00" departDelay="0.54" arrival="374.00" arrivalLane="nt15_np10_0" arrivalPos="75.00" arrivalSpeed="11.09" duration="218.00" routeLength="904.66" waitingTime="54.00" waitingCount="7" stopTime="0.00" timeLoss="147.93" rerouteNo="0" devices="tripinfo_f_0_2.19" vType="type1" speedFactor="1.09" vaporized=""/>