<?xml version="1.0" encoding="UTF-8"?>

<!-- generated on 2023-08-23 16:34:59 by Eclipse SUMO libsumo Version 1.18.0
<configuration xmlns:xsi="http://www.w3.org/2001/XMLSchema-instance" xsi:noNamespaceSchemaLocation="http://sumo.dlr.de/xsd/libsumoConfiguration.xsd">

    <input>
        <net-file value="/home/stefan/RESCO/./environments/arterial4x4/arterial4x4.net.xml"/>
        <route-files value="/home/stefan/RESCO/./environments/arterial4x4/arterial4x4_55.rou.xml"/>
    </input>

    <output>
        <tripinfo-output value="/home/stefan/results/IDDQN-tr0-arterial4x4-0-drq_norm-wait_norm/tripinfo_55.xml"/>
        <tripinfo-output.write-unfinished value="true"/>
    </output>

    <processing>
        <time-to-teleport value="-1"/>
    </processing>

    <report>
        <no-warnings value="True"/>
        <no-step-log value="True"/>
    </report>

    <random_number>
        <random value="true"/>
    </random_number>

</configuration>
-->

<tripinfos xmlns:xsi="http://www.w3.org/2001/XMLSchema-instance" xsi:noNamespaceSchemaLocation="http://sumo.dlr.de/xsd/tripinfo_file.xsd">
    <tripinfo id="f_0_3.0" depart="0.00" departLane="np3_nt3_0" departPos="52.18" departSpeed="0.00" departDelay="0.00" arrival="90.00" arrivalLane="nt14_np11_0" arrivalPos="75.00" arrivalSpeed="12.92" duration="90.00" routeLength="898.91" waitingTime="12.00" waitingCount="4" stopTime="0.00" timeLoss="30.99" rerouteNo="0" devices="tripinfo_f_0_3.0" vType="type1" speedFactor="1.26" vaporized=""/>
    <tripinfo id="f_0_3.1" depart="9.00" departLane="np3_nt3_0" departPos="25.46" departSpeed="0.00" departDelay="0.82" arrival="140.00" arrivalLane="nt14_np11_0" arrivalPos="75.00" arrivalSpeed="6.42" duration="131.00" routeLength="925.63" waitingTime="5.00" waitingCount="3" stopTime="0.00" timeLoss="30.27" rerouteNo="0" devices="tripinfo_f_0_3.1" vType="type1" speedFactor="0.77" vaporized=""/>
    <tripinfo id="f_0_3.2" depart="17.00" departLane="np3_nt3_0" departPos="32.20" departSpeed="0.00" departDelay="0.64" arrival="142.00" arrivalLane="nt14_np11_0" arrivalPos="75.00" arrivalSpeed="9.54" duration="125.00" routeLength="918.89" waitingTime="3.00" waitingCount="3" stopTime="0.00" timeLoss="43.23" rerouteNo="0" devices="tripinfo_f_0_3.2" vType="type1" speedFactor="0.94" vaporized=""/>
    <tripinfo id="f_0_3.3" depart="25.00" departLane="np3_nt3_0" departPos="34.41" departSpeed="0.00" departDelay="0.45" arrival="146.00" arrivalLane="nt14_np11_0" arrivalPos="75.00" arrivalSpeed="11.05" duration="121.00" routeLength="916.68" waitingTime="4.00" waitingCount="2" stopTime="0.00" timeLoss="54.32" rerouteNo="0" devices="tripinfo_f_0_3.3" vType="type1" speedFactor="1.16" vaporized=""/>
    <tripinfo id="f_0_3.4" depart="33.00" departLane="np3_nt3_0" departPos="34.81" departSpeed="0.00" departDelay="0.27" arrival="162.00" arrivalLane="nt14_np11_0" arrivalPos="75.00" arrivalSpeed="11.03" duration="129.00" routeLength="916.28" waitingTime="29.00" waitingCount="4" stopTime="0.00" timeLoss="53.15" rerouteNo="0" devices="tripinfo_f_0_3.4" vType="type1" speedFactor="1.02" vaporized=""/>
    <tripinfo id="f_0_2.0" depart="0.00" departLane="np2_nt2_0" departPos="9.09" departSpeed="0.00" departDelay="0.00" arrival="173.00" arrivalLane="nt15_np10_0" arrivalPos="75.00" arrivalSpeed="9.36" duration="173.00" routeLength="941.99" waitingTime="56.00" waitingCount="4" stopTime="0.00" timeLoss="84.23" rerouteNo="0" devices="tripinfo_f_0_2.0" vType="type1" speedFactor="0.89" vaporized=""/>
    <tripinfo id="f_0_2.1" depart="9.00" departLane="np2_nt2_0" departPos="28.77" departSpeed="0.00" departDelay="0.82" arrival="177.00" arrivalLane="nt15_np10_0" arrivalPos="75.00" arrivalSpeed="8.90" duration="168.00" routeLength="922.31" waitingTime="47.00" waitingCount="5" stopTime="0.00" timeLoss="88.41" rerouteNo="0" devices="tripinfo_f_0_2.1" vType="type1" speedFactor="0.96" vaporized=""/>
    <tripinfo id="f_0_2.2" depart="17.00" departLane="np2_nt2_0" departPos="1.09" departSpeed="0.00" departDelay="0.64" arrival="179.00" arrivalLane="nt15_np10_0" arrivalPos="75.00" arrivalSpeed="10.57" duration="162.00" routeLength="949.99" waitingTime="43.00" waitingCount="5" stopTime="0.00" timeLoss="87.27" rerouteNo="0" devices="tripinfo_f_0_2.2" vType="type1" speedFactor="1.07" vaporized=""/>
    <tripinfo id="f_0_1.0" depart="0.00" departLane="np16_nt1_0" departPos="57.38" departSpeed="0.00" departDelay="0.00" arrival="183.00" arrivalLane="nt16_np8_0" arrivalPos="75.00" arrivalSpeed="17.43" duration="183.00" routeLength="1290.50" waitingTime="53.00" waitingCount="4" stopTime="0.00" timeLoss="89.01" rerouteNo="0" devices="tripinfo_f_0_1.0" vType="type1" speedFactor="0.96" vaporized=""/>
    <tripinfo id="f_0_2.3" depart="25.00" departLane="np2_nt2_0" departPos="25.07" departSpeed="0.00" departDelay="0.45" arrival="183.00" arrivalLane="nt15_np10_0" arrivalPos="75.00" arrivalSpeed="9.51" duration="158.00" routeLength="926.01" waitingTime="41.00" waitingCount="4" stopTime="0.00" timeLoss="71.04" rerouteNo="0" devices="tripinfo_f_0_2.3" vType="type1" speedFactor="0.90" vaporized=""/>
    <tripinfo id="f_0_2.4" depart="33.00" departLane="np2_nt2_0" departPos="11.64" departSpeed="0.00" departDelay="0.27" arrival="184.00" arrivalLane="nt15_np10_0" arrivalPos="75.00" arrivalSpeed="11.14" duration="151.00" routeLength="939.44" waitingTime="39.00" waitingCount="3" stopTime="0.00" timeLoss="77.62" rerouteNo="0" devices="tripinfo_f_0_2.4" vType="type1" speedFactor="1.08" vaporized=""/>
    <tripinfo id="f_0_1.1" depart="14.00" departLane="np16_nt1_0" departPos="32.28" departSpeed="0.00" departDelay="0.36" arrival="193.00" arrivalLane="nt16_np8_0" arrivalPos="75.00" arrivalSpeed="19.91" duration="179.00" routeLength="1315.60" waitingTime="46.00" waitingCount="5" stopTime="0.00" timeLoss="89.02" rerouteNo="0" devices="tripinfo_f_0_1.1" vType="type1" speedFactor="1.02" vaporized=""/>
    <tripinfo id="f_0_0.0" depart="0.00" departLane="np13_nt13_0" departPos="35.91" departSpeed="0.00" departDelay="0.00" arrival="194.00" arrivalLane="nt4_np5_0" arrivalPos="75.00" arrivalSpeed="19.09" duration="194.00" routeLength="1311.98" waitingTime="70.00" waitingCount="3" stopTime="0.00" timeLoss="103.04" rerouteNo="0" devices="tripinfo_f_0_0.0" vType="type1" speedFactor="1.01" vaporized=""/>
    <tripinfo id="f_0_1.2" depart="28.00" departLane="np16_nt1_0" departPos="0.05" departSpeed="0.00" departDelay="0.73" arrival="195.00" arrivalLane="nt16_np8_0" arrivalPos="75.00" arrivalSpeed="23.26" duration="167.00" routeLength="1347.83" waitingTime="33.00" waitingCount="4" stopTime="0.00" timeLoss="89.82" rerouteNo="0" devices="tripinfo_f_0_1.2" vType="type1" speedFactor="1.21" vaporized=""/>
    <tripinfo id="f_0_2.5" depart="41.00" departLane="np2_nt2_0" departPos="48.04" departSpeed="0.00" departDelay="0.09" arrival="198.00" arrivalLane="nt15_np10_0" arrivalPos="75.00" arrivalSpeed="9.74" duration="157.00" routeLength="903.04" waitingTime="32.00" waitingCount="5" stopTime="0.00" timeLoss="72.62" rerouteNo="0" devices="tripinfo_f_0_2.5" vType="type1" speedFactor="0.90" vaporized=""/>
    <tripinfo id="f_0_2.6" depart="50.00" departLane="np2_nt2_0" departPos="40.02" departSpeed="0.00" departDelay="0.91" arrival="200.00" arrivalLane="nt15_np10_0" arrivalPos="75.00" arrivalSpeed="11.53" duration="150.00" routeLength="911.06" waitingTime="25.00" waitingCount="4" stopTime="0.00" timeLoss="82.89" rerouteNo="0" devices="tripinfo_f_0_2.6" vType="type1" speedFactor="1.14" vaporized=""/>
    <tripinfo id="f_0_0.1" depart="14.00" departLane="np13_nt13_0" departPos="38.30" departSpeed="0.00" departDelay="0.36" arrival="203.00" arrivalLane="nt4_np5_0" arrivalPos="75.00" arrivalSpeed="16.04" duration="189.00" routeLength="1309.59" waitingTime="54.00" waitingCount="4" stopTime="0.00" timeLoss="83.38" rerouteNo="0" devices="tripinfo_f_0_0.1" vType="type1" speedFactor="0.87" vaporized=""/>
    <tripinfo id="f_0_0.2" depart="28.00" departLane="np13_nt13_0" departPos="41.58" departSpeed="0.00" departDelay="0.73" arrival="204.00" arrivalLane="nt4_np5_0" arrivalPos="75.00" arrivalSpeed="19.66" duration="176.00" routeLength="1306.31" waitingTime="51.00" waitingCount="3" stopTime="0.00" timeLoss="83.39" rerouteNo="0" devices="tripinfo_f_0_0.2" vType="type1" speedFactor="0.98" vaporized=""/>
    <tripinfo id="f_0_3.5" depart="41.00" departLane="np3_nt3_0" departPos="2.47" departSpeed="0.00" departDelay="0.09" arrival="212.00" arrivalLane="nt14_np11_0" arrivalPos="75.00" arrivalSpeed="8.22" duration="171.00" routeLength="948.62" waitingTime="59.00" waitingCount="6" stopTime="0.00" timeLoss="88.68" rerouteNo="0" devices="tripinfo_f_0_3.5" vType="type1" speedFactor="0.96" vaporized=""/>
    <tripinfo id="f_0_0.3" depart="41.00" departLane="np13_nt13_0" departPos="57.04" departSpeed="0.00" departDelay="0.09" arrival="213.00" arrivalLane="nt4_np5_0" arrivalPos="75.00" arrivalSpeed="21.76" duration="172.00" routeLength="1290.85" waitingTime="48.00" waitingCount="3" stopTime="0.00" timeLoss="88.76" rerouteNo="0" devices="tripinfo_f_0_0.3" vType="type1" speedFactor="1.09" vaporized=""/>
    <tripinfo id="f_0_3.6" depart="50.00" departLane="np3_nt3_0" departPos="16.32" departSpeed="0.00" departDelay="0.91" arrival="214.00" arrivalLane="nt14_np11_0" arrivalPos="75.00" arrivalSpeed="10.77" duration="164.00" routeLength="934.77" waitingTime="60.00" waitingCount="6" stopTime="0.00" timeLoss="86.74" rerouteNo="0" devices="tripinfo_f_0_3.6" vType="type1" speedFactor="1.02" vaporized=""/>
    <tripinfo id="f_0_3.7" depart="58.00" departLane="np3_nt3_0" departPos="21.91" departSpeed="0.00" departDelay="0.73" arrival="236.00" arrivalLane="nt14_np11_0" arrivalPos="75.00" arrivalSpeed="12.00" duration="178.00" routeLength="929.18" waitingTime="71.00" waitingCount="8" stopTime="0.00" timeLoss="109.87" rerouteNo="0" devices="tripinfo_f_0_3.7" vType="type1" speedFactor="1.15" vaporized=""/>
    <tripinfo id="f_0_3.8" depart="66.00" departLane="np3_nt3_0" departPos="25.32" departSpeed="0.00" departDelay="0.54" arrival="238.00" arrivalLane="nt14_np11_0" arrivalPos="75.00" arrivalSpeed="12.73" duration="172.00" routeLength="925.77" waitingTime="58.00" waitingCount="7" stopTime="0.00" timeLoss="110.68" rerouteNo="0" devices="tripinfo_f_0_3.8" vType="type1" speedFactor="1.28" vaporized=""/>
    <tripinfo id="f_0_0.4" depart="55.00" departLane="np13_nt13_0" departPos="27.30" departSpeed="0.00" departDelay="0.46" arrival="243.00" arrivalLane="nt4_np5_0" arrivalPos="75.00" arrivalSpeed="19.32" duration="188.00" routeLength="1320.59" waitingTime="62.00" waitingCount="6" stopTime="0.00" timeLoss="101.73" rerouteNo="0" devices="tripinfo_f_0_0.4" vType="type1" speedFactor="1.07" vaporized=""/>
    <tripinfo id="f_0_0.5" depart="69.00" departLane="np13_nt13_0" departPos="31.44" departSpeed="0.00" departDelay="0.82" arrival="245.00" arrivalLane="nt4_np5_0" arrivalPos="75.00" arrivalSpeed="19.20" duration="176.00" routeLength="1316.45" waitingTime="48.00" waitingCount="4" stopTime="0.00" timeLoss="83.11" rerouteNo="0" devices="tripinfo_f_0_0.5" vType="type1" speedFactor="0.99" vaporized=""/>
    <tripinfo id="f_0_3.9" depart="74.00" departLane="np3_nt3_0" departPos="31.87" departSpeed="0.00" departDelay="0.36" arrival="248.00" arrivalLane="nt14_np11_0" arrivalPos="75.00" arrivalSpeed="8.32" duration="174.00" routeLength="919.22" waitingTime="50.00" waitingCount="6" stopTime="0.00" timeLoss="91.53" rerouteNo="0" devices="tripinfo_f_0_3.9" vType="type1" speedFactor="0.93" vaporized=""/>
    <tripinfo id="f_0_2.7" depart="58.00" departLane="np2_nt2_0" departPos="11.10" departSpeed="0.00" departDelay="0.73" arrival="255.00" arrivalLane="nt15_np10_0" arrivalPos="75.00" arrivalSpeed="12.96" duration="197.00" routeLength="939.98" waitingTime="73.00" waitingCount="5" stopTime="0.00" timeLoss="132.34" rerouteNo="0" devices="tripinfo_f_0_2.7" vType="type1" speedFactor="1.21" vaporized=""/>
    <tripinfo id="f_0_0.6" depart="82.00" departLane="np13_nt13_0" departPos="39.85" departSpeed="0.00" departDelay="0.18" arrival="258.00" arrivalLane="nt4_np5_0" arrivalPos="75.00" arrivalSpeed="17.43" duration="176.00" routeLength="1308.04" waitingTime="42.00" waitingCount="6" stopTime="0.00" timeLoss="77.95" rerouteNo="0" devices="tripinfo_f_0_0.6" vType="type1" speedFactor="0.93" vaporized=""/>
    <tripinfo id="f_0_0.7" depart="96.00" departLane="np13_nt13_0" departPos="45.95" departSpeed="0.00" departDelay="0.55" arrival="260.00" arrivalLane="nt4_np5_0" arrivalPos="75.00" arrivalSpeed="20.14" duration="164.00" routeLength="1301.94" waitingTime="28.00" waitingCount="5" stopTime="0.00" timeLoss="78.84" rerouteNo="0" devices="tripinfo_f_0_0.7" vType="type1" speedFactor="1.07" vaporized=""/>
    <tripinfo id="f_0_3.10" depart="82.00" departLane="np3_nt3_0" departPos="12.83" departSpeed="0.00" departDelay="0.18" arrival="266.00" arrivalLane="nt14_np11_0" arrivalPos="75.00" arrivalSpeed="11.32" duration="184.00" routeLength="938.26" waitingTime="53.00" waitingCount="8" stopTime="0.00" timeLoss="114.79" rerouteNo="0" devices="tripinfo_f_0_3.10" vType="type1" speedFactor="1.13" vaporized=""/>
    <tripinfo id="f_0_3.11" depart="90.00" departLane="np3_nt3_0" departPos="3.60" departSpeed="0.00" departDelay="0.00" arrival="268.00" arrivalLane="nt14_np11_0" arrivalPos="75.00" arrivalSpeed="11.41" duration="178.00" routeLength="947.49" waitingTime="44.00" waitingCount="8" stopTime="0.00" timeLoss="109.74" rerouteNo="0" devices="tripinfo_f_0_3.11" vType="type1" speedFactor="1.17" vaporized=""/>
    <tripinfo id="f_0_2.8" depart="66.00" departLane="np2_nt2_0" departPos="45.54" departSpeed="0.00" departDelay="0.54" arrival="269.00" arrivalLane="nt15_np10_0" arrivalPos="75.00" arrivalSpeed="7.45" duration="203.00" routeLength="905.54" waitingTime="72.00" waitingCount="6" stopTime="0.00" timeLoss="115.48" rerouteNo="0" devices="tripinfo_f_0_2.8" vType="type1" speedFactor="0.86" vaporized=""/>
    <tripinfo id="f_0_2.9" depart="74.00" departLane="np2_nt2_0" departPos="42.75" departSpeed="0.00" departDelay="0.36" arrival="271.00" arrivalLane="nt15_np10_0" arrivalPos="75.00" arrivalSpeed="12.53" duration="197.00" routeLength="908.33" waitingTime="69.00" waitingCount="5" stopTime="0.00" timeLoss="132.94" rerouteNo="0" devices="tripinfo_f_0_2.9" vType="type1" speedFactor="1.19" vaporized=""/>
    <tripinfo id="f_0_3.12" depart="99.00" departLane="np3_nt3_0" departPos="10.57" departSpeed="0.00" departDelay="0.82" arrival="273.00" arrivalLane="nt14_np11_0" arrivalPos="75.00" arrivalSpeed="7.92" duration="174.00" routeLength="940.52" waitingTime="41.00" waitingCount="7" stopTime="0.00" timeLoss="84.14" rerouteNo="0" devices="tripinfo_f_0_3.12" vType="type1" speedFactor="0.88" vaporized=""/>
    <tripinfo id="f_0_3.13" depart="107.00" departLane="np3_nt3_0" departPos="32.20" departSpeed="0.00" departDelay="0.63" arrival="275.00" arrivalLane="nt14_np11_0" arrivalPos="75.00" arrivalSpeed="8.40" duration="168.00" routeLength="918.89" waitingTime="35.00" waitingCount="5" stopTime="0.00" timeLoss="81.38" rerouteNo="0" devices="tripinfo_f_0_3.13" vType="type1" speedFactor="0.89" vaporized=""/>
    <tripinfo id="f_0_2.10" depart="82.00" departLane="np2_nt2_0" departPos="34.39" departSpeed="0.00" departDelay="0.18" arrival="281.00" arrivalLane="nt15_np10_0" arrivalPos="75.00" arrivalSpeed="11.04" duration="199.00" routeLength="916.69" waitingTime="65.00" waitingCount="5" stopTime="0.00" timeLoss="130.38" rerouteNo="0" devices="tripinfo_f_0_2.10" vType="type1" speedFactor="1.12" vaporized=""/>
    <tripinfo id="f_0_3.14" depart="115.00" departLane="np3_nt3_0" departPos="34.87" departSpeed="0.00" departDelay="0.45" arrival="283.00" arrivalLane="nt14_np11_0" arrivalPos="75.00" arrivalSpeed="10.29" duration="168.00" routeLength="916.22" waitingTime="33.00" waitingCount="5" stopTime="0.00" timeLoss="87.44" rerouteNo="0" devices="tripinfo_f_0_3.14" vType="type1" speedFactor="0.95" vaporized=""/>
    <tripinfo id="f_0_2.11" depart="90.00" departLane="np2_nt2_0" departPos="7.41" departSpeed="0.00" departDelay="0.00" arrival="285.00" arrivalLane="nt15_np10_0" arrivalPos="75.00" arrivalSpeed="7.92" duration="195.00" routeLength="943.67" waitingTime="51.00" waitingCount="3" stopTime="0.00" timeLoss="106.46" rerouteNo="0" devices="tripinfo_f_0_2.11" vType="type1" speedFactor="0.90" vaporized=""/>
    <tripinfo id="f_0_3.15" depart="123.00" departLane="np3_nt3_0" departPos="28.80" departSpeed="0.00" departDelay="0.27" arrival="285.00" arrivalLane="nt14_np11_0" arrivalPos="75.00" arrivalSpeed="10.21" duration="162.00" routeLength="922.29" waitingTime="25.00" waitingCount="5" stopTime="0.00" timeLoss="93.35" rerouteNo="0" devices="tripinfo_f_0_3.15" vType="type1" speedFactor="1.12" vaporized=""/>
    <tripinfo id="f_0_2.12" depart="99.00" departLane="np2_nt2_0" departPos="21.86" departSpeed="0.00" departDelay="0.82" arrival="287.00" arrivalLane="nt15_np10_0" arrivalPos="75.00" arrivalSpeed="11.21" duration="188.00" routeLength="929.22" waitingTime="64.00" waitingCount="2" stopTime="0.00" timeLoss="115.02" rerouteNo="0" devices="tripinfo_f_0_2.12" vType="type1" speedFactor="1.07" vaporized=""/>
    <tripinfo id="f_0_3.16" depart="131.00" departLane="np3_nt3_0" departPos="2.22" departSpeed="0.00" departDelay="0.09" arrival="287.00" arrivalLane="nt14_np11_0" arrivalPos="75.00" arrivalSpeed="10.89" duration="156.00" routeLength="948.87" waitingTime="19.00" waitingCount="4" stopTime="0.00" timeLoss="77.53" rerouteNo="0" devices="tripinfo_f_0_3.16" vType="type1" speedFactor="1.02" vaporized=""/>
    <tripinfo id="f_0_0.8" depart="110.00" departLane="np13_nt13_0" departPos="39.09" departSpeed="0.00" departDelay="0.91" arrival="288.00" arrivalLane="nt4_np5_0" arrivalPos="75.00" arrivalSpeed="20.73" duration="178.00" routeLength="1308.80" waitingTime="48.00" waitingCount="7" stopTime="0.00" timeLoss="91.34" rerouteNo="0" devices="tripinfo_f_0_0.8" vType="type1" speedFactor="1.05" vaporized=""/>
    <tripinfo id="f_0_2.13" depart="107.00" departLane="np2_nt2_0" departPos="53.10" departSpeed="0.00" departDelay="0.63" arrival="289.00" arrivalLane="nt15_np10_0" arrivalPos="75.00" arrivalSpeed="11.24" duration="182.00" routeLength="897.98" waitingTime="62.00" waitingCount="2" stopTime="0.00" timeLoss="115.75" rerouteNo="0" devices="tripinfo_f_0_2.13" vType="type1" speedFactor="1.15" vaporized=""/>
    <tripinfo id="f_0_3.17" depart="140.00" departLane="np3_nt3_0" departPos="63.38" departSpeed="0.00" departDelay="0.91" arrival="289.00" arrivalLane="nt14_np11_0" arrivalPos="75.00" arrivalSpeed="11.40" duration="149.00" routeLength="887.71" waitingTime="15.00" waitingCount="4" stopTime="0.00" timeLoss="77.33" rerouteNo="0" devices="tripinfo_f_0_3.17" vType="type1" speedFactor="1.04" vaporized=""/>
    <tripinfo id="f_0_0.9" depart="123.00" departLane="np13_nt13_0" departPos="49.11" departSpeed="0.00" departDelay="0.28" arrival="290.00" arrivalLane="nt4_np5_0" arrivalPos="75.00" arrivalSpeed="18.99" duration="167.00" routeLength="1298.78" waitingTime="29.00" waitingCount="7" stopTime="0.00" timeLoss="78.90" rerouteNo="0" devices="tripinfo_f_0_0.9" vType="type1" speedFactor="1.03" vaporized=""/>
    <tripinfo id="f_0_3.18" depart="148.00" departLane="np3_nt3_0" departPos="39.14" departSpeed="0.00" departDelay="0.72" arrival="290.00" arrivalLane="nt14_np11_0" arrivalPos="75.00" arrivalSpeed="10.83" duration="142.00" routeLength="911.95" waitingTime="19.00" waitingCount="5" stopTime="0.00" timeLoss="72.25" rerouteNo="0" devices="tripinfo_f_0_3.18" vType="type1" speedFactor="1.09" vaporized=""/>
    <tripinfo id="f_0_2.14" depart="115.00" departLane="np2_nt2_0" departPos="60.95" departSpeed="0.00" departDelay="0.45" arrival="291.00" arrivalLane="nt15_np10_0" arrivalPos="75.00" arrivalSpeed="9.94" duration="176.00" routeLength="890.13" waitingTime="63.00" waitingCount="3" stopTime="0.00" timeLoss="103.51" rerouteNo="0" devices="tripinfo_f_0_2.14" vType="type1" speedFactor="1.04" vaporized=""/>
    <tripinfo id="f_0_2.15" depart="123.00" departLane="np2_nt2_0" departPos="38.82" departSpeed="0.00" departDelay="0.27" arrival="292.00" arrivalLane="nt15_np10_0" arrivalPos="75.00" arrivalSpeed="11.59" duration="169.00" routeLength="912.26" waitingTime="51.00" waitingCount="4" stopTime="0.00" timeLoss="98.42" rerouteNo="0" devices="tripinfo_f_0_2.15" vType="type1" speedFactor="1.08" vaporized=""/>
    <tripinfo id="f_0_3.19" depart="156.00" departLane="np3_nt3_0" departPos="33.53" departSpeed="0.00" departDelay="0.54" arrival="293.00" arrivalLane="nt14_np11_0" arrivalPos="75.00" arrivalSpeed="8.86" duration="137.00" routeLength="917.56" waitingTime="13.00" waitingCount="4" stopTime="0.00" timeLoss="53.05" rerouteNo="0" devices="tripinfo_f_0_3.19" vType="type1" speedFactor="0.91" vaporized=""/>
    <tripinfo id="f_0_1.3" depart="41.00" departLane="np16_nt1_0" departPos="0.27" departSpeed="0.00" departDelay="0.09" arrival="294.00" arrivalLane="nt16_np8_0" arrivalPos="75.00" arrivalSpeed="17.23" duration="253.00" routeLength="1347.61" waitingTime="89.00" waitingCount="6" stopTime="0.00" timeLoss="146.71" rerouteNo="0" devices="tripinfo_f_0_1.3" vType="type1" speedFactor="0.88" vaporized=""/>
    <tripinfo id="f_0_1.4" depart="55.00" departLane="np16_nt1_0" departPos="16.69" departSpeed="0.00" departDelay="0.46" arrival="295.00" arrivalLane="nt16_np8_0" arrivalPos="75.00" arrivalSpeed="19.91" duration="240.00" routeLength="1331.19" waitingTime="83.00" waitingCount="6" stopTime="0.00" timeLoss="151.84" rerouteNo="0" devices="tripinfo_f_0_1.4" vType="type1" speedFactor="1.05" vaporized=""/>
    <tripinfo id="f_0_3.20" depart="164.00" departLane="np3_nt3_0" departPos="37.16" departSpeed="0.00" departDelay="0.36" arrival="295.00" arrivalLane="nt14_np11_0" arrivalPos="75.00" arrivalSpeed="9.62" duration="131.00" routeLength="913.93" waitingTime="21.00" waitingCount="4" stopTime="0.00" timeLoss="53.02" rerouteNo="0" devices="tripinfo_f_0_3.20" vType="type1" speedFactor="0.98" vaporized=""/>
    <tripinfo id="f_0_2.16" depart="131.00" departLane="np2_nt2_0" departPos="9.90" departSpeed="0.00" departDelay="0.09" arrival="302.00" arrivalLane="nt15_np10_0" arrivalPos="75.00" arrivalSpeed="11.22" duration="171.00" routeLength="941.18" waitingTime="29.00" waitingCount="4" stopTime="0.00" timeLoss="100.40" rerouteNo="0" devices="tripinfo_f_0_2.16" vType="type1" speedFactor="1.11" vaporized=""/>
    <tripinfo id="f_0_0.10" depart="137.00" departLane="np13_nt13_0" departPos="18.70" departSpeed="0.00" departDelay="0.64" arrival="303.00" arrivalLane="nt4_np5_0" arrivalPos="75.00" arrivalSpeed="18.96" duration="166.00" routeLength="1329.19" waitingTime="21.00" waitingCount="6" stopTime="0.00" timeLoss="76.98" rerouteNo="0" devices="tripinfo_f_0_0.10" vType="type1" speedFactor="1.03" vaporized=""/>
    <tripinfo id="f_0_3.21" depart="172.00" departLane="np3_nt3_0" departPos="31.09" departSpeed="0.00" departDelay="0.18" arrival="303.00" arrivalLane="nt14_np11_0" arrivalPos="75.00" arrivalSpeed="9.48" duration="131.00" routeLength="920.00" waitingTime="16.00" waitingCount="4" stopTime="0.00" timeLoss="44.65" rerouteNo="0" devices="tripinfo_f_0_3.21" vType="type1" speedFactor="0.90" vaporized=""/>
    <tripinfo id="f_0_2.17" depart="140.00" departLane="np2_nt2_0" departPos="45.98" departSpeed="0.00" departDelay="0.91" arrival="307.00" arrivalLane="nt15_np10_0" arrivalPos="75.00" arrivalSpeed="9.20" duration="167.00" routeLength="905.10" waitingTime="21.00" waitingCount="4" stopTime="0.00" timeLoss="85.21" rerouteNo="0" devices="tripinfo_f_0_2.17" vType="type1" speedFactor="0.93" vaporized=""/>
    <tripinfo id="f_0_1.5" depart="69.00" departLane="np16_nt1_0" departPos="13.38" departSpeed="0.00" departDelay="0.82" arrival="309.00" arrivalLane="nt16_np8_0" arrivalPos="75.00" arrivalSpeed="15.27" duration="240.00" routeLength="1334.50" waitingTime="75.00" waitingCount="6" stopTime="0.00" timeLoss="131.45" rerouteNo="0" devices="tripinfo_f_0_1.5" vType="type1" speedFactor="0.85" vaporized=""/>
    <tripinfo id="f_0_1.6" depart="82.00" departLane="np16_nt1_0" departPos="20.69" departSpeed="0.00" departDelay="0.18" arrival="310.00" arrivalLane="nt16_np8_0" arrivalPos="75.00" arrivalSpeed="21.15" duration="228.00" routeLength="1327.19" waitingTime="83.00" waitingCount="6" stopTime="0.00" timeLoss="149.14" rerouteNo="0" devices="tripinfo_f_0_1.6" vType="type1" speedFactor="1.17" vaporized=""/>
    <tripinfo id="f_0_2.18" depart="148.00" departLane="np2_nt2_0" departPos="47.78" departSpeed="0.00" departDelay="0.72" arrival="312.00" arrivalLane="nt15_np10_0" arrivalPos="75.00" arrivalSpeed="9.17" duration="164.00" routeLength="903.30" waitingTime="20.00" waitingCount="3" stopTime="0.00" timeLoss="79.36" rerouteNo="0" devices="tripinfo_f_0_2.18" vType="type1" speedFactor="0.90" vaporized=""/>
    <tripinfo id="f_0_2.19" depart="156.00" departLane="np2_nt2_0" departPos="36.11" departSpeed="0.00" departDelay="0.54" arrival="315.00" arrivalLane="nt15_np10_0" arrivalPos="75.00" arrivalSpeed="7.41" duration="159.00" routeLength="914.97" waitingTime="22.00" waitingCount="4" stopTime="0.00" timeLoss="67.91" rerouteNo="0" devices="tripinfo_f_0_2.19" vType="type1" speedFactor="0.85" vaporized=""/>
    <tripinfo id="f_0_0.11" depart="150.00" departLane="np13_nt13_0" departPos="16.75" departSpeed="0.00" departDelay="0.00" arrival="323.00" arrivalLane="nt4_np5_0" arrivalPos="75.00" arrivalSpeed="21.04" duration="173.00" routeLength="1331.14" waitingTime="35.00" waitingCount="7" stopTime="0.00" timeLoss="91.01" rerouteNo="0" devices="tripinfo_f_0_0.11" vType="type1" speedFactor="1.12" vaporized=""/>
    <tripinfo id="f_0_1.7" depart="96.00" departLane="np16_nt1_0" departPos="24.97" departSpeed="0.00" departDelay="0.55" arrival="324.00" arrivalLane="nt16_np8_0" arrivalPos="75.00" arrivalSpeed="17.16" duration="228.00" routeLength="1322.91" waitingTime="66.00" waitingCount="4" stopTime="0.00" timeLoss="125.58" rerouteNo="0" devices="tripinfo_f_0_1.7" vType="type1" speedFactor="0.91" vaporized=""/>
    <tripinfo id="f_0_0.12" depart="164.00" departLane="np13_nt13_0" departPos="32.99" departSpeed="0.00" departDelay="0.37" arrival="325.00" arrivalLane="nt4_np5_0" arrivalPos="75.00" arrivalSpeed="20.50" duration="161.00" routeLength="1314.90" waitingTime="47.00" waitingCount="4" stopTime="0.00" timeLoss="77.15" rerouteNo="0" devices="tripinfo_f_0_0.12" vType="type1" speedFactor="1.09" vaporized=""/>
    <tripinfo id="f_0_1.8" depart="110.00" departLane="np16_nt1_0" departPos="61.31" departSpeed="0.00" departDelay="0.91" arrival="326.00" arrivalLane="nt16_np8_0" arrivalPos="75.00" arrivalSpeed="15.81" duration="216.00" routeLength="1286.57" waitingTime="43.00" waitingCount="5" stopTime="0.00" timeLoss="104.61" rerouteNo="0" devices="tripinfo_f_0_1.8" vType="type1" speedFactor="0.81" vaporized=""/>
    <tripinfo id="f_0_1.9" depart="123.00" departLane="np16_nt1_0" departPos="11.12" departSpeed="0.00" departDelay="0.28" arrival="333.00" arrivalLane="nt16_np8_0" arrivalPos="75.00" arrivalSpeed="17.86" duration="210.00" routeLength="1336.76" waitingTime="40.00" waitingCount="5" stopTime="0.00" timeLoss="114.17" rerouteNo="0" devices="tripinfo_f_0_1.9" vType="type1" speedFactor="0.97" vaporized=""/>
    <tripinfo id="f_0_0.13" depart="178.00" departLane="np13_nt13_0" departPos="13.40" departSpeed="0.00" departDelay="0.73" arrival="333.00" arrivalLane="nt4_np5_0" arrivalPos="75.00" arrivalSpeed="20.21" duration="155.00" routeLength="1334.49" waitingTime="22.00" waitingCount="5" stopTime="0.00" timeLoss="64.53" rerouteNo="0" devices="tripinfo_f_0_0.13" vType="type1" speedFactor="1.03" vaporized=""/>
    <tripinfo id="f_0_1.10" depart="137.00" departLane="np16_nt1_0" departPos="1.11" departSpeed="0.00" departDelay="0.64" arrival="335.00" arrivalLane="nt16_np8_0" arrivalPos="75.00" arrivalSpeed="18.74" duration="198.00" routeLength="1346.77" waitingTime="35.00" waitingCount="6" stopTime="0.00" timeLoss="99.90" rerouteNo="0" devices="tripinfo_f_0_1.10" vType="type1" speedFactor="0.95" vaporized=""/>
    <tripinfo id="f_0_0.14" depart="191.00" departLane="np13_nt13_0" departPos="56.46" departSpeed="0.00" departDelay="0.10" arrival="335.00" arrivalLane="nt4_np5_0" arrivalPos="75.00" arrivalSpeed="21.45" duration="144.00" routeLength="1291.43" waitingTime="21.00" waitingCount="4" stopTime="0.00" timeLoss="59.36" rerouteNo="0" devices="tripinfo_f_0_0.14" vType="type1" speedFactor="1.07" vaporized=""/>
    <tripinfo id="f_0_3.22" depart="180.00" departLane="np3_nt3_0" departPos="29.69" departSpeed="0.00" departDelay="0.00" arrival="337.00" arrivalLane="nt14_np11_0" arrivalPos="75.00" arrivalSpeed="10.89" duration="157.00" routeLength="921.40" waitingTime="43.00" waitingCount="4" stopTime="0.00" timeLoss="80.73" rerouteNo="0" devices="tripinfo_f_0_3.22" vType="type1" speedFactor="1.02" vaporized=""/>
    <tripinfo id="f_0_3.23" depart="189.00" departLane="np3_nt3_0" departPos="37.01" departSpeed="0.00" departDelay="0.81" arrival="339.00" arrivalLane="nt14_np11_0" arrivalPos="75.00" arrivalSpeed="10.56" duration="150.00" routeLength="914.08" waitingTime="44.00" waitingCount="5" stopTime="0.00" timeLoss="70.64" rerouteNo="0" devices="tripinfo_f_0_3.23" vType="type1" speedFactor="0.96" vaporized=""/>
    <tripinfo id="f_0_0.15" depart="205.00" departLane="np13_nt13_0" departPos="10.91" departSpeed="0.00" departDelay="0.46" arrival="344.00" arrivalLane="nt4_np5_0" arrivalPos="75.00" arrivalSpeed="21.54" duration="139.00" routeLength="1336.98" waitingTime="18.00" waitingCount="4" stopTime="0.00" timeLoss="55.11" rerouteNo="0" devices="tripinfo_f_0_0.15" vType="type1" speedFactor="1.11" vaporized=""/>