<?xml version="1.0" encoding="UTF-8"?>

<!-- generated on 2023-08-23 16:53:30 by Eclipse SUMO libsumo Version 1.18.0
<configuration xmlns:xsi="http://www.w3.org/2001/XMLSchema-instance" xsi:noNamespaceSchemaLocation="http://sumo.dlr.de/xsd/libsumoConfiguration.xsd">

    <input>
        <net-file value="/home/stefan/RESCO/./environments/arterial4x4/arterial4x4.net.xml"/>
        <route-files value="/home/stefan/RESCO/./environments/arterial4x4/arterial4x4_77.rou.xml"/>
    </input>

    <output>
        <tripinfo-output value="/home/stefan/results/IDDQN-tr0-arterial4x4-0-drq_norm-wait_norm/tripinfo_77.xml"/>
        <tripinfo-output.write-unfinished value="true"/>
    </output>

    <processing>
        <time-to-teleport value="-1"/>
    </processing>

    <report>
        <no-warnings value="True"/>
        <no-step-log value="True"/>
    </report>

    <random_number>
        <random value="true"/>
    </random_number>

</configuration>
-->

<tripinfos xmlns:xsi="http://www.w3.org/2001/XMLSchema-instance" xsi:noNamespaceSchemaLocation="http://sumo.dlr.de/xsd/tripinfo_file.xsd">
    <tripinfo id="f_0_3.0" depart="0.00" departLane="np3_nt3_0" departPos="17.29" departSpeed="0.00" departDelay="0.00" arrival="143.00" arrivalLane="nt14_np11_0" arrivalPos="75.00" arrivalSpeed="8.31" duration="143.00" routeLength="933.80" waitingTime="28.00" waitingCount="4" stopTime="0.00" timeLoss="52.68" rerouteNo="0" devices="tripinfo_f_0_3.0" vType="type1" speedFactor="0.86" vaporized=""/>
    <tripinfo id="f_0_3.1" depart="9.00" departLane="np3_nt3_0" departPos="8.50" departSpeed="0.00" departDelay="0.82" arrival="145.00" arrivalLane="nt14_np11_0" arrivalPos="75.00" arrivalSpeed="7.95" duration="136.00" routeLength="942.59" waitingTime="17.00" waitingCount="3" stopTime="0.00" timeLoss="51.79" rerouteNo="0" devices="tripinfo_f_0_3.1" vType="type1" speedFactor="0.94" vaporized=""/>
    <tripinfo id="f_0_3.2" depart="17.00" departLane="np3_nt3_0" departPos="11.18" departSpeed="0.00" departDelay="0.64" arrival="147.00" arrivalLane="nt14_np11_0" arrivalPos="75.00" arrivalSpeed="10.66" duration="130.00" routeLength="939.91" waitingTime="11.00" waitingCount="3" stopTime="0.00" timeLoss="49.00" rerouteNo="0" devices="tripinfo_f_0_3.2" vType="type1" speedFactor="0.98" vaporized=""/>
    <tripinfo id="f_0_3.3" depart="25.00" departLane="np3_nt3_0" departPos="12.88" departSpeed="0.00" departDelay="0.45" arrival="150.00" arrivalLane="nt14_np11_0" arrivalPos="75.00" arrivalSpeed="7.40" duration="125.00" routeLength="938.21" waitingTime="13.00" waitingCount="3" stopTime="0.00" timeLoss="33.18" rerouteNo="0" devices="tripinfo_f_0_3.3" vType="type1" speedFactor="0.85" vaporized=""/>
    <tripinfo id="f_0_3.4" depart="33.00" departLane="np3_nt3_0" departPos="55.52" departSpeed="0.00" departDelay="0.27" arrival="152.00" arrivalLane="nt14_np11_0" arrivalPos="75.00" arrivalSpeed="11.60" duration="119.00" routeLength="895.57" waitingTime="10.00" waitingCount="3" stopTime="0.00" timeLoss="49.07" rerouteNo="0" devices="tripinfo_f_0_3.4" vType="type1" speedFactor="1.08" vaporized=""/>
    <tripinfo id="f_0_0.0" depart="0.00" departLane="np13_nt13_0" departPos="16.90" departSpeed="0.00" departDelay="0.00" arrival="154.00" arrivalLane="nt4_np5_0" arrivalPos="75.00" arrivalSpeed="17.46" duration="154.00" routeLength="1330.99" waitingTime="27.00" waitingCount="4" stopTime="0.00" timeLoss="50.94" rerouteNo="0" devices="tripinfo_f_0_0.0" vType="type1" speedFactor="0.90" vaporized=""/>
    <tripinfo id="f_0_3.5" depart="41.00" departLane="np3_nt3_0" departPos="30.52" departSpeed="0.00" departDelay="0.09" arrival="154.00" arrivalLane="nt14_np11_0" arrivalPos="75.00" arrivalSpeed="9.92" duration="113.00" routeLength="920.57" waitingTime="2.00" waitingCount="2" stopTime="0.00" timeLoss="40.48" rerouteNo="0" devices="tripinfo_f_0_3.5" vType="type1" speedFactor="1.07" vaporized=""/>
    <tripinfo id="f_0_0.1" depart="14.00" departLane="np13_nt13_0" departPos="12.74" departSpeed="0.00" departDelay="0.36" arrival="155.00" arrivalLane="nt4_np5_0" arrivalPos="75.00" arrivalSpeed="18.41" duration="141.00" routeLength="1335.15" waitingTime="15.00" waitingCount="4" stopTime="0.00" timeLoss="49.08" rerouteNo="0" devices="tripinfo_f_0_0.1" vType="type1" speedFactor="1.01" vaporized=""/>
    <tripinfo id="f_0_2.0" depart="0.00" departLane="np2_nt2_0" departPos="28.19" departSpeed="0.00" departDelay="0.00" arrival="157.00" arrivalLane="nt15_np10_0" arrivalPos="75.00" arrivalSpeed="10.81" duration="157.00" routeLength="922.89" waitingTime="61.00" waitingCount="4" stopTime="0.00" timeLoss="82.06" rerouteNo="0" devices="tripinfo_f_0_2.0" vType="type1" speedFactor="1.03" vaporized=""/>
    <tripinfo id="f_0_2.1" depart="9.00" departLane="np2_nt2_0" departPos="39.78" departSpeed="0.00" departDelay="0.82" arrival="159.00" arrivalLane="nt15_np10_0" arrivalPos="75.00" arrivalSpeed="10.11" duration="150.00" routeLength="911.30" waitingTime="52.00" waitingCount="4" stopTime="0.00" timeLoss="77.10" rerouteNo="0" devices="tripinfo_f_0_2.1" vType="type1" speedFactor="1.05" vaporized=""/>
    <tripinfo id="f_0_3.6" depart="50.00" departLane="np3_nt3_0" departPos="58.52" departSpeed="0.00" departDelay="0.91" arrival="167.00" arrivalLane="nt14_np11_0" arrivalPos="75.00" arrivalSpeed="11.35" duration="117.00" routeLength="892.57" waitingTime="19.00" waitingCount="3" stopTime="0.00" timeLoss="46.17" rerouteNo="0" devices="tripinfo_f_0_3.6" vType="type1" speedFactor="1.06" vaporized=""/>
    <tripinfo id="f_0_2.2" depart="17.00" departLane="np2_nt2_0" departPos="45.79" departSpeed="0.00" departDelay="0.64" arrival="168.00" arrivalLane="nt15_np10_0" arrivalPos="75.00" arrivalSpeed="6.66" duration="151.00" routeLength="905.29" waitingTime="30.00" waitingCount="4" stopTime="0.00" timeLoss="56.52" rerouteNo="0" devices="tripinfo_f_0_2.2" vType="type1" speedFactor="0.81" vaporized=""/>
    <tripinfo id="f_0_3.7" depart="58.00" departLane="np3_nt3_0" departPos="37.72" departSpeed="0.00" departDelay="0.73" arrival="169.00" arrivalLane="nt14_np11_0" arrivalPos="75.00" arrivalSpeed="9.65" duration="111.00" routeLength="913.37" waitingTime="9.00" waitingCount="2" stopTime="0.00" timeLoss="36.51" rerouteNo="0" devices="tripinfo_f_0_3.7" vType="type1" speedFactor="1.03" vaporized=""/>
    <tripinfo id="f_0_1.0" depart="0.00" departLane="np16_nt1_0" departPos="47.60" departSpeed="0.00" departDelay="0.00" arrival="170.00" arrivalLane="nt16_np8_0" arrivalPos="75.00" arrivalSpeed="16.95" duration="170.00" routeLength="1300.28" waitingTime="41.00" waitingCount="3" stopTime="0.00" timeLoss="74.86" rerouteNo="0" devices="tripinfo_f_0_1.0" vType="type1" speedFactor="0.95" vaporized=""/>
    <tripinfo id="f_0_2.3" depart="25.00" departLane="np2_nt2_0" departPos="20.37" departSpeed="0.00" departDelay="0.45" arrival="171.00" arrivalLane="nt15_np10_0" arrivalPos="75.00" arrivalSpeed="8.09" duration="146.00" routeLength="930.71" waitingTime="15.00" waitingCount="3" stopTime="0.00" timeLoss="57.64" rerouteNo="0" devices="tripinfo_f_0_2.3" vType="type1" speedFactor="0.89" vaporized=""/>
    <tripinfo id="f_0_3.8" depart="66.00" departLane="np3_nt3_0" departPos="61.27" departSpeed="0.00" departDelay="0.54" arrival="171.00" arrivalLane="nt14_np11_0" arrivalPos="75.00" arrivalSpeed="11.51" duration="105.00" routeLength="889.82" waitingTime="8.00" waitingCount="2" stopTime="0.00" timeLoss="35.29" rerouteNo="0" devices="tripinfo_f_0_3.8" vType="type1" speedFactor="1.07" vaporized=""/>
    <tripinfo id="f_0_2.4" depart="33.00" departLane="np2_nt2_0" departPos="16.03" departSpeed="0.00" departDelay="0.27" arrival="173.00" arrivalLane="nt15_np10_0" arrivalPos="75.00" arrivalSpeed="10.28" duration="140.00" routeLength="935.05" waitingTime="16.00" waitingCount="3" stopTime="0.00" timeLoss="61.00" rerouteNo="0" devices="tripinfo_f_0_2.4" vType="type1" speedFactor="1.01" vaporized=""/>
    <tripinfo id="f_0_2.5" depart="41.00" departLane="np2_nt2_0" departPos="20.07" departSpeed="0.00" departDelay="0.09" arrival="174.00" arrivalLane="nt15_np10_0" arrivalPos="75.00" arrivalSpeed="12.32" duration="133.00" routeLength="931.01" waitingTime="26.00" waitingCount="3" stopTime="0.00" timeLoss="66.37" rerouteNo="0" devices="tripinfo_f_0_2.5" vType="type1" speedFactor="1.17" vaporized=""/>
    <tripinfo id="f_0_1.1" depart="14.00" departLane="np16_nt1_0" departPos="32.85" departSpeed="0.00" departDelay="0.36" arrival="175.00" arrivalLane="nt16_np8_0" arrivalPos="75.00" arrivalSpeed="17.99" duration="161.00" routeLength="1315.03" waitingTime="22.00" waitingCount="2" stopTime="0.00" timeLoss="65.14" rerouteNo="0" devices="tripinfo_f_0_1.1" vType="type1" speedFactor="0.96" vaporized=""/>
    <tripinfo id="f_0_0.2" depart="28.00" departLane="np13_nt13_0" departPos="35.96" departSpeed="0.00" departDelay="0.73" arrival="188.00" arrivalLane="nt4_np5_0" arrivalPos="75.00" arrivalSpeed="19.67" duration="160.00" routeLength="1311.93" waitingTime="41.00" waitingCount="5" stopTime="0.00" timeLoss="73.00" rerouteNo="0" devices="tripinfo_f_0_0.2" vType="type1" speedFactor="1.05" vaporized=""/>
    <tripinfo id="f_0_1.2" depart="28.00" departLane="np16_nt1_0" departPos="8.78" departSpeed="0.00" departDelay="0.73" arrival="190.00" arrivalLane="nt16_np8_0" arrivalPos="75.00" arrivalSpeed="16.66" duration="162.00" routeLength="1339.10" waitingTime="19.00" waitingCount="5" stopTime="0.00" timeLoss="54.13" rerouteNo="0" devices="tripinfo_f_0_1.2" vType="type1" speedFactor="0.86" vaporized=""/>
    <tripinfo id="f_0_3.9" depart="74.00" departLane="np3_nt3_0" departPos="42.04" departSpeed="0.00" departDelay="0.36" arrival="192.00" arrivalLane="nt14_np11_0" arrivalPos="75.00" arrivalSpeed="10.03" duration="118.00" routeLength="909.05" waitingTime="20.00" waitingCount="3" stopTime="0.00" timeLoss="39.49" rerouteNo="0" devices="tripinfo_f_0_3.9" vType="type1" speedFactor="0.96" vaporized=""/>
    <tripinfo id="f_0_0.3" depart="41.00" departLane="np13_nt13_0" departPos="66.32" departSpeed="0.00" departDelay="0.09" arrival="198.00" arrivalLane="nt4_np5_0" arrivalPos="75.00" arrivalSpeed="16.73" duration="157.00" routeLength="1281.57" waitingTime="22.00" waitingCount="5" stopTime="0.00" timeLoss="54.09" rerouteNo="0" devices="tripinfo_f_0_0.3" vType="type1" speedFactor="0.87" vaporized=""/>
    <tripinfo id="f_0_0.4" depart="55.00" departLane="np13_nt13_0" departPos="9.18" departSpeed="0.00" departDelay="0.46" arrival="200.00" arrivalLane="nt4_np5_0" arrivalPos="75.00" arrivalSpeed="17.28" duration="145.00" routeLength="1338.71" waitingTime="11.00" waitingCount="3" stopTime="0.00" timeLoss="40.03" rerouteNo="0" devices="tripinfo_f_0_0.4" vType="type1" speedFactor="0.88" vaporized=""/>
    <tripinfo id="f_0_0.5" depart="69.00" departLane="np13_nt13_0" departPos="4.79" departSpeed="0.00" departDelay="0.82" arrival="202.00" arrivalLane="nt4_np5_0" arrivalPos="75.00" arrivalSpeed="17.93" duration="133.00" routeLength="1343.10" waitingTime="5.00" waitingCount="1" stopTime="0.00" timeLoss="36.78" rerouteNo="0" devices="tripinfo_f_0_0.5" vType="type1" speedFactor="0.97" vaporized=""/>
    <tripinfo id="f_0_3.10" depart="82.00" departLane="np3_nt3_0" departPos="1.91" departSpeed="0.00" departDelay="0.18" arrival="209.00" arrivalLane="nt14_np11_0" arrivalPos="75.00" arrivalSpeed="8.80" duration="127.00" routeLength="949.18" waitingTime="8.00" waitingCount="1" stopTime="0.00" timeLoss="30.19" rerouteNo="0" devices="tripinfo_f_0_3.10" vType="type1" speedFactor="0.82" vaporized=""/>
    <tripinfo id="f_0_2.6" depart="50.00" departLane="np2_nt2_0" departPos="23.98" departSpeed="0.00" departDelay="0.91" arrival="210.00" arrivalLane="nt15_np10_0" arrivalPos="75.00" arrivalSpeed="8.32" duration="160.00" routeLength="927.10" waitingTime="30.00" waitingCount="2" stopTime="0.00" timeLoss="62.62" rerouteNo="0" devices="tripinfo_f_0_2.6" vType="type1" speedFactor="0.80" vaporized=""/>
    <tripinfo id="f_0_3.11" depart="90.00" departLane="np3_nt3_0" departPos="25.03" departSpeed="0.00" departDelay="0.00" arrival="211.00" arrivalLane="nt14_np11_0" arrivalPos="75.00" arrivalSpeed="10.31" duration="121.00" routeLength="926.06" waitingTime="7.00" waitingCount="1" stopTime="0.00" timeLoss="42.03" rerouteNo="0" devices="tripinfo_f_0_3.11" vType="type1" speedFactor="0.98" vaporized=""/>
    <tripinfo id="f_0_2.7" depart="58.00" departLane="np2_nt2_0" departPos="15.38" departSpeed="0.00" departDelay="0.73" arrival="212.00" arrivalLane="nt15_np10_0" arrivalPos="75.00" arrivalSpeed="8.86" duration="154.00" routeLength="935.70" waitingTime="30.00" waitingCount="4" stopTime="0.00" timeLoss="75.60" rerouteNo="0" devices="tripinfo_f_0_2.7" vType="type1" speedFactor="1.01" vaporized=""/>
    <tripinfo id="f_0_3.12" depart="99.00" departLane="np3_nt3_0" departPos="38.51" departSpeed="0.00" departDelay="0.82" arrival="213.00" arrivalLane="nt14_np11_0" arrivalPos="75.00" arrivalSpeed="9.34" duration="114.00" routeLength="912.58" waitingTime="2.00" waitingCount="2" stopTime="0.00" timeLoss="37.53" rerouteNo="0" devices="tripinfo_f_0_3.12" vType="type1" speedFactor="0.99" vaporized=""/>
    <tripinfo id="f_0_2.8" depart="66.00" departLane="np2_nt2_0" departPos="16.43" departSpeed="0.00" departDelay="0.54" arrival="214.00" arrivalLane="nt15_np10_0" arrivalPos="75.00" arrivalSpeed="8.89" duration="148.00" routeLength="934.65" waitingTime="30.00" waitingCount="4" stopTime="0.00" timeLoss="68.55" rerouteNo="0" devices="tripinfo_f_0_2.8" vType="type1" speedFactor="0.99" vaporized=""/>
    <tripinfo id="f_0_3.13" depart="107.00" departLane="np3_nt3_0" departPos="26.82" departSpeed="0.00" departDelay="0.63" arrival="215.00" arrivalLane="nt14_np11_0" arrivalPos="75.00" arrivalSpeed="9.94" duration="108.00" routeLength="924.27" waitingTime="6.00" waitingCount="1" stopTime="0.00" timeLoss="25.55" rerouteNo="0" devices="tripinfo_f_0_3.13" vType="type1" speedFactor="0.94" vaporized=""/>
    <tripinfo id="f_0_2.9" depart="74.00" departLane="np2_nt2_0" departPos="60.83" departSpeed="0.00" departDelay="0.36" arrival="217.00" arrivalLane="nt15_np10_0" arrivalPos="75.00" arrivalSpeed="8.88" duration="143.00" routeLength="890.25" waitingTime="27.00" waitingCount="4" stopTime="0.00" timeLoss="58.21" rerouteNo="0" devices="tripinfo_f_0_2.9" vType="type1" speedFactor="0.88" vaporized=""/>
    <tripinfo id="f_0_1.3" depart="41.00" departLane="np16_nt1_0" departPos="19.17" departSpeed="0.00" departDelay="0.09" arrival="218.00" arrivalLane="nt16_np8_0" arrivalPos="75.00" arrivalSpeed="16.35" duration="177.00" routeLength="1328.71" waitingTime="34.00" waitingCount="3" stopTime="0.00" timeLoss="75.66" rerouteNo="0" devices="tripinfo_f_0_1.3" vType="type1" speedFactor="0.91" vaporized=""/>
    <tripinfo id="f_0_3.14" depart="115.00" departLane="np3_nt3_0" departPos="22.48" departSpeed="0.00" departDelay="0.45" arrival="221.00" arrivalLane="nt14_np11_0" arrivalPos="75.00" arrivalSpeed="11.65" duration="106.00" routeLength="928.61" waitingTime="4.00" waitingCount="1" stopTime="0.00" timeLoss="39.13" rerouteNo="0" devices="tripinfo_f_0_3.14" vType="type1" speedFactor="1.18" vaporized=""/>
    <tripinfo id="f_0_2.10" depart="82.00" departLane="np2_nt2_0" departPos="36.88" departSpeed="0.00" departDelay="0.18" arrival="222.00" arrivalLane="nt15_np10_0" arrivalPos="75.00" arrivalSpeed="9.57" duration="140.00" routeLength="914.20" waitingTime="28.00" waitingCount="4" stopTime="0.00" timeLoss="65.34" rerouteNo="0" devices="tripinfo_f_0_2.10" vType="type1" speedFactor="1.03" vaporized=""/>
    <tripinfo id="f_0_0.6" depart="82.00" departLane="np13_nt13_0" departPos="13.18" departSpeed="0.00" departDelay="0.18" arrival="223.00" arrivalLane="nt4_np5_0" arrivalPos="75.00" arrivalSpeed="21.13" duration="141.00" routeLength="1334.71" waitingTime="31.00" waitingCount="3" stopTime="0.00" timeLoss="55.34" rerouteNo="0" devices="tripinfo_f_0_0.6" vType="type1" speedFactor="1.08" vaporized=""/>
    <tripinfo id="f_0_2.11" depart="90.00" departLane="np2_nt2_0" departPos="59.07" departSpeed="0.00" departDelay="0.00" arrival="224.00" arrivalLane="nt15_np10_0" arrivalPos="75.00" arrivalSpeed="10.88" duration="134.00" routeLength="892.01" waitingTime="29.00" waitingCount="4" stopTime="0.00" timeLoss="64.24" rerouteNo="0" devices="tripinfo_f_0_2.11" vType="type1" speedFactor="1.07" vaporized=""/>
    <tripinfo id="f_0_2.12" depart="99.00" departLane="np2_nt2_0" departPos="7.03" departSpeed="0.00" departDelay="0.82" arrival="226.00" arrivalLane="nt15_np10_0" arrivalPos="75.00" arrivalSpeed="9.69" duration="127.00" routeLength="944.05" waitingTime="23.00" waitingCount="4" stopTime="0.00" timeLoss="53.71" rerouteNo="0" devices="tripinfo_f_0_2.12" vType="type1" speedFactor="1.09" vaporized=""/>
    <tripinfo id="f_0_1.4" depart="55.00" departLane="np16_nt1_0" departPos="32.84" departSpeed="0.00" departDelay="0.46" arrival="230.00" arrivalLane="nt16_np8_0" arrivalPos="75.00" arrivalSpeed="15.22" duration="175.00" routeLength="1315.04" waitingTime="34.00" waitingCount="4" stopTime="0.00" timeLoss="67.21" rerouteNo="0" devices="tripinfo_f_0_1.4" vType="type1" speedFactor="0.85" vaporized=""/>
    <tripinfo id="f_0_2.13" depart="107.00" departLane="np2_nt2_0" departPos="38.32" departSpeed="0.00" departDelay="0.63" arrival="234.00" arrivalLane="nt15_np10_0" arrivalPos="75.00" arrivalSpeed="8.29" duration="127.00" routeLength="912.76" waitingTime="12.00" waitingCount="3" stopTime="0.00" timeLoss="44.91" rerouteNo="0" devices="tripinfo_f_0_2.13" vType="type1" speedFactor="0.93" vaporized=""/>
    <tripinfo id="f_0_1.5" depart="69.00" departLane="np16_nt1_0" departPos="13.32" departSpeed="0.00" departDelay="0.82" arrival="237.00" arrivalLane="nt16_np8_0" arrivalPos="75.00" arrivalSpeed="17.92" duration="168.00" routeLength="1334.56" waitingTime="34.00" waitingCount="4" stopTime="0.00" timeLoss="70.97" rerouteNo="0" devices="tripinfo_f_0_1.5" vType="type1" speedFactor="0.96" vaporized=""/>
    <tripinfo id="f_0_1.6" depart="82.00" departLane="np16_nt1_0" departPos="30.85" departSpeed="0.00" departDelay="0.18" arrival="239.00" arrivalLane="nt16_np8_0" arrivalPos="75.00" arrivalSpeed="20.43" duration="157.00" routeLength="1317.03" waitingTime="20.00" waitingCount="4" stopTime="0.00" timeLoss="72.38" rerouteNo="0" devices="tripinfo_f_0_1.6" vType="type1" speedFactor="1.10" vaporized=""/>
    <tripinfo id="f_0_3.15" depart="123.00" departLane="np3_nt3_0" departPos="37.73" departSpeed="0.00" departDelay="0.27" arrival="241.00" arrivalLane="nt14_np11_0" arrivalPos="75.00" arrivalSpeed="8.18" duration="118.00" routeLength="913.36" waitingTime="2.00" waitingCount="1" stopTime="0.00" timeLoss="22.56" rerouteNo="0" devices="tripinfo_f_0_3.15" vType="type1" speedFactor="0.81" vaporized=""/>
    <tripinfo id="f_0_0.7" depart="96.00" departLane="np13_nt13_0" departPos="14.15" departSpeed="0.00" departDelay="0.55" arrival="242.00" arrivalLane="nt4_np5_0" arrivalPos="75.00" arrivalSpeed="18.85" duration="146.00" routeLength="1333.74" waitingTime="29.00" waitingCount="3" stopTime="0.00" timeLoss="53.48" rerouteNo="0" devices="tripinfo_f_0_0.7" vType="type1" speedFactor="1.00" vaporized=""/>
    <tripinfo id="f_0_2.14" depart="115.00" departLane="np2_nt2_0" departPos="56.35" departSpeed="0.00" departDelay="0.45" arrival="247.00" arrivalLane="nt15_np10_0" arrivalPos="75.00" arrivalSpeed="10.20" duration="132.00" routeLength="894.73" waitingTime="16.00" waitingCount="3" stopTime="0.00" timeLoss="57.20" rerouteNo="0" devices="tripinfo_f_0_2.14" vType="type1" speedFactor="0.99" vaporized=""/>
    <tripinfo id="f_0_1.7" depart="96.00" departLane="np16_nt1_0" departPos="41.51" departSpeed="0.00" departDelay="0.55" arrival="260.00" arrivalLane="nt16_np8_0" arrivalPos="75.00" arrivalSpeed="15.82" duration="164.00" routeLength="1306.37" waitingTime="23.00" waitingCount="4" stopTime="0.00" timeLoss="58.82" rerouteNo="0" devices="tripinfo_f_0_1.7" vType="type1" speedFactor="0.87" vaporized=""/>
    <tripinfo id="f_0_1.8" depart="110.00" departLane="np16_nt1_0" departPos="53.67" departSpeed="0.00" departDelay="0.91" arrival="261.00" arrivalLane="nt16_np8_0" arrivalPos="75.00" arrivalSpeed="21.81" duration="151.00" routeLength="1294.21" waitingTime="14.00" waitingCount="4" stopTime="0.00" timeLoss="67.75" rerouteNo="0" devices="tripinfo_f_0_1.8" vType="type1" speedFactor="1.09" vaporized=""/>
    <tripinfo id="f_0_2.15" depart="123.00" departLane="np2_nt2_0" departPos="60.27" departSpeed="0.00" departDelay="0.27" arrival="272.00" arrivalLane="nt15_np10_0" arrivalPos="75.00" arrivalSpeed="9.06" duration="149.00" routeLength="890.81" waitingTime="35.00" waitingCount="5" stopTime="0.00" timeLoss="75.29" rerouteNo="0" devices="tripinfo_f_0_2.15" vType="type1" speedFactor="1.01" vaporized=""/>
    <tripinfo id="f_0_2.16" depart="131.00" departLane="np2_nt2_0" departPos="46.95" departSpeed="0.00" departDelay="0.09" arrival="274.00" arrivalLane="nt15_np10_0" arrivalPos="75.00" arrivalSpeed="9.01" duration="143.00" routeLength="904.13" waitingTime="30.00" waitingCount="5" stopTime="0.00" timeLoss="67.76" rerouteNo="0" devices="tripinfo_f_0_2.16" vType="type1" speedFactor="1.00" vaporized=""/>
    <tripinfo id="f_0_1.9" depart="123.00" departLane="np16_nt1_0" departPos="6.25" departSpeed="0.00" departDelay="0.28" arrival="284.00" arrivalLane="nt16_np8_0" arrivalPos="75.00" arrivalSpeed="18.00" duration="161.00" routeLength="1341.63" waitingTime="25.00" waitingCount="5" stopTime="0.00" timeLoss="68.37" rerouteNo="0" devices="tripinfo_f_0_1.9" vType="type1" speedFactor="1.00" vaporized=""/>
    <tripinfo id="f_0_0.8" depart="110.00" departLane="np13_nt13_0" departPos="49.98" departSpeed="0.00" departDelay="0.91" arrival="288.00" arrivalLane="nt4_np5_0" arrivalPos="75.00" arrivalSpeed="20.19" duration="178.00" routeLength="1297.91" waitingTime="51.00" waitingCount="6" stopTime="0.00" timeLoss="90.37" rerouteNo="0" devices="tripinfo_f_0_0.8" vType="type1" speedFactor="1.04" vaporized=""/>
    <tripinfo id="f_0_0.9" depart="123.00" departLane="np13_nt13_0" departPos="30.10" departSpeed="0.00" departDelay="0.28" arrival="290.00" arrivalLane="nt4_np5_0" arrivalPos="75.00" arrivalSpeed="17.50" duration="167.00" routeLength="1317.79" waitingTime="31.00" waitingCount="4" stopTime="0.00" timeLoss="67.61" rerouteNo="0" devices="tripinfo_f_0_0.9" vType="type1" speedFactor="0.93" vaporized=""/>
    <tripinfo id="f_0_0.10" depart="137.00" departLane="np13_nt13_0" departPos="56.80" departSpeed="0.00" departDelay="0.64" arrival="292.00" arrivalLane="nt4_np5_0" arrivalPos="75.00" arrivalSpeed="14.99" duration="155.00" routeLength="1291.09" waitingTime="16.00" waitingCount="3" stopTime="0.00" timeLoss="51.44" rerouteNo="0" devices="tripinfo_f_0_0.10" vType="type1" speedFactor="0.87" vaporized=""/>
    <tripinfo id="f_0_3.16" depart="131.00" departLane="np3_nt3_0" departPos="2.42" departSpeed="0.00" departDelay="0.09" arrival="298.00" arrivalLane="nt14_np11_0" arrivalPos="75.00" arrivalSpeed="9.12" duration="167.00" routeLength="948.67" waitingTime="50.00" waitingCount="4" stopTime="0.00" timeLoss="76.90" rerouteNo="0" devices="tripinfo_f_0_3.16" vType="type1" speedFactor="0.89" vaporized=""/>
    <tripinfo id="f_0_1.10" depart="137.00" departLane="np16_nt1_0" departPos="16.82" departSpeed="0.00" departDelay="0.64" arrival="300.00" arrivalLane="nt16_np8_0" arrivalPos="75.00" arrivalSpeed="16.68" duration="163.00" routeLength="1331.06" waitingTime="31.00" waitingCount="3" stopTime="0.00" timeLoss="57.15" rerouteNo="0" devices="tripinfo_f_0_1.10" vType="type1" speedFactor="0.88" vaporized=""/>
    <tripinfo id="f_0_3.17" depart="140.00" departLane="np3_nt3_0" departPos="31.50" departSpeed="0.00" departDelay="0.91" arrival="300.00" arrivalLane="nt14_np11_0" arrivalPos="75.00" arrivalSpeed="10.76" duration="160.00" routeLength="919.59" waitingTime="47.00" waitingCount="4" stopTime="0.00" timeLoss="85.26" rerouteNo="0" devices="tripinfo_f_0_3.17" vType="type1" speedFactor="1.03" vaporized=""/>
    <tripinfo id="f_0_3.18" depart="148.00" departLane="np3_nt3_0" departPos="33.68" departSpeed="0.00" departDelay="0.72" arrival="312.00" arrivalLane="nt14_np11_0" arrivalPos="75.00" arrivalSpeed="10.88" duration="164.00" routeLength="917.41" waitingTime="49.00" waitingCount="6" stopTime="0.00" timeLoss="90.90" rerouteNo="0" devices="tripinfo_f_0_3.18" vType="type1" speedFactor="1.06" vaporized=""/>
    <tripinfo id="f_0_3.19" depart="156.00" departLane="np3_nt3_0" departPos="18.00" departSpeed="0.00" departDelay="0.54" arrival="315.00" arrivalLane="nt14_np11_0" arrivalPos="75.00" arrivalSpeed="10.47" duration="159.00" routeLength="933.09" waitingTime="41.00" waitingCount="6" stopTime="0.00" timeLoss="78.82" rerouteNo="0" devices="tripinfo_f_0_3.19" vType="type1" speedFactor="0.98" vaporized=""/>
    <tripinfo id="f_0_0.11" depart="150.00" departLane="np13_nt13_0" departPos="59.72" departSpeed="0.00" departDelay="0.00" arrival="319.00" arrivalLane="nt4_np5_0" arrivalPos="75.00" arrivalSpeed="17.68" duration="169.00" routeLength="1288.17" waitingTime="40.00" waitingCount="5" stopTime="0.00" timeLoss="76.07" rerouteNo="0" devices="tripinfo_f_0_0.11" vType="type1" speedFactor="0.98" vaporized=""/>
    <tripinfo id="f_0_0.12" depart="164.00" departLane="np13_nt13_0" departPos="8.16" departSpeed="0.00" departDelay="0.37" arrival="320.00" arrivalLane="nt4_np5_0" arrivalPos="75.00" arrivalSpeed="19.73" duration="156.00" routeLength="1339.73" waitingTime="23.00" waitingCount="5" stopTime="0.00" timeLoss="71.32" rerouteNo="0" devices="tripinfo_f_0_0.12" vType="type1" speedFactor="1.09" vaporized=""/>
    <tripinfo id="f_0_3.20" depart="164.00" departLane="np3_nt3_0" departPos="13.92" departSpeed="0.00" departDelay="0.36" arrival="327.00" arrivalLane="nt14_np11_0" arrivalPos="75.00" arrivalSpeed="10.69" duration="163.00" routeLength="937.17" waitingTime="42.00" waitingCount="5" stopTime="0.00" timeLoss="87.83" rerouteNo="0" devices="tripinfo_f_0_3.20" vType="type1" speedFactor="1.05" vaporized=""/>
    <tripinfo id="f_0_3.21" depart="172.00" departLane="np3_nt3_0" departPos="5.90" departSpeed="0.00" departDelay="0.18" arrival="329.00" arrivalLane="nt14_np11_0" arrivalPos="75.00" arrivalSpeed="10.76" duration="157.00" routeLength="945.19" waitingTime="36.00" waitingCount="3" stopTime="0.00" timeLoss="79.58" rerouteNo="0" devices="tripinfo_f_0_3.21" vType="type1" speedFactor="1.03" vaporized=""/>
    <tripinfo id="f_0_3.22" depart="180.00" departLane="np3_nt3_0" departPos="9.40" departSpeed="0.00" departDelay="0.00" arrival="332.00" arrivalLane="nt14_np11_0" arrivalPos="75.00" arrivalSpeed="8.81" duration="152.00" routeLength="941.69" waitingTime="25.00" waitingCount="4" stopTime="0.00" timeLoss="72.26" rerouteNo="0" devices="tripinfo_f_0_3.22" vType="type1" speedFactor="0.99" vaporized=""/>
    <tripinfo id="f_0_0.13" depart="178.00" departLane="np13_nt13_0" departPos="0.90" departSpeed="0.00" departDelay="0.73" arrival="333.00" arrivalLane="nt4_np5_0" arrivalPos="75.00" arrivalSpeed="15.74" duration="155.00" routeLength="1346.99" waitingTime="17.00" waitingCount="4" stopTime="0.00" timeLoss="46.08" rerouteNo="0" devices="tripinfo_f_0_0.13" vType="type1" speedFactor="0.85" vaporized=""/>
    <tripinfo id="f_0_3.23" depart="189.00" departLane="np3_nt3_0" departPos="20.40" departSpeed="0.00" departDelay="0.81" arrival="334.00" arrivalLane="nt14_np11_0" arrivalPos="75.00" arrivalSpeed="10.78" duration="145.00" routeLength="930.69" waitingTime="21.00" waitingCount="4" stopTime="0.00" timeLoss="73.71" rerouteNo="0" devices="tripinfo_f_0_3.23" vType="type1" speedFactor="1.10" vaporized=""/>
    <tripinfo id="f_0_2.17" depart="140.00" departLane="np2_nt2_0" departPos="42.93" departSpeed="0.00" departDelay="0.91" arrival="336.00" arrivalLane="nt15_np10_0" arrivalPos="75.00" arrivalSpeed="11.27" duration="196.00" routeLength="908.15" waitingTime="82.00" waitingCount="4" stopTime="0.00" timeLoss="125.83" rerouteNo="0" devices="tripinfo_f_0_2.17" vType="type1" speedFactor="1.08" vaporized=""/>
    <tripinfo id="f_0_2.18" depart="148.00" departLane="np2_nt2_0" departPos="33.94" departSpeed="0.00" departDelay="0.72" arrival="338.00" arrivalLane="nt15_np10_0" arrivalPos="75.00" arrivalSpeed="11.93" duration="190.00" routeLength="917.14" waitingTime="77.00" waitingCount="4" stopTime="0.00" timeLoss="126.98" rerouteNo="0" devices="tripinfo_f_0_2.18" vType="type1" speedFactor="1.23" vaporized=""/>
    <tripinfo id="f_0_3.24" depart="197.00" departLane="np3_nt3_0" departPos="54.25" departSpeed="0.00" departDelay="0.63" arrival="343.00" arrivalLane="nt14_np11_0" arrivalPos="75.00" arrivalSpeed="8.52" duration="146.00" routeLength="896.84" waitingTime="31.00" waitingCount="7" stopTime="0.00" timeLoss="65.12" rerouteNo="0" devices="tripinfo_f_0_3.24" vType="type1" speedFactor="0.93" vaporized=""/>
    <tripinfo id="f_0_2.19" depart="156.00" departLane="np2_nt2_0" departPos="31.11" departSpeed="0.00" departDelay="0.54" arrival="346.00" arrivalLane="nt15_np10_0" arrivalPos="75.00" arrivalSpeed="8.27" duration="190.00" routeLength="919.97" waitingTime="65.00" waitingCount="9" stopTime="0.00" timeLoss="106.46" rerouteNo="0" devices="tripinfo_f_0_2.19" vType="type1" speedFactor="0.92" vaporized=""/>
    <tripinfo id="f_0_3.25" depart="205.00" departLane="np3_nt3_0" departPos="21.76" departSpeed="0.00" departDelay="0.45" arrival="346.00" arrivalLane="nt14_np11_0" arrivalPos="75.00" arrivalSpeed="8.13" duration="141.00" routeLength="929.33" waitingTime="18.00" waitingCount="6" stopTime="0.00" timeLoss="53.11" rerouteNo="0" devices="tripinfo_f_0_3.25" vType="type1" speedFactor="0.89" vaporized=""/>