<?xml version="1.0" encoding="UTF-8"?>

<!-- generated on 2023-08-23 16:30:01 by Eclipse SUMO libsumo Version 1.18.0
<configuration xmlns:xsi="http://www.w3.org/2001/XMLSchema-instance" xsi:noNamespaceSchemaLocation="http://sumo.dlr.de/xsd/libsumoConfiguration.xsd">

    <input>
        <net-file value="/home/stefan/RESCO/./environments/arterial4x4/arterial4x4.net.xml"/>
        <route-files value="/home/stefan/RESCO/./environments/arterial4x4/arterial4x4_49.rou.xml"/>
    </input>

    <output>
        <tripinfo-output value="/home/stefan/results/IDDQN-tr0-arterial4x4-0-drq_norm-wait_norm/tripinfo_49.xml"/>
        <tripinfo-output.write-unfinished value="true"/>
    </output>

    <processing>
        <time-to-teleport value="-1"/>
    </processing>

    <report>
        <no-warnings value="True"/>
        <no-step-log value="True"/>
    </report>

    <random_number>
        <random value="true"/>
    </random_number>

</configuration>
-->

<tripinfos xmlns:xsi="http://www.w3.org/2001/XMLSchema-instance" xsi:noNamespaceSchemaLocation="http://sumo.dlr.de/xsd/tripinfo_file.xsd">
    <tripinfo id="f_0_2.0" depart="0.00" departLane="np2_nt2_0" departPos="35.87" departSpeed="0.00" departDelay="0.00" arrival="171.00" arrivalLane="nt15_np10_0" arrivalPos="75.00" arrivalSpeed="9.93" duration="171.00" routeLength="915.21" waitingTime="79.00" waitingCount="3" stopTime="0.00" timeLoss="99.13" rerouteNo="0" devices="tripinfo_f_0_2.0" vType="type1" speedFactor="1.07" vaporized=""/>
    <tripinfo id="f_0_3.0" depart="0.00" departLane="np3_nt3_0" departPos="58.50" departSpeed="0.00" departDelay="0.00" arrival="187.00" arrivalLane="nt14_np11_0" arrivalPos="75.00" arrivalSpeed="9.33" duration="187.00" routeLength="892.59" waitingTime="88.00" waitingCount="4" stopTime="0.00" timeLoss="113.19" rerouteNo="0" devices="tripinfo_f_0_3.0" vType="type1" speedFactor="1.01" vaporized=""/>
    <tripinfo id="f_0_3.1" depart="9.00" departLane="np3_nt3_0" departPos="7.25" departSpeed="0.00" departDelay="0.82" arrival="189.00" arrivalLane="nt14_np11_0" arrivalPos="75.00" arrivalSpeed="9.10" duration="180.00" routeLength="943.84" waitingTime="73.00" waitingCount="6" stopTime="0.00" timeLoss="101.32" rerouteNo="0" devices="tripinfo_f_0_3.1" vType="type1" speedFactor="1.01" vaporized=""/>
    <tripinfo id="f_0_3.2" depart="17.00" departLane="np3_nt3_0" departPos="2.92" departSpeed="0.00" departDelay="0.64" arrival="191.00" arrivalLane="nt14_np11_0" arrivalPos="75.00" arrivalSpeed="9.42" duration="174.00" routeLength="948.17" waitingTime="56.00" waitingCount="7" stopTime="0.00" timeLoss="96.83" rerouteNo="0" devices="tripinfo_f_0_3.2" vType="type1" speedFactor="1.03" vaporized=""/>
    <tripinfo id="f_0_3.3" depart="25.00" departLane="np3_nt3_0" departPos="32.85" departSpeed="0.00" departDelay="0.45" arrival="193.00" arrivalLane="nt14_np11_0" arrivalPos="75.00" arrivalSpeed="10.83" duration="168.00" routeLength="918.24" waitingTime="53.00" waitingCount="6" stopTime="0.00" timeLoss="96.04" rerouteNo="0" devices="tripinfo_f_0_3.3" vType="type1" speedFactor="1.06" vaporized=""/>
    <tripinfo id="f_0_3.4" depart="33.00" departLane="np3_nt3_0" departPos="4.11" departSpeed="0.00" departDelay="0.27" arrival="195.00" arrivalLane="nt14_np11_0" arrivalPos="75.00" arrivalSpeed="9.90" duration="162.00" routeLength="946.98" waitingTime="44.00" waitingCount="7" stopTime="0.00" timeLoss="90.31" rerouteNo="0" devices="tripinfo_f_0_3.4" vType="type1" speedFactor="1.11" vaporized=""/>
    <tripinfo id="f_0_0.0" depart="0.00" departLane="np13_nt13_0" departPos="26.73" departSpeed="0.00" departDelay="0.00" arrival="197.00" arrivalLane="nt4_np5_0" arrivalPos="75.00" arrivalSpeed="12.70" duration="197.00" routeLength="1321.16" waitingTime="36.00" waitingCount="5" stopTime="0.00" timeLoss="74.61" rerouteNo="0" devices="tripinfo_f_0_0.0" vType="type1" speedFactor="0.75" vaporized=""/>
    <tripinfo id="f_0_0.1" depart="14.00" departLane="np13_nt13_0" departPos="54.76" departSpeed="0.00" departDelay="0.36" arrival="198.00" arrivalLane="nt4_np5_0" arrivalPos="75.00" arrivalSpeed="18.13" duration="184.00" routeLength="1293.13" waitingTime="24.00" waitingCount="5" stopTime="0.00" timeLoss="111.53" rerouteNo="0" devices="tripinfo_f_0_0.1" vType="type1" speedFactor="1.24" vaporized=""/>
    <tripinfo id="f_0_3.5" depart="41.00" departLane="np3_nt3_0" departPos="28.87" departSpeed="0.00" departDelay="0.09" arrival="198.00" arrivalLane="nt14_np11_0" arrivalPos="75.00" arrivalSpeed="9.66" duration="157.00" routeLength="922.22" waitingTime="32.00" waitingCount="4" stopTime="0.00" timeLoss="76.97" rerouteNo="0" devices="tripinfo_f_0_3.5" vType="type1" speedFactor="0.96" vaporized=""/>
    <tripinfo id="f_0_0.2" depart="28.00" departLane="np13_nt13_0" departPos="49.78" departSpeed="0.00" departDelay="0.73" arrival="200.00" arrivalLane="nt4_np5_0" arrivalPos="75.00" arrivalSpeed="17.41" duration="172.00" routeLength="1298.11" waitingTime="20.00" waitingCount="7" stopTime="0.00" timeLoss="78.98" rerouteNo="0" devices="tripinfo_f_0_0.2" vType="type1" speedFactor="0.98" vaporized=""/>
    <tripinfo id="f_0_0.3" depart="41.00" departLane="np13_nt13_0" departPos="59.32" departSpeed="0.00" departDelay="0.09" arrival="201.00" arrivalLane="nt4_np5_0" arrivalPos="75.00" arrivalSpeed="17.90" duration="160.00" routeLength="1288.57" waitingTime="7.00" waitingCount="4" stopTime="0.00" timeLoss="71.59" rerouteNo="0" devices="tripinfo_f_0_0.3" vType="type1" speedFactor="1.01" vaporized=""/>
    <tripinfo id="f_0_2.1" depart="9.00" departLane="np2_nt2_0" departPos="6.62" departSpeed="0.00" departDelay="0.82" arrival="203.00" arrivalLane="nt15_np10_0" arrivalPos="75.00" arrivalSpeed="8.63" duration="194.00" routeLength="944.46" waitingTime="72.00" waitingCount="6" stopTime="0.00" timeLoss="110.66" rerouteNo="0" devices="tripinfo_f_0_2.1" vType="type1" speedFactor="0.95" vaporized=""/>
    <tripinfo id="f_0_0.4" depart="55.00" departLane="np13_nt13_0" departPos="11.24" departSpeed="0.00" departDelay="0.46" arrival="203.00" arrivalLane="nt4_np5_0" arrivalPos="75.00" arrivalSpeed="19.90" duration="148.00" routeLength="1336.65" waitingTime="10.00" waitingCount="4" stopTime="0.00" timeLoss="59.72" rerouteNo="0" devices="tripinfo_f_0_0.4" vType="type1" speedFactor="1.05" vaporized=""/>
    <tripinfo id="f_0_2.2" depart="17.00" departLane="np2_nt2_0" departPos="40.54" departSpeed="0.00" departDelay="0.64" arrival="205.00" arrivalLane="nt15_np10_0" arrivalPos="75.00" arrivalSpeed="9.96" duration="188.00" routeLength="910.54" waitingTime="81.00" waitingCount="7" stopTime="0.00" timeLoss="119.64" rerouteNo="0" devices="tripinfo_f_0_2.2" vType="type1" speedFactor="1.11" vaporized=""/>
    <tripinfo id="f_0_1.0" depart="0.00" departLane="np16_nt1_0" departPos="34.86" departSpeed="0.00" departDelay="0.00" arrival="208.00" arrivalLane="nt16_np8_0" arrivalPos="75.00" arrivalSpeed="18.71" duration="208.00" routeLength="1313.02" waitingTime="79.00" waitingCount="5" stopTime="0.00" timeLoss="118.15" rerouteNo="0" devices="tripinfo_f_0_1.0" vType="type1" speedFactor="1.01" vaporized=""/>
    <tripinfo id="f_0_2.3" depart="25.00" departLane="np2_nt2_0" departPos="24.64" departSpeed="0.00" departDelay="0.45" arrival="211.00" arrivalLane="nt15_np10_0" arrivalPos="75.00" arrivalSpeed="8.86" duration="186.00" routeLength="926.44" waitingTime="46.00" waitingCount="5" stopTime="0.00" timeLoss="92.48" rerouteNo="0" devices="tripinfo_f_0_2.3" vType="type1" speedFactor="0.83" vaporized=""/>
    <tripinfo id="f_0_3.6" depart="50.00" departLane="np3_nt3_0" departPos="9.10" departSpeed="0.00" departDelay="0.91" arrival="212.00" arrivalLane="nt14_np11_0" arrivalPos="75.00" arrivalSpeed="10.33" duration="162.00" routeLength="941.99" waitingTime="48.00" waitingCount="6" stopTime="0.00" timeLoss="85.43" rerouteNo="0" devices="tripinfo_f_0_3.6" vType="type1" speedFactor="1.04" vaporized=""/>
    <tripinfo id="f_0_3.7" depart="58.00" departLane="np3_nt3_0" departPos="22.57" departSpeed="0.00" departDelay="0.73" arrival="215.00" arrivalLane="nt14_np11_0" arrivalPos="75.00" arrivalSpeed="8.75" duration="157.00" routeLength="928.52" waitingTime="39.00" waitingCount="5" stopTime="0.00" timeLoss="77.91" rerouteNo="0" devices="tripinfo_f_0_3.7" vType="type1" speedFactor="0.99" vaporized=""/>
    <tripinfo id="f_0_2.4" depart="33.00" departLane="np2_nt2_0" departPos="31.79" departSpeed="0.00" departDelay="0.27" arrival="218.00" arrivalLane="nt15_np10_0" arrivalPos="75.00" arrivalSpeed="8.75" duration="185.00" routeLength="919.29" waitingTime="43.00" waitingCount="6" stopTime="0.00" timeLoss="102.08" rerouteNo="0" devices="tripinfo_f_0_2.4" vType="type1" speedFactor="0.93" vaporized=""/>
    <tripinfo id="f_0_0.5" depart="69.00" departLane="np13_nt13_0" departPos="20.34" departSpeed="0.00" departDelay="0.82" arrival="219.00" arrivalLane="nt4_np5_0" arrivalPos="75.00" arrivalSpeed="16.54" duration="150.00" routeLength="1327.55" waitingTime="10.00" waitingCount="4" stopTime="0.00" timeLoss="52.28" rerouteNo="0" devices="tripinfo_f_0_0.5" vType="type1" speedFactor="0.95" vaporized=""/>
    <tripinfo id="f_0_2.5" depart="41.00" departLane="np2_nt2_0" departPos="33.96" departSpeed="0.00" departDelay="0.09" arrival="232.00" arrivalLane="nt15_np10_0" arrivalPos="75.00" arrivalSpeed="10.05" duration="191.00" routeLength="917.12" waitingTime="47.00" waitingCount="8" stopTime="0.00" timeLoss="120.13" rerouteNo="0" devices="tripinfo_f_0_2.5" vType="type1" speedFactor="1.08" vaporized=""/>
    <tripinfo id="f_0_3.8" depart="66.00" departLane="np3_nt3_0" departPos="46.63" departSpeed="0.00" departDelay="0.54" arrival="232.00" arrivalLane="nt14_np11_0" arrivalPos="75.00" arrivalSpeed="11.19" duration="166.00" routeLength="904.46" waitingTime="48.00" waitingCount="7" stopTime="0.00" timeLoss="95.00" rerouteNo="0" devices="tripinfo_f_0_3.8" vType="type1" speedFactor="1.07" vaporized=""/>
    <tripinfo id="f_0_1.1" depart="14.00" departLane="np16_nt1_0" departPos="51.75" departSpeed="0.00" departDelay="0.36" arrival="234.00" arrivalLane="nt16_np8_0" arrivalPos="75.00" arrivalSpeed="19.93" duration="220.00" routeLength="1296.13" waitingTime="80.00" waitingCount="6" stopTime="0.00" timeLoss="130.23" rerouteNo="0" devices="tripinfo_f_0_1.1" vType="type1" speedFactor="1.02" vaporized=""/>
    <tripinfo id="f_0_3.9" depart="74.00" departLane="np3_nt3_0" departPos="24.47" departSpeed="0.00" departDelay="0.36" arrival="234.00" arrivalLane="nt14_np11_0" arrivalPos="75.00" arrivalSpeed="9.20" duration="160.00" routeLength="926.62" waitingTime="46.00" waitingCount="5" stopTime="0.00" timeLoss="85.10" rerouteNo="0" devices="tripinfo_f_0_3.9" vType="type1" speedFactor="1.03" vaporized=""/>
    <tripinfo id="f_0_1.2" depart="28.00" departLane="np16_nt1_0" departPos="41.60" departSpeed="0.00" departDelay="0.73" arrival="235.00" arrivalLane="nt16_np8_0" arrivalPos="75.00" arrivalSpeed="21.38" duration="207.00" routeLength="1306.28" waitingTime="38.00" waitingCount="8" stopTime="0.00" timeLoss="133.28" rerouteNo="0" devices="tripinfo_f_0_1.2" vType="type1" speedFactor="1.24" vaporized=""/>
    <tripinfo id="f_0_2.6" depart="50.00" departLane="np2_nt2_0" departPos="28.28" departSpeed="0.00" departDelay="0.91" arrival="237.00" arrivalLane="nt15_np10_0" arrivalPos="75.00" arrivalSpeed="9.39" duration="187.00" routeLength="922.80" waitingTime="47.00" waitingCount="9" stopTime="0.00" timeLoss="114.26" rerouteNo="0" devices="tripinfo_f_0_2.6" vType="type1" speedFactor="1.06" vaporized=""/>
    <tripinfo id="f_0_3.10" depart="82.00" departLane="np3_nt3_0" departPos="16.73" departSpeed="0.00" departDelay="0.18" arrival="238.00" arrivalLane="nt14_np11_0" arrivalPos="75.00" arrivalSpeed="7.84" duration="156.00" routeLength="934.36" waitingTime="37.00" waitingCount="5" stopTime="0.00" timeLoss="67.13" rerouteNo="0" devices="tripinfo_f_0_3.10" vType="type1" speedFactor="0.88" vaporized=""/>
    <tripinfo id="f_0_2.7" depart="58.00" departLane="np2_nt2_0" departPos="30.07" departSpeed="0.00" departDelay="0.73" arrival="239.00" arrivalLane="nt15_np10_0" arrivalPos="75.00" arrivalSpeed="12.56" duration="181.00" routeLength="921.01" waitingTime="38.00" waitingCount="9" stopTime="0.00" timeLoss="114.37" rerouteNo="0" devices="tripinfo_f_0_2.7" vType="type1" speedFactor="1.16" vaporized=""/>
    <tripinfo id="f_0_3.11" depart="90.00" departLane="np3_nt3_0" departPos="35.30" departSpeed="0.00" departDelay="0.00" arrival="240.00" arrivalLane="nt14_np11_0" arrivalPos="75.00" arrivalSpeed="11.04" duration="150.00" routeLength="915.79" waitingTime="29.00" waitingCount="3" stopTime="0.00" timeLoss="73.80" rerouteNo="0" devices="tripinfo_f_0_3.11" vType="type1" speedFactor="1.02" vaporized=""/>
    <tripinfo id="f_0_0.6" depart="82.00" departLane="np13_nt13_0" departPos="20.75" departSpeed="0.00" departDelay="0.18" arrival="243.00" arrivalLane="nt4_np5_0" arrivalPos="75.00" arrivalSpeed="22.58" duration="161.00" routeLength="1327.14" waitingTime="46.00" waitingCount="4" stopTime="0.00" timeLoss="84.03" rerouteNo="0" devices="tripinfo_f_0_0.6" vType="type1" speedFactor="1.20" vaporized=""/>
    <tripinfo id="f_0_0.7" depart="96.00" departLane="np13_nt13_0" departPos="21.92" departSpeed="0.00" departDelay="0.55" arrival="253.00" arrivalLane="nt4_np5_0" arrivalPos="75.00" arrivalSpeed="18.61" duration="157.00" routeLength="1325.97" waitingTime="44.00" waitingCount="1" stopTime="0.00" timeLoss="67.00" rerouteNo="0" devices="tripinfo_f_0_0.7" vType="type1" speedFactor="1.02" vaporized=""/>
    <tripinfo id="f_0_0.8" depart="110.00" departLane="np13_nt13_0" departPos="54.76" departSpeed="0.00" departDelay="0.91" arrival="256.00" arrivalLane="nt4_np5_0" arrivalPos="75.00" arrivalSpeed="21.82" duration="146.00" routeLength="1293.13" waitingTime="39.00" waitingCount="2" stopTime="0.00" timeLoss="64.99" rerouteNo="0" devices="tripinfo_f_0_0.8" vType="type1" speedFactor="1.12" vaporized=""/>
    <tripinfo id="f_0_1.3" depart="41.00" departLane="np16_nt1_0" departPos="34.58" departSpeed="0.00" departDelay="0.09" arrival="259.00" arrivalLane="nt16_np8_0" arrivalPos="75.00" arrivalSpeed="17.26" duration="218.00" routeLength="1313.30" waitingTime="60.00" waitingCount="9" stopTime="0.00" timeLoss="119.27" rerouteNo="0" devices="tripinfo_f_0_1.3" vType="type1" speedFactor="0.93" vaporized=""/>
    <tripinfo id="f_0_3.12" depart="99.00" departLane="np3_nt3_0" departPos="27.45" departSpeed="0.00" departDelay="0.82" arrival="267.00" arrivalLane="nt14_np11_0" arrivalPos="75.00" arrivalSpeed="10.06" duration="168.00" routeLength="923.64" waitingTime="51.00" waitingCount="4" stopTime="0.00" timeLoss="85.30" rerouteNo="0" devices="tripinfo_f_0_3.12" vType="type1" speedFactor="0.94" vaporized=""/>
    <tripinfo id="f_0_3.13" depart="107.00" departLane="np3_nt3_0" departPos="20.92" departSpeed="0.00" departDelay="0.63" arrival="270.00" arrivalLane="nt14_np11_0" arrivalPos="75.00" arrivalSpeed="10.08" duration="163.00" routeLength="930.17" waitingTime="42.00" waitingCount="4" stopTime="0.00" timeLoss="79.38" rerouteNo="0" devices="tripinfo_f_0_3.13" vType="type1" speedFactor="0.94" vaporized=""/>
    <tripinfo id="f_0_1.4" depart="55.00" departLane="np16_nt1_0" departPos="37.09" departSpeed="0.00" departDelay="0.46" arrival="279.00" arrivalLane="nt16_np8_0" arrivalPos="75.00" arrivalSpeed="15.45" duration="224.00" routeLength="1310.79" waitingTime="40.00" waitingCount="9" stopTime="0.00" timeLoss="112.34" rerouteNo="0" devices="tripinfo_f_0_1.4" vType="type1" speedFactor="0.82" vaporized=""/>
    <tripinfo id="f_0_3.14" depart="115.00" departLane="np3_nt3_0" departPos="15.81" departSpeed="0.00" departDelay="0.45" arrival="281.00" arrivalLane="nt14_np11_0" arrivalPos="75.00" arrivalSpeed="11.85" duration="166.00" routeLength="935.28" waitingTime="70.00" waitingCount="5" stopTime="0.00" timeLoss="97.16" rerouteNo="0" devices="tripinfo_f_0_3.14" vType="type1" speedFactor="1.14" vaporized=""/>
    <tripinfo id="f_0_3.15" depart="123.00" departLane="np3_nt3_0" departPos="39.79" departSpeed="0.00" departDelay="0.27" arrival="283.00" arrivalLane="nt14_np11_0" arrivalPos="75.00" arrivalSpeed="11.48" duration="160.00" routeLength="911.30" waitingTime="57.00" waitingCount="6" stopTime="0.00" timeLoss="92.09" rerouteNo="0" devices="tripinfo_f_0_3.15" vType="type1" speedFactor="1.12" vaporized=""/>
    <tripinfo id="f_0_2.8" depart="66.00" departLane="np2_nt2_0" departPos="14.98" departSpeed="0.00" departDelay="0.54" arrival="293.00" arrivalLane="nt15_np10_0" arrivalPos="75.00" arrivalSpeed="9.04" duration="227.00" routeLength="936.10" waitingTime="58.00" waitingCount="9" stopTime="0.00" timeLoss="143.44" rerouteNo="0" devices="tripinfo_f_0_2.8" vType="type1" speedFactor="0.94" vaporized=""/>
    <tripinfo id="f_0_3.16" depart="131.00" departLane="np3_nt3_0" departPos="2.77" departSpeed="0.00" departDelay="0.09" arrival="293.00" arrivalLane="nt14_np11_0" arrivalPos="75.00" arrivalSpeed="9.03" duration="162.00" routeLength="948.32" waitingTime="42.00" waitingCount="6" stopTime="0.00" timeLoss="77.97" rerouteNo="0" devices="tripinfo_f_0_3.16" vType="type1" speedFactor="0.95" vaporized=""/>
    <tripinfo id="f_0_3.17" depart="140.00" departLane="np3_nt3_0" departPos="31.09" departSpeed="0.00" departDelay="0.91" arrival="295.00" arrivalLane="nt14_np11_0" arrivalPos="75.00" arrivalSpeed="10.38" duration="155.00" routeLength="920.00" waitingTime="39.00" waitingCount="5" stopTime="0.00" timeLoss="79.26" rerouteNo="0" devices="tripinfo_f_0_3.17" vType="type1" speedFactor="1.03" vaporized=""/>
    <tripinfo id="f_0_3.18" depart="148.00" departLane="np3_nt3_0" departPos="30.23" departSpeed="0.00" departDelay="0.72" arrival="297.00" arrivalLane="nt14_np11_0" arrivalPos="75.00" arrivalSpeed="9.22" duration="149.00" routeLength="920.86" waitingTime="33.00" waitingCount="6" stopTime="0.00" timeLoss="71.53" rerouteNo="0" devices="tripinfo_f_0_3.18" vType="type1" speedFactor="1.00" vaporized=""/>
    <tripinfo id="f_0_2.9" depart="74.00" departLane="np2_nt2_0" departPos="16.82" departSpeed="0.00" departDelay="0.36" arrival="306.00" arrivalLane="nt15_np10_0" arrivalPos="75.00" arrivalSpeed="11.89" duration="232.00" routeLength="934.26" waitingTime="68.00" waitingCount="11" stopTime="0.00" timeLoss="164.22" rerouteNo="0" devices="tripinfo_f_0_2.9" vType="type1" speedFactor="1.15" vaporized=""/>
    <tripinfo id="f_0_2.10" depart="82.00" departLane="np2_nt2_0" departPos="47.43" departSpeed="0.00" departDelay="0.18" arrival="309.00" arrivalLane="nt15_np10_0" arrivalPos="75.00" arrivalSpeed="10.80" duration="227.00" routeLength="903.65" waitingTime="62.00" waitingCount="10" stopTime="0.00" timeLoss="154.77" rerouteNo="0" devices="tripinfo_f_0_2.10" vType="type1" speedFactor="1.05" vaporized=""/>
    <tripinfo id="f_0_2.11" depart="90.00" departLane="np2_nt2_0" departPos="24.53" departSpeed="0.00" departDelay="0.00" arrival="311.00" arrivalLane="nt15_np10_0" arrivalPos="75.00" arrivalSpeed="11.26" duration="221.00" routeLength="926.55" waitingTime="52.00" waitingCount="8" stopTime="0.00" timeLoss="153.93" rerouteNo="0" devices="tripinfo_f_0_2.11" vType="type1" speedFactor="1.17" vaporized=""/>
    <tripinfo id="f_0_3.19" depart="156.00" departLane="np3_nt3_0" departPos="4.05" departSpeed="0.00" departDelay="0.54" arrival="312.00" arrivalLane="nt14_np11_0" arrivalPos="75.00" arrivalSpeed="7.96" duration="156.00" routeLength="947.04" waitingTime="25.00" waitingCount="6" stopTime="0.00" timeLoss="64.99" rerouteNo="0" devices="tripinfo_f_0_3.19" vType="type1" speedFactor="0.87" vaporized=""/>
    <tripinfo id="f_0_0.9" depart="123.00" departLane="np13_nt13_0" departPos="5.97" departSpeed="0.00" departDelay="0.28" arrival="313.00" arrivalLane="nt4_np5_0" arrivalPos="75.00" arrivalSpeed="16.56" duration="190.00" routeLength="1341.92" waitingTime="55.00" waitingCount="6" stopTime="0.00" timeLoss="89.02" rerouteNo="0" devices="tripinfo_f_0_0.9" vType="type1" speedFactor="0.92" vaporized=""/>
    <tripinfo id="f_0_0.10" depart="137.00" departLane="np13_nt13_0" departPos="40.64" departSpeed="0.00" departDelay="0.64" arrival="314.00" arrivalLane="nt4_np5_0" arrivalPos="75.00" arrivalSpeed="19.58" duration="177.00" routeLength="1307.25" waitingTime="47.00" waitingCount="6" stopTime="0.00" timeLoss="92.68" rerouteNo="0" devices="tripinfo_f_0_0.10" vType="type1" speedFactor="1.08" vaporized=""/>
    <tripinfo id="f_0_2.12" depart="99.00" departLane="np2_nt2_0" departPos="27.96" departSpeed="0.00" departDelay="0.82" arrival="315.00" arrivalLane="nt15_np10_0" arrivalPos="75.00" arrivalSpeed="9.37" duration="216.00" routeLength="923.12" waitingTime="41.00" waitingCount="6" stopTime="0.00" timeLoss="127.08" rerouteNo="0" devices="tripinfo_f_0_2.12" vType="type1" speedFactor="0.88" vaporized=""/>
    <tripinfo id="f_0_1.5" depart="69.00" departLane="np16_nt1_0" departPos="38.57" departSpeed="0.00" departDelay="0.82" arrival="318.00" arrivalLane="nt16_np8_0" arrivalPos="75.00" arrivalSpeed="18.72" duration="249.00" routeLength="1309.31" waitingTime="63.00" waitingCount="10" stopTime="0.00" timeLoss="154.52" rerouteNo="0" devices="tripinfo_f_0_1.5" vType="type1" speedFactor="0.97" vaporized=""/>
    <tripinfo id="f_0_1.6" depart="82.00" departLane="np16_nt1_0" departPos="59.83" departSpeed="0.00" departDelay="0.18" arrival="321.00" arrivalLane="nt16_np8_0" arrivalPos="75.00" arrivalSpeed="13.74" duration="239.00" routeLength="1288.05" waitingTime="60.00" waitingCount="8" stopTime="0.00" timeLoss="121.31" rerouteNo="0" devices="tripinfo_f_0_1.6" vType="type1" speedFactor="0.76" vaporized=""/>
    <tripinfo id="f_0_2.13" depart="107.00" departLane="np2_nt2_0" departPos="12.33" departSpeed="0.00" departDelay="0.63" arrival="322.00" arrivalLane="nt15_np10_0" arrivalPos="75.00" arrivalSpeed="8.27" duration="215.00" routeLength="938.75" waitingTime="59.00" waitingCount="5" stopTime="0.00" timeLoss="131.57" rerouteNo="0" devices="tripinfo_f_0_2.13" vType="type1" speedFactor="0.95" vaporized=""/>
    <tripinfo id="f_0_1.7" depart="96.00" departLane="np16_nt1_0" departPos="21.04" departSpeed="0.00" departDelay="0.55" arrival="325.00" arrivalLane="nt16_np8_0" arrivalPos="75.00" arrivalSpeed="17.89" duration="229.00" routeLength="1326.84" waitingTime="41.00" waitingCount="5" stopTime="0.00" timeLoss="127.89" rerouteNo="0" devices="tripinfo_f_0_1.7" vType="type1" speedFactor="0.92" vaporized=""/>
    <tripinfo id="f_0_2.14" depart="115.00" departLane="np2_nt2_0" departPos="13.78" departSpeed="0.00" departDelay="0.45" arrival="325.00" arrivalLane="nt15_np10_0" arrivalPos="75.00" arrivalSpeed="7.94" duration="210.00" routeLength="937.30" waitingTime="68.00" waitingCount="7" stopTime="0.00" timeLoss="123.85" rerouteNo="0" devices="tripinfo_f_0_2.14" vType="type1" speedFactor="0.92" vaporized=""/>
    <tripinfo id="f_0_1.8" depart="110.00" departLane="np16_nt1_0" departPos="49.43" departSpeed="0.00" departDelay="0.91" arrival="327.00" arrivalLane="nt16_np8_0" arrivalPos="75.00" arrivalSpeed="23.43" duration="217.00" routeLength="1298.45" waitingTime="58.00" waitingCount="5" stopTime="0.00" timeLoss="142.22" rerouteNo="0" devices="tripinfo_f_0_1.8" vType="type1" speedFactor="1.22" vaporized=""/>
    <tripinfo id="f_0_0.11" depart="150.00" departLane="np13_nt13_0" departPos="13.41" departSpeed="0.00" departDelay="0.00" arrival="327.00" arrivalLane="nt4_np5_0" arrivalPos="75.00" arrivalSpeed="17.52" duration="177.00" routeLength="1334.48" waitingTime="37.00" waitingCount="7" stopTime="0.00" timeLoss="75.96" rerouteNo="0" devices="tripinfo_f_0_0.11" vType="type1" speedFactor="0.92" vaporized=""/>
    <tripinfo id="f_0_0.12" depart="164.00" departLane="np13_nt13_0" departPos="41.67" departSpeed="0.00" departDelay="0.37" arrival="329.00" arrivalLane="nt4_np5_0" arrivalPos="75.00" arrivalSpeed="23.63" duration="165.00" routeLength="1306.22" waitingTime="26.00" waitingCount="6" stopTime="0.00" timeLoss="90.67" rerouteNo="0" devices="tripinfo_f_0_0.12" vType="type1" speedFactor="1.23" vaporized=""/>
    <tripinfo id="f_0_3.20" depart="164.00" departLane="np3_nt3_0" departPos="13.87" departSpeed="0.00" departDelay="0.36" arrival="332.00" arrivalLane="nt14_np11_0" arrivalPos="75.00" arrivalSpeed="10.19" duration="168.00" routeLength="937.22" waitingTime="42.00" waitingCount="6" stopTime="0.00" timeLoss="92.15" rerouteNo="0" devices="tripinfo_f_0_3.20" vType="type1" speedFactor="1.03" vaporized=""/>
    <tripinfo id="f_0_2.15" depart="123.00" departLane="np2_nt2_0" departPos="40.23" departSpeed="0.00" departDelay="0.27" arrival="334.00" arrivalLane="nt15_np10_0" arrivalPos="75.00" arrivalSpeed="9.14" duration="211.00" routeLength="910.85" waitingTime="61.00" waitingCount="8" stopTime="0.00" timeLoss="124.05" rerouteNo="0" devices="tripinfo_f_0_2.15" vType="type1" speedFactor="0.88" vaporized=""/>
    <tripinfo id="f_0_2.16" depart="131.00" departLane="np2_nt2_0" departPos="14.74" departSpeed="0.00" departDelay="0.09" arrival="336.00" arrivalLane="nt15_np10_0" arrivalPos="75.00" arrivalSpeed="9.92" duration="205.00" routeLength="936.34" waitingTime="53.00" waitingCount="6" stopTime="0.00" timeLoss="131.08" rerouteNo="0" devices="tripinfo_f_0_2.16" vType="type1" speedFactor="1.07" vaporized=""/>
    <tripinfo id="f_0_2.17" depart="140.00" departLane="np2_nt2_0" departPos="0.61" departSpeed="0.00" departDelay="0.91" arrival="342.00" arrivalLane="nt15_np10_0" arrivalPos="75.00" arrivalSpeed="8.47" duration="202.00" routeLength="950.47" waitingTime="42.00" waitingCount="6" stopTime="0.00" timeLoss="106.50" rerouteNo="0" devices="tripinfo_f_0_2.17" vType="type1" speedFactor="0.84" vaporized=""/>
    <tripinfo id="f_0_3.21" depart="172.00" departLane="np3_nt3_0" departPos="13.13" departSpeed="0.00" departDelay="0.18" arrival="343.00" arrivalLane="nt14_np11_0" arrivalPos="75.00" arrivalSpeed="8.88" duration="171.00" routeLength="937.96" waitingTime="38.00" waitingCount="6" stopTime="0.00" timeLoss="86.59" rerouteNo="0" devices="tripinfo_f_0_3.21" vType="type1" speedFactor="0.93" vaporized=""/>
    <tripinfo id="f_0_2.18" depart="148.00" departLane="np2_nt2_0" departPos="25.51" departSpeed="0.00" departDelay="0.72" arrival="344.00" arrivalLane="nt15_np10_0" arrivalPos="75.00" arrivalSpeed="8.70" duration="196.00" routeLength="925.57" waitingTime="34.00" waitingCount="6" stopTime="0.00" timeLoss="115.32" rerouteNo="0" devices="tripinfo_f_0_2.18" vType="type1" speedFactor="0.97" vaporized=""/>
    <tripinfo id="f_0_3.22" depart="180.00" departLane="np3_nt3_0" departPos="2.10" departSpeed="0.00" departDelay="0.00" arrival="345.00" arrivalLane="nt14_np11_0" arrivalPos="75.00" arrivalSpeed="8.46" duration="165.00" routeLength="948.99" waitingTime="49.00" waitingCount="5" stopTime="0.00" timeLoss="80.90" rerouteNo="0" devices="tripinfo_f_0_3.22" vType="type1" speedFactor="0.95" vaporized=""/>
    <tripinfo id="f_0_0.13" depart="178.00" departLane="np13_nt13_0" departPos="5.22" departSpeed="0.00" departDelay="0.73" arrival="347.00" arrivalLane="nt4_np5_0" arrivalPos="75.00" arrivalSpeed="18.75" duration="169.00" routeLength="1342.67" waitingTime="31.00" waitingCount="5" stopTime="0.00" timeLoss="74.16" rerouteNo="0" devices="tripinfo_f_0_0.13" vType="type1" speedFactor="0.98" vaporized=""/>
    <tripinfo id="f_0_0.14" depart="191.00" departLane="np13_nt13_0" departPos="29.93" departSpeed="0.00" departDelay="0.10" arrival="349.00" arrivalLane="nt4_np5_0" arrivalPos="75.00" arrivalSpeed="20.43" duration="158.00" routeLength="1317.96" waitingTime="25.00" waitingCount="2" stopTime="0.00" timeLoss="70.13" rerouteNo="0" devices="tripinfo_f_0_0.14" vType="type1" speedFactor="1.05" vaporized=""/>
    <tripinfo id="f_0_2.19" depart="156.00" departLane="np2_nt2_0" departPos="42.66" departSpeed="0.00" departDelay="0.54" arrival="352.00" arrivalLane="nt15_np10_0" arrivalPos="75.00" arrivalSpeed="10.24" duration="196.00" routeLength="908.42" waitingTime="35.00" waitingCount="5" stopTime="0.00" timeLoss="119.16" rerouteNo="0" devices="tripinfo_f_0_2.19" vType="type1" speedFactor="1.00" vaporized=""/>
    <tripinfo id="f_0_1.9" depart="123.00" departLane="np16_nt1_0" departPos="17.00" departSpeed="0.00" departDelay="0.28" arrival="354.00" arrivalLane="nt16_np8_0" arrivalPos="75.00" arrivalSpeed="17.52" duration="231.00" routeLength="1330.88" waitingTime="55.00" waitingCount="8" stopTime="0.00" timeLoss="127.64" rerouteNo="0" devices="tripinfo_f_0_1.9" vType="type1" speedFactor="0.90" vaporized=""/>
    <tripinfo id="f_0_2.20" depart="164.00" departLane="np2_nt2_0" departPos="5.34" departSpeed="0.00" departDelay="0.36" arrival="363.00" arrivalLane="nt15_np10_0" arrivalPos="75.00" arrivalSpeed="10.39" duration="199.00" routeLength="945.74" waitingTime="47.00" waitingCount="8" stopTime="0.00" timeLoss="119.37" rerouteNo="0" devices="tripinfo_f_0_2.20" vType="type1" speedFactor="1.01" vaporized=""/>
    <tripinfo id="f_0_2.21" depart="172.00" departLane="np2_nt2_0" departPos="23.88" departSpeed="0.00" departDelay="0.18" arrival="366.00" arrivalLane="nt15_np10_0" arrivalPos="75.00" arrivalSpeed="8.55" duration="194.00" routeLength="927.20" waitingTime="41.00" waitingCount="5" stopTime="0.00" timeLoss="107.51" rerouteNo="0" devices="tripinfo_f_0_2.21" vType="type1" speedFactor="0.91" vaporized=""/>
    <tripinfo id="f_0_1.10" depart="137.00" departLane="np16_nt1_0" departPos="11.46" departSpeed="0.00" departDelay="0.64" arrival="369.00" arrivalLane="nt16_np8_0" arrivalPos="75.00" arrivalSpeed="16.53" duration="232.00" routeLength="1336.42" waitingTime="37.00" waitingCount="7" stopTime="0.00" timeLoss="120.69" rerouteNo="0" devices="tripinfo_f_0_1.10" vType="type1" speedFactor="0.84" vaporized=""/>