<?xml version="1.0" encoding="UTF-8"?>

<!-- generated on 2023-08-23 17:12:01 by Eclipse SUMO libsumo Version 1.18.0
<configuration xmlns:xsi="http://www.w3.org/2001/XMLSchema-instance" xsi:noNamespaceSchemaLocation="http://sumo.dlr.de/xsd/libsumoConfiguration.xsd">

    <input>
        <net-file value="/home/stefan/RESCO/./environments/arterial4x4/arterial4x4.net.xml"/>
        <route-files value="/home/stefan/RESCO/./environments/arterial4x4/arterial4x4_99.rou.xml"/>
    </input>

    <output>
        <tripinfo-output value="/home/stefan/results/IDDQN-tr0-arterial4x4-0-drq_norm-wait_norm/tripinfo_99.xml"/>
        <tripinfo-output.write-unfinished value="true"/>
    </output>

    <processing>
        <time-to-teleport value="-1"/>
    </processing>

    <report>
        <no-warnings value="True"/>
        <no-step-log value="True"/>
    </report>

    <random_number>
        <random value="true"/>
    </random_number>

</configuration>
-->

<tripinfos xmlns:xsi="http://www.w3.org/2001/XMLSchema-instance" xsi:noNamespaceSchemaLocation="http://sumo.dlr.de/xsd/tripinfo_file.xsd">
    <tripinfo id="f_0_3.0" depart="0.00" departLane="np3_nt3_0" departPos="11.91" departSpeed="0.00" departDelay="0.00" arrival="124.00" arrivalLane="nt14_np11_0" arrivalPos="75.00" arrivalSpeed="9.38" duration="124.00" routeLength="939.18" waitingTime="13.00" waitingCount="2" stopTime="0.00" timeLoss="32.74" rerouteNo="0" devices="tripinfo_f_0_3.0" vType="type1" speedFactor="0.87" vaporized=""/>
    <tripinfo id="f_0_3.1" depart="9.00" departLane="np3_nt3_0" departPos="2.57" departSpeed="0.00" departDelay="0.82" arrival="126.00" arrivalLane="nt14_np11_0" arrivalPos="75.00" arrivalSpeed="10.44" duration="117.00" routeLength="948.52" waitingTime="6.00" waitingCount="2" stopTime="0.00" timeLoss="40.60" rerouteNo="0" devices="tripinfo_f_0_3.1" vType="type1" speedFactor="1.05" vaporized=""/>
    <tripinfo id="f_0_2.0" depart="0.00" departLane="np2_nt2_0" departPos="15.61" departSpeed="0.00" departDelay="0.00" arrival="137.00" arrivalLane="nt15_np10_0" arrivalPos="75.00" arrivalSpeed="9.12" duration="137.00" routeLength="935.47" waitingTime="37.00" waitingCount="3" stopTime="0.00" timeLoss="58.33" rerouteNo="0" devices="tripinfo_f_0_2.0" vType="type1" speedFactor="0.99" vaporized=""/>
    <tripinfo id="f_0_2.1" depart="9.00" departLane="np2_nt2_0" departPos="27.39" departSpeed="0.00" departDelay="0.82" arrival="139.00" arrivalLane="nt15_np10_0" arrivalPos="75.00" arrivalSpeed="10.03" duration="130.00" routeLength="923.69" waitingTime="32.00" waitingCount="2" stopTime="0.00" timeLoss="60.75" rerouteNo="0" devices="tripinfo_f_0_2.1" vType="type1" speedFactor="1.12" vaporized=""/>
    <tripinfo id="f_0_2.2" depart="17.00" departLane="np2_nt2_0" departPos="11.57" departSpeed="0.00" departDelay="0.64" arrival="147.00" arrivalLane="nt15_np10_0" arrivalPos="75.00" arrivalSpeed="9.67" duration="130.00" routeLength="939.51" waitingTime="32.00" waitingCount="4" stopTime="0.00" timeLoss="58.01" rerouteNo="0" devices="tripinfo_f_0_2.2" vType="type1" speedFactor="1.10" vaporized=""/>
    <tripinfo id="f_0_2.3" depart="25.00" departLane="np2_nt2_0" departPos="38.12" departSpeed="0.00" departDelay="0.45" arrival="149.00" arrivalLane="nt15_np10_0" arrivalPos="75.00" arrivalSpeed="9.22" duration="124.00" routeLength="912.96" waitingTime="23.00" waitingCount="4" stopTime="0.00" timeLoss="51.12" rerouteNo="0" devices="tripinfo_f_0_2.3" vType="type1" speedFactor="1.05" vaporized=""/>
    <tripinfo id="f_0_3.2" depart="17.00" departLane="np3_nt3_0" departPos="24.84" departSpeed="0.00" departDelay="0.64" arrival="152.00" arrivalLane="nt14_np11_0" arrivalPos="75.00" arrivalSpeed="10.53" duration="135.00" routeLength="926.25" waitingTime="26.00" waitingCount="4" stopTime="0.00" timeLoss="56.00" rerouteNo="0" devices="tripinfo_f_0_3.2" vType="type1" speedFactor="0.98" vaporized=""/>
    <tripinfo id="f_0_3.3" depart="25.00" departLane="np3_nt3_0" departPos="49.61" departSpeed="0.00" departDelay="0.45" arrival="156.00" arrivalLane="nt14_np11_0" arrivalPos="75.00" arrivalSpeed="7.95" duration="131.00" routeLength="901.48" waitingTime="17.00" waitingCount="4" stopTime="0.00" timeLoss="45.02" rerouteNo="0" devices="tripinfo_f_0_3.3" vType="type1" speedFactor="0.88" vaporized=""/>
    <tripinfo id="f_0_0.0" depart="0.00" departLane="np13_nt13_0" departPos="59.16" departSpeed="0.00" departDelay="0.00" arrival="158.00" arrivalLane="nt4_np5_0" arrivalPos="75.00" arrivalSpeed="20.09" duration="158.00" routeLength="1288.73" waitingTime="40.00" waitingCount="5" stopTime="0.00" timeLoss="72.85" rerouteNo="0" devices="tripinfo_f_0_0.0" vType="type1" speedFactor="1.06" vaporized=""/>
    <tripinfo id="f_0_0.1" depart="14.00" departLane="np13_nt13_0" departPos="21.42" departSpeed="0.00" departDelay="0.36" arrival="160.00" arrivalLane="nt4_np5_0" arrivalPos="75.00" arrivalSpeed="22.71" duration="146.00" routeLength="1326.47" waitingTime="23.00" waitingCount="5" stopTime="0.00" timeLoss="67.53" rerouteNo="0" devices="tripinfo_f_0_0.1" vType="type1" speedFactor="1.18" vaporized=""/>
    <tripinfo id="f_0_1.0" depart="0.00" departLane="np16_nt1_0" departPos="17.51" departSpeed="0.00" departDelay="0.00" arrival="161.00" arrivalLane="nt16_np8_0" arrivalPos="75.00" arrivalSpeed="18.67" duration="161.00" routeLength="1330.37" waitingTime="24.00" waitingCount="4" stopTime="0.00" timeLoss="62.55" rerouteNo="0" devices="tripinfo_f_0_1.0" vType="type1" speedFactor="0.94" vaporized=""/>
    <tripinfo id="f_0_3.4" depart="33.00" departLane="np3_nt3_0" departPos="28.12" departSpeed="0.00" departDelay="0.27" arrival="165.00" arrivalLane="nt14_np11_0" arrivalPos="75.00" arrivalSpeed="6.46" duration="132.00" routeLength="922.97" waitingTime="10.00" waitingCount="2" stopTime="0.00" timeLoss="35.01" rerouteNo="0" devices="tripinfo_f_0_3.4" vType="type1" speedFactor="0.80" vaporized=""/>
    <tripinfo id="f_0_3.5" depart="41.00" departLane="np3_nt3_0" departPos="42.07" departSpeed="0.00" departDelay="0.09" arrival="167.00" arrivalLane="nt14_np11_0" arrivalPos="75.00" arrivalSpeed="10.09" duration="126.00" routeLength="909.02" waitingTime="21.00" waitingCount="4" stopTime="0.00" timeLoss="45.13" rerouteNo="0" devices="tripinfo_f_0_3.5" vType="type1" speedFactor="0.95" vaporized=""/>
    <tripinfo id="f_0_1.1" depart="14.00" departLane="np16_nt1_0" departPos="23.34" departSpeed="0.00" departDelay="0.36" arrival="168.00" arrivalLane="nt16_np8_0" arrivalPos="75.00" arrivalSpeed="17.47" duration="154.00" routeLength="1324.54" waitingTime="10.00" waitingCount="3" stopTime="0.00" timeLoss="55.20" rerouteNo="0" devices="tripinfo_f_0_1.1" vType="type1" speedFactor="0.94" vaporized=""/>
    <tripinfo id="f_0_3.6" depart="50.00" departLane="np3_nt3_0" departPos="10.23" departSpeed="0.00" departDelay="0.91" arrival="169.00" arrivalLane="nt14_np11_0" arrivalPos="75.00" arrivalSpeed="9.73" duration="119.00" routeLength="940.86" waitingTime="11.00" waitingCount="2" stopTime="0.00" timeLoss="35.61" rerouteNo="0" devices="tripinfo_f_0_3.6" vType="type1" speedFactor="0.96" vaporized=""/>
    <tripinfo id="f_0_3.7" depart="58.00" departLane="np3_nt3_0" departPos="21.76" departSpeed="0.00" departDelay="0.73" arrival="176.00" arrivalLane="nt14_np11_0" arrivalPos="75.00" arrivalSpeed="7.54" duration="118.00" routeLength="929.33" waitingTime="9.00" waitingCount="2" stopTime="0.00" timeLoss="30.11" rerouteNo="0" devices="tripinfo_f_0_3.7" vType="type1" speedFactor="0.89" vaporized=""/>
    <tripinfo id="f_0_3.8" depart="66.00" departLane="np3_nt3_0" departPos="7.34" departSpeed="0.00" departDelay="0.54" arrival="181.00" arrivalLane="nt14_np11_0" arrivalPos="75.00" arrivalSpeed="11.13" duration="115.00" routeLength="943.75" waitingTime="12.00" waitingCount="3" stopTime="0.00" timeLoss="43.35" rerouteNo="0" devices="tripinfo_f_0_3.8" vType="type1" speedFactor="1.11" vaporized=""/>
    <tripinfo id="f_0_0.2" depart="28.00" departLane="np13_nt13_0" departPos="5.10" departSpeed="0.00" departDelay="0.73" arrival="183.00" arrivalLane="nt4_np5_0" arrivalPos="75.00" arrivalSpeed="19.21" duration="155.00" routeLength="1342.79" waitingTime="31.00" waitingCount="5" stopTime="0.00" timeLoss="65.19" rerouteNo="0" devices="tripinfo_f_0_0.2" vType="type1" speedFactor="1.03" vaporized=""/>
    <tripinfo id="f_0_0.3" depart="41.00" departLane="np13_nt13_0" departPos="33.47" departSpeed="0.00" departDelay="0.09" arrival="185.00" arrivalLane="nt4_np5_0" arrivalPos="75.00" arrivalSpeed="20.05" duration="144.00" routeLength="1314.42" waitingTime="21.00" waitingCount="5" stopTime="0.00" timeLoss="58.49" rerouteNo="0" devices="tripinfo_f_0_0.3" vType="type1" speedFactor="1.07" vaporized=""/>
    <tripinfo id="f_0_3.9" depart="74.00" departLane="np3_nt3_0" departPos="43.61" departSpeed="0.00" departDelay="0.36" arrival="185.00" arrivalLane="nt14_np11_0" arrivalPos="75.00" arrivalSpeed="8.92" duration="111.00" routeLength="907.48" waitingTime="8.00" waitingCount="2" stopTime="0.00" timeLoss="31.64" rerouteNo="0" devices="tripinfo_f_0_3.9" vType="type1" speedFactor="0.96" vaporized=""/>
    <tripinfo id="f_0_0.4" depart="55.00" departLane="np13_nt13_0" departPos="34.90" departSpeed="0.00" departDelay="0.46" arrival="187.00" arrivalLane="nt4_np5_0" arrivalPos="75.00" arrivalSpeed="19.44" duration="132.00" routeLength="1312.99" waitingTime="20.00" waitingCount="2" stopTime="0.00" timeLoss="43.79" rerouteNo="0" devices="tripinfo_f_0_0.4" vType="type1" speedFactor="1.04" vaporized=""/>
    <tripinfo id="f_0_2.4" depart="33.00" departLane="np2_nt2_0" departPos="36.13" departSpeed="0.00" departDelay="0.27" arrival="192.00" arrivalLane="nt15_np10_0" arrivalPos="75.00" arrivalSpeed="10.22" duration="159.00" routeLength="914.95" waitingTime="36.00" waitingCount="3" stopTime="0.00" timeLoss="86.55" rerouteNo="0" devices="tripinfo_f_0_2.4" vType="type1" speedFactor="1.06" vaporized=""/>
    <tripinfo id="f_0_2.5" depart="41.00" departLane="np2_nt2_0" departPos="53.90" departSpeed="0.00" departDelay="0.09" arrival="196.00" arrivalLane="nt15_np10_0" arrivalPos="75.00" arrivalSpeed="8.91" duration="155.00" routeLength="897.18" waitingTime="35.00" waitingCount="3" stopTime="0.00" timeLoss="69.80" rerouteNo="0" devices="tripinfo_f_0_2.5" vType="type1" speedFactor="0.89" vaporized=""/>
    <tripinfo id="f_0_2.6" depart="50.00" departLane="np2_nt2_0" departPos="29.15" departSpeed="0.00" departDelay="0.91" arrival="199.00" arrivalLane="nt15_np10_0" arrivalPos="75.00" arrivalSpeed="10.42" duration="149.00" routeLength="921.93" waitingTime="35.00" waitingCount="3" stopTime="0.00" timeLoss="74.35" rerouteNo="0" devices="tripinfo_f_0_2.6" vType="type1" speedFactor="1.04" vaporized=""/>
    <tripinfo id="f_0_1.2" depart="28.00" departLane="np16_nt1_0" departPos="56.07" departSpeed="0.00" departDelay="0.73" arrival="203.00" arrivalLane="nt16_np8_0" arrivalPos="75.00" arrivalSpeed="20.86" duration="175.00" routeLength="1291.81" waitingTime="46.00" waitingCount="4" stopTime="0.00" timeLoss="90.55" rerouteNo="0" devices="tripinfo_f_0_1.2" vType="type1" speedFactor="1.07" vaporized=""/>
    <tripinfo id="f_0_2.7" depart="58.00" departLane="np2_nt2_0" departPos="17.75" departSpeed="0.00" departDelay="0.73" arrival="204.00" arrivalLane="nt15_np10_0" arrivalPos="75.00" arrivalSpeed="10.92" duration="146.00" routeLength="933.33" waitingTime="29.00" waitingCount="2" stopTime="0.00" timeLoss="69.07" rerouteNo="0" devices="tripinfo_f_0_2.7" vType="type1" speedFactor="1.03" vaporized=""/>
    <tripinfo id="f_0_2.8" depart="66.00" departLane="np2_nt2_0" departPos="46.01" departSpeed="0.00" departDelay="0.54" arrival="206.00" arrivalLane="nt15_np10_0" arrivalPos="75.00" arrivalSpeed="11.37" duration="140.00" routeLength="905.07" waitingTime="34.00" waitingCount="3" stopTime="0.00" timeLoss="66.91" rerouteNo="0" devices="tripinfo_f_0_2.8" vType="type1" speedFactor="1.04" vaporized=""/>
    <tripinfo id="f_0_1.3" depart="41.00" departLane="np16_nt1_0" departPos="36.21" departSpeed="0.00" departDelay="0.09" arrival="211.00" arrivalLane="nt16_np8_0" arrivalPos="75.00" arrivalSpeed="16.22" duration="170.00" routeLength="1311.67" waitingTime="36.00" waitingCount="4" stopTime="0.00" timeLoss="70.88" rerouteNo="0" devices="tripinfo_f_0_1.3" vType="type1" speedFactor="0.93" vaporized=""/>
    <tripinfo id="f_0_2.9" depart="74.00" departLane="np2_nt2_0" departPos="14.77" departSpeed="0.00" departDelay="0.36" arrival="211.00" arrivalLane="nt15_np10_0" arrivalPos="75.00" arrivalSpeed="9.63" duration="137.00" routeLength="936.31" waitingTime="21.00" waitingCount="4" stopTime="0.00" timeLoss="62.31" rerouteNo="0" devices="tripinfo_f_0_2.9" vType="type1" speedFactor="1.05" vaporized=""/>
    <tripinfo id="f_0_0.5" depart="69.00" departLane="np13_nt13_0" departPos="46.71" departSpeed="0.00" departDelay="0.82" arrival="213.00" arrivalLane="nt4_np5_0" arrivalPos="75.00" arrivalSpeed="21.55" duration="144.00" routeLength="1301.18" waitingTime="26.00" waitingCount="5" stopTime="0.00" timeLoss="61.44" rerouteNo="0" devices="tripinfo_f_0_0.5" vType="type1" speedFactor="1.10" vaporized=""/>
    <tripinfo id="f_0_2.10" depart="82.00" departLane="np2_nt2_0" departPos="28.00" departSpeed="0.00" departDelay="0.18" arrival="213.00" arrivalLane="nt15_np10_0" arrivalPos="75.00" arrivalSpeed="11.54" duration="131.00" routeLength="923.08" waitingTime="15.00" waitingCount="3" stopTime="0.00" timeLoss="57.57" rerouteNo="0" devices="tripinfo_f_0_2.10" vType="type1" speedFactor="1.05" vaporized=""/>
    <tripinfo id="f_0_3.10" depart="82.00" departLane="np3_nt3_0" departPos="45.10" departSpeed="0.00" departDelay="0.18" arrival="217.00" arrivalLane="nt14_np11_0" arrivalPos="75.00" arrivalSpeed="11.28" duration="135.00" routeLength="905.99" waitingTime="39.00" waitingCount="4" stopTime="0.00" timeLoss="63.60" rerouteNo="0" devices="tripinfo_f_0_3.10" vType="type1" speedFactor="1.07" vaporized=""/>
    <tripinfo id="f_0_1.4" depart="55.00" departLane="np16_nt1_0" departPos="39.44" departSpeed="0.00" departDelay="0.46" arrival="218.00" arrivalLane="nt16_np8_0" arrivalPos="75.00" arrivalSpeed="15.93" duration="163.00" routeLength="1308.44" waitingTime="28.00" waitingCount="4" stopTime="0.00" timeLoss="63.05" rerouteNo="0" devices="tripinfo_f_0_1.4" vType="type1" speedFactor="0.92" vaporized=""/>
    <tripinfo id="f_0_3.11" depart="90.00" departLane="np3_nt3_0" departPos="17.80" departSpeed="0.00" departDelay="0.00" arrival="220.00" arrivalLane="nt14_np11_0" arrivalPos="75.00" arrivalSpeed="10.04" duration="130.00" routeLength="933.29" waitingTime="22.00" waitingCount="3" stopTime="0.00" timeLoss="45.80" rerouteNo="0" devices="tripinfo_f_0_3.11" vType="type1" speedFactor="0.93" vaporized=""/>
    <tripinfo id="f_0_2.11" depart="90.00" departLane="np2_nt2_0" departPos="14.42" departSpeed="0.00" departDelay="0.00" arrival="221.00" arrivalLane="nt15_np10_0" arrivalPos="75.00" arrivalSpeed="10.28" duration="131.00" routeLength="936.66" waitingTime="11.00" waitingCount="3" stopTime="0.00" timeLoss="51.64" rerouteNo="0" devices="tripinfo_f_0_2.11" vType="type1" speedFactor="1.00" vaporized=""/>
    <tripinfo id="f_0_2.12" depart="99.00" departLane="np2_nt2_0" departPos="22.57" departSpeed="0.00" departDelay="0.82" arrival="223.00" arrivalLane="nt15_np10_0" arrivalPos="75.00" arrivalSpeed="9.29" duration="124.00" routeLength="928.51" waitingTime="6.00" waitingCount="3" stopTime="0.00" timeLoss="50.09" rerouteNo="0" devices="tripinfo_f_0_2.12" vType="type1" speedFactor="1.06" vaporized=""/>
    <tripinfo id="f_0_1.5" depart="69.00" departLane="np16_nt1_0" departPos="53.38" departSpeed="0.00" departDelay="0.82" arrival="227.00" arrivalLane="nt16_np8_0" arrivalPos="75.00" arrivalSpeed="15.37" duration="158.00" routeLength="1294.50" waitingTime="19.00" waitingCount="4" stopTime="0.00" timeLoss="56.10" rerouteNo="0" devices="tripinfo_f_0_1.5" vType="type1" speedFactor="0.89" vaporized=""/>
    <tripinfo id="f_0_0.6" depart="82.00" departLane="np13_nt13_0" departPos="13.20" departSpeed="0.00" departDelay="0.18" arrival="231.00" arrivalLane="nt4_np5_0" arrivalPos="75.00" arrivalSpeed="18.39" duration="149.00" routeLength="1334.69" waitingTime="25.00" waitingCount="4" stopTime="0.00" timeLoss="53.01" rerouteNo="0" devices="tripinfo_f_0_0.6" vType="type1" speedFactor="0.96" vaporized=""/>
    <tripinfo id="f_0_3.12" depart="99.00" departLane="np3_nt3_0" departPos="20.89" departSpeed="0.00" departDelay="0.82" arrival="233.00" arrivalLane="nt14_np11_0" arrivalPos="75.00" arrivalSpeed="9.12" duration="134.00" routeLength="930.20" waitingTime="26.00" waitingCount="5" stopTime="0.00" timeLoss="56.18" rerouteNo="0" devices="tripinfo_f_0_3.12" vType="type1" speedFactor="1.00" vaporized=""/>
    <tripinfo id="f_0_1.6" depart="82.00" departLane="np16_nt1_0" departPos="27.32" departSpeed="0.00" departDelay="0.18" arrival="238.00" arrivalLane="nt16_np8_0" arrivalPos="75.00" arrivalSpeed="16.13" duration="156.00" routeLength="1320.56" waitingTime="10.00" waitingCount="4" stopTime="0.00" timeLoss="56.74" rerouteNo="0" devices="tripinfo_f_0_1.6" vType="type1" speedFactor="0.93" vaporized=""/>
    <tripinfo id="f_0_0.7" depart="96.00" departLane="np13_nt13_0" departPos="52.58" departSpeed="0.00" departDelay="0.55" arrival="245.00" arrivalLane="nt4_np5_0" arrivalPos="75.00" arrivalSpeed="19.17" duration="149.00" routeLength="1295.31" waitingTime="25.00" waitingCount="6" stopTime="0.00" timeLoss="62.77" rerouteNo="0" devices="tripinfo_f_0_0.7" vType="type1" speedFactor="1.06" vaporized=""/>
    <tripinfo id="f_0_0.8" depart="110.00" departLane="np13_nt13_0" departPos="25.64" departSpeed="0.00" departDelay="0.91" arrival="255.00" arrivalLane="nt4_np5_0" arrivalPos="75.00" arrivalSpeed="20.27" duration="145.00" routeLength="1322.25" waitingTime="16.00" waitingCount="5" stopTime="0.00" timeLoss="56.43" rerouteNo="0" devices="tripinfo_f_0_0.8" vType="type1" speedFactor="1.04" vaporized=""/>
    <tripinfo id="f_0_2.13" depart="107.00" departLane="np2_nt2_0" departPos="3.24" departSpeed="0.00" departDelay="0.63" arrival="261.00" arrivalLane="nt15_np10_0" arrivalPos="75.00" arrivalSpeed="11.17" duration="154.00" routeLength="947.84" waitingTime="40.00" waitingCount="4" stopTime="0.00" timeLoss="81.48" rerouteNo="0" devices="tripinfo_f_0_2.13" vType="type1" speedFactor="1.09" vaporized=""/>
    <tripinfo id="f_0_2.14" depart="115.00" departLane="np2_nt2_0" departPos="14.76" departSpeed="0.00" departDelay="0.45" arrival="263.00" arrivalLane="nt15_np10_0" arrivalPos="75.00" arrivalSpeed="12.37" duration="148.00" routeLength="936.32" waitingTime="33.00" waitingCount="4" stopTime="0.00" timeLoss="86.22" rerouteNo="0" devices="tripinfo_f_0_2.14" vType="type1" speedFactor="1.27" vaporized=""/>
    <tripinfo id="f_0_3.13" depart="107.00" departLane="np3_nt3_0" departPos="3.55" departSpeed="0.00" departDelay="0.63" arrival="264.00" arrivalLane="nt14_np11_0" arrivalPos="75.00" arrivalSpeed="7.00" duration="157.00" routeLength="947.54" waitingTime="35.00" waitingCount="4" stopTime="0.00" timeLoss="61.21" rerouteNo="0" devices="tripinfo_f_0_3.13" vType="type1" speedFactor="0.83" vaporized=""/>
    <tripinfo id="f_0_3.14" depart="115.00" departLane="np3_nt3_0" departPos="26.04" departSpeed="0.00" departDelay="0.45" arrival="266.00" arrivalLane="nt14_np11_0" arrivalPos="75.00" arrivalSpeed="9.85" duration="151.00" routeLength="925.05" waitingTime="35.00" waitingCount="5" stopTime="0.00" timeLoss="66.81" rerouteNo="0" devices="tripinfo_f_0_3.14" vType="type1" speedFactor="0.92" vaporized=""/>
    <tripinfo id="f_0_3.15" depart="123.00" departLane="np3_nt3_0" departPos="5.05" departSpeed="0.00" departDelay="0.27" arrival="268.00" arrivalLane="nt14_np11_0" arrivalPos="75.00" arrivalSpeed="9.96" duration="145.00" routeLength="946.04" waitingTime="27.00" waitingCount="6" stopTime="0.00" timeLoss="69.63" rerouteNo="0" devices="tripinfo_f_0_3.15" vType="type1" speedFactor="1.05" vaporized=""/>
    <tripinfo id="f_0_2.15" depart="123.00" departLane="np2_nt2_0" departPos="44.15" departSpeed="0.00" departDelay="0.27" arrival="269.00" arrivalLane="nt15_np10_0" arrivalPos="75.00" arrivalSpeed="8.60" duration="146.00" routeLength="906.93" waitingTime="28.00" waitingCount="3" stopTime="0.00" timeLoss="70.19" rerouteNo="0" devices="tripinfo_f_0_2.15" vType="type1" speedFactor="1.00" vaporized=""/>
    <tripinfo id="f_0_3.16" depart="131.00" departLane="np3_nt3_0" departPos="7.95" departSpeed="0.00" departDelay="0.09" arrival="270.00" arrivalLane="nt14_np11_0" arrivalPos="75.00" arrivalSpeed="10.36" duration="139.00" routeLength="943.14" waitingTime="21.00" waitingCount="5" stopTime="0.00" timeLoss="65.92" rerouteNo="0" devices="tripinfo_f_0_3.16" vType="type1" speedFactor="1.09" vaporized=""/>
    <tripinfo id="f_0_3.17" depart="140.00" departLane="np3_nt3_0" departPos="20.30" departSpeed="0.00" departDelay="0.91" arrival="271.00" arrivalLane="nt14_np11_0" arrivalPos="75.00" arrivalSpeed="12.12" duration="131.00" routeLength="930.79" waitingTime="22.00" waitingCount="4" stopTime="0.00" timeLoss="62.87" rerouteNo="0" devices="tripinfo_f_0_3.17" vType="type1" speedFactor="1.14" vaporized=""/>
    <tripinfo id="f_0_2.16" depart="131.00" departLane="np2_nt2_0" departPos="31.25" departSpeed="0.00" departDelay="0.09" arrival="272.00" arrivalLane="nt15_np10_0" arrivalPos="75.00" arrivalSpeed="10.77" duration="141.00" routeLength="919.83" waitingTime="29.00" waitingCount="3" stopTime="0.00" timeLoss="65.35" rerouteNo="0" devices="tripinfo_f_0_2.16" vType="type1" speedFactor="1.02" vaporized=""/>
    <tripinfo id="f_0_3.18" depart="148.00" departLane="np3_nt3_0" departPos="49.39" departSpeed="0.00" departDelay="0.72" arrival="273.00" arrivalLane="nt14_np11_0" arrivalPos="75.00" arrivalSpeed="11.27" duration="125.00" routeLength="901.70" waitingTime="23.00" waitingCount="5" stopTime="0.00" timeLoss="56.67" rerouteNo="0" devices="tripinfo_f_0_3.18" vType="type1" speedFactor="1.10" vaporized=""/>
    <tripinfo id="f_0_1.7" depart="96.00" departLane="np16_nt1_0" departPos="57.69" departSpeed="0.00" departDelay="0.55" arrival="275.00" arrivalLane="nt16_np8_0" arrivalPos="75.00" arrivalSpeed="18.97" duration="179.00" routeLength="1290.19" waitingTime="39.00" waitingCount="5" stopTime="0.00" timeLoss="87.05" rerouteNo="0" devices="tripinfo_f_0_1.7" vType="type1" speedFactor="0.99" vaporized=""/>
    <tripinfo id="f_0_2.17" depart="140.00" departLane="np2_nt2_0" departPos="21.73" departSpeed="0.00" departDelay="0.91" arrival="279.00" arrivalLane="nt15_np10_0" arrivalPos="75.00" arrivalSpeed="9.95" duration="139.00" routeLength="929.35" waitingTime="26.00" waitingCount="3" stopTime="0.00" timeLoss="64.66" rerouteNo="0" devices="tripinfo_f_0_2.17" vType="type1" speedFactor="1.05" vaporized=""/>
    <tripinfo id="f_0_1.8" depart="110.00" departLane="np16_nt1_0" departPos="62.55" departSpeed="0.00" departDelay="0.91" arrival="281.00" arrivalLane="nt16_np8_0" arrivalPos="75.00" arrivalSpeed="20.32" duration="171.00" routeLength="1285.33" waitingTime="39.00" waitingCount="5" stopTime="0.00" timeLoss="85.70" rerouteNo="0" devices="tripinfo_f_0_1.8" vType="type1" speedFactor="1.07" vaporized=""/>
    <tripinfo id="f_0_2.18" depart="148.00" departLane="np2_nt2_0" departPos="37.46" departSpeed="0.00" departDelay="0.72" arrival="281.00" arrivalLane="nt15_np10_0" arrivalPos="75.00" arrivalSpeed="8.81" duration="133.00" routeLength="913.62" waitingTime="25.00" waitingCount="3" stopTime="0.00" timeLoss="57.29" rerouteNo="0" devices="tripinfo_f_0_2.18" vType="type1" speedFactor="1.01" vaporized=""/>
    <tripinfo id="f_0_3.19" depart="156.00" departLane="np3_nt3_0" departPos="36.22" departSpeed="0.00" departDelay="0.54" arrival="283.00" arrivalLane="nt14_np11_0" arrivalPos="75.00" arrivalSpeed="9.79" duration="127.00" routeLength="914.87" waitingTime="14.00" waitingCount="3" stopTime="0.00" timeLoss="46.81" rerouteNo="0" devices="tripinfo_f_0_3.19" vType="type1" speedFactor="0.96" vaporized=""/>
    <tripinfo id="f_0_1.9" depart="123.00" departLane="np16_nt1_0" departPos="54.52" departSpeed="0.00" departDelay="0.28" arrival="285.00" arrivalLane="nt16_np8_0" arrivalPos="75.00" arrivalSpeed="17.18" duration="162.00" routeLength="1293.36" waitingTime="37.00" waitingCount="5" stopTime="0.00" timeLoss="65.76" rerouteNo="0" devices="tripinfo_f_0_1.9" vType="type1" speedFactor="0.94" vaporized=""/>
    <tripinfo id="f_0_3.20" depart="164.00" departLane="np3_nt3_0" departPos="38.52" departSpeed="0.00" departDelay="0.36" arrival="285.00" arrivalLane="nt14_np11_0" arrivalPos="75.00" arrivalSpeed="9.42" duration="121.00" routeLength="912.57" waitingTime="19.00" waitingCount="3" stopTime="0.00" timeLoss="46.09" rerouteNo="0" devices="tripinfo_f_0_3.20" vType="type1" speedFactor="1.02" vaporized=""/>
    <tripinfo id="f_0_2.19" depart="156.00" departLane="np2_nt2_0" departPos="0.22" departSpeed="0.00" departDelay="0.54" arrival="287.00" arrivalLane="nt15_np10_0" arrivalPos="75.00" arrivalSpeed="10.74" duration="131.00" routeLength="950.86" waitingTime="13.00" waitingCount="2" stopTime="0.00" timeLoss="49.29" rerouteNo="0" devices="tripinfo_f_0_2.19" vType="type1" speedFactor="0.98" vaporized=""/>
    <tripinfo id="f_0_2.20" depart="164.00" departLane="np2_nt2_0" departPos="21.60" departSpeed="0.00" departDelay="0.36" arrival="290.00" arrivalLane="nt15_np10_0" arrivalPos="75.00" arrivalSpeed="8.17" duration="126.00" routeLength="929.48" waitingTime="10.00" waitingCount="2" stopTime="0.00" timeLoss="36.88" rerouteNo="0" devices="tripinfo_f_0_2.20" vType="type1" speedFactor="0.88" vaporized=""/>
    <tripinfo id="f_0_3.21" depart="172.00" departLane="np3_nt3_0" departPos="5.20" departSpeed="0.00" departDelay="0.18" arrival="292.00" arrivalLane="nt14_np11_0" arrivalPos="75.00" arrivalSpeed="10.56" duration="120.00" routeLength="945.89" waitingTime="16.00" waitingCount="4" stopTime="0.00" timeLoss="39.97" rerouteNo="0" devices="tripinfo_f_0_3.21" vType="type1" speedFactor="0.99" vaporized=""/>
    <tripinfo id="f_0_1.10" depart="137.00" departLane="np16_nt1_0" departPos="61.67" departSpeed="0.00" departDelay="0.64" arrival="293.00" arrivalLane="nt16_np8_0" arrivalPos="75.00" arrivalSpeed="16.88" duration="156.00" routeLength="1286.21" waitingTime="25.00" waitingCount="3" stopTime="0.00" timeLoss="59.81" rerouteNo="0" devices="tripinfo_f_0_1.10" vType="type1" speedFactor="0.94" vaporized=""/>
    <tripinfo id="f_0_2.21" depart="172.00" departLane="np2_nt2_0" departPos="49.89" departSpeed="0.00" departDelay="0.18" arrival="293.00" arrivalLane="nt15_np10_0" arrivalPos="75.00" arrivalSpeed="9.42" duration="121.00" routeLength="901.19" waitingTime="8.00" waitingCount="3" stopTime="0.00" timeLoss="48.51" rerouteNo="0" devices="tripinfo_f_0_2.21" vType="type1" speedFactor="1.04" vaporized=""/>
    <tripinfo id="f_0_3.22" depart="180.00" departLane="np3_nt3_0" departPos="26.73" departSpeed="0.00" departDelay="0.00" arrival="294.00" arrivalLane="nt14_np11_0" arrivalPos="75.00" arrivalSpeed="8.81" duration="114.00" routeLength="924.36" waitingTime="6.00" waitingCount="4" stopTime="0.00" timeLoss="39.07" rerouteNo="0" devices="tripinfo_f_0_3.22" vType="type1" speedFactor="1.03" vaporized=""/>
    <tripinfo id="f_0_0.9" depart="123.00" departLane="np13_nt13_0" departPos="26.56" departSpeed="0.00" departDelay="0.28" arrival="295.00" arrivalLane="nt4_np5_0" arrivalPos="75.00" arrivalSpeed="13.70" duration="172.00" routeLength="1321.33" waitingTime="10.00" waitingCount="4" stopTime="0.00" timeLoss="45.08" rerouteNo="0" devices="tripinfo_f_0_0.9" vType="type1" speedFactor="0.73" vaporized=""/>
    <tripinfo id="f_0_0.10" depart="137.00" departLane="np13_nt13_0" departPos="47.97" departSpeed="0.00" departDelay="0.64" arrival="296.00" arrivalLane="nt4_np5_0" arrivalPos="75.00" arrivalSpeed="15.84" duration="159.00" routeLength="1299.92" waitingTime="23.00" waitingCount="4" stopTime="0.00" timeLoss="82.23" rerouteNo="0" devices="tripinfo_f_0_0.10" vType="type1" speedFactor="1.18" vaporized=""/>
    <tripinfo id="f_0_0.11" depart="150.00" departLane="np13_nt13_0" departPos="38.86" departSpeed="0.00" departDelay="0.00" arrival="298.00" arrivalLane="nt4_np5_0" arrivalPos="75.00" arrivalSpeed="15.66" duration="148.00" routeLength="1309.03" waitingTime="14.00" waitingCount="3" stopTime="0.00" timeLoss="73.28" rerouteNo="0" devices="tripinfo_f_0_0.11" vType="type1" speedFactor="1.22" vaporized=""/>
    <tripinfo id="f_0_1.11" depart="150.00" departLane="np16_nt1_0" departPos="42.84" departSpeed="0.00" departDelay="0.00" arrival="300.00" arrivalLane="nt16_np8_0" arrivalPos="75.00" arrivalSpeed="18.25" duration="150.00" routeLength="1305.04" waitingTime="15.00" waitingCount="3" stopTime="0.00" timeLoss="51.81" rerouteNo="0" devices="tripinfo_f_0_1.11" vType="type1" speedFactor="0.93" vaporized=""/>
    <tripinfo id="f_0_0.12" depart="164.00" departLane="np13_nt13_0" departPos="34.63" departSpeed="0.00" departDelay="0.37" arrival="300.00" arrivalLane="nt4_np5_0" arrivalPos="75.00" arrivalSpeed="16.60" duration="136.00" routeLength="1313.26" waitingTime="9.00" waitingCount="3" stopTime="0.00" timeLoss="39.85" rerouteNo="0" devices="tripinfo_f_0_0.12" vType="type1" speedFactor="0.95" vaporized=""/>
    <tripinfo id="f_0_0.13" depart="178.00" departLane="np13_nt13_0" departPos="49.08" departSpeed="0.00" departDelay="0.73" arrival="302.00" arrivalLane="nt4_np5_0" arrivalPos="75.00" arrivalSpeed="17.62" duration="124.00" routeLength="1298.81" waitingTime="9.00" waitingCount="2" stopTime="0.00" timeLoss="31.98" rerouteNo="0" devices="tripinfo_f_0_0.13" vType="type1" speedFactor="0.99" vaporized=""/>