<?xml version="1.0" encoding="UTF-8"?>

<!-- generated on 2023-08-23 17:06:10 by Eclipse SUMO libsumo Version 1.18.0
<configuration xmlns:xsi="http://www.w3.org/2001/XMLSchema-instance" xsi:noNamespaceSchemaLocation="http://sumo.dlr.de/xsd/libsumoConfiguration.xsd">

    <input>
        <net-file value="/home/stefan/RESCO/./environments/arterial4x4/arterial4x4.net.xml"/>
        <route-files value="/home/stefan/RESCO/./environments/arterial4x4/arterial4x4_92.rou.xml"/>
    </input>

    <output>
        <tripinfo-output value="/home/stefan/results/IDDQN-tr0-arterial4x4-0-drq_norm-wait_norm/tripinfo_92.xml"/>
        <tripinfo-output.write-unfinished value="true"/>
    </output>

    <processing>
        <time-to-teleport value="-1"/>
    </processing>

    <report>
        <no-warnings value="True"/>
        <no-step-log value="True"/>
    </report>

    <random_number>
        <random value="true"/>
    </random_number>

</configuration>
-->

<tripinfos xmlns:xsi="http://www.w3.org/2001/XMLSchema-instance" xsi:noNamespaceSchemaLocation="http://sumo.dlr.de/xsd/tripinfo_file.xsd">
    <tripinfo id="f_0_3.0" depart="0.00" departLane="np3_nt3_0" departPos="0.15" departSpeed="0.00" departDelay="0.00" arrival="108.00" arrivalLane="nt14_np11_0" arrivalPos="75.00" arrivalSpeed="10.72" duration="108.00" routeLength="950.94" waitingTime="9.00" waitingCount="3" stopTime="0.00" timeLoss="26.24" rerouteNo="0" devices="tripinfo_f_0_3.0" vType="type1" speedFactor="0.98" vaporized=""/>
    <tripinfo id="f_0_3.1" depart="9.00" departLane="np3_nt3_0" departPos="0.57" departSpeed="0.00" departDelay="0.82" arrival="109.00" arrivalLane="nt14_np11_0" arrivalPos="75.00" arrivalSpeed="11.05" duration="100.00" routeLength="950.52" waitingTime="1.00" waitingCount="1" stopTime="0.00" timeLoss="25.23" rerouteNo="0" devices="tripinfo_f_0_3.1" vType="type1" speedFactor="1.06" vaporized=""/>
    <tripinfo id="f_0_3.2" depart="17.00" departLane="np3_nt3_0" departPos="7.62" departSpeed="0.00" departDelay="0.64" arrival="116.00" arrivalLane="nt14_np11_0" arrivalPos="75.00" arrivalSpeed="9.18" duration="99.00" routeLength="943.47" waitingTime="0.00" waitingCount="0" stopTime="0.00" timeLoss="15.83" rerouteNo="0" devices="tripinfo_f_0_3.2" vType="type1" speedFactor="0.96" vaporized=""/>
    <tripinfo id="f_0_3.3" depart="25.00" departLane="np3_nt3_0" departPos="1.29" departSpeed="0.00" departDelay="0.45" arrival="118.00" arrivalLane="nt14_np11_0" arrivalPos="75.00" arrivalSpeed="12.72" duration="93.00" routeLength="949.80" waitingTime="8.00" waitingCount="2" stopTime="0.00" timeLoss="23.71" rerouteNo="0" devices="tripinfo_f_0_3.3" vType="type1" speedFactor="1.16" vaporized=""/>
    <tripinfo id="f_0_2.0" depart="0.00" departLane="np2_nt2_0" departPos="10.07" departSpeed="0.00" departDelay="0.00" arrival="152.00" arrivalLane="nt15_np10_0" arrivalPos="75.00" arrivalSpeed="9.55" duration="152.00" routeLength="941.01" waitingTime="54.00" waitingCount="4" stopTime="0.00" timeLoss="73.13" rerouteNo="0" devices="tripinfo_f_0_2.0" vType="type1" speedFactor="1.01" vaporized=""/>
    <tripinfo id="f_0_3.4" depart="33.00" departLane="np3_nt3_0" departPos="16.59" departSpeed="0.00" departDelay="0.27" arrival="152.00" arrivalLane="nt14_np11_0" arrivalPos="75.00" arrivalSpeed="10.83" duration="119.00" routeLength="934.50" waitingTime="25.00" waitingCount="3" stopTime="0.00" timeLoss="43.40" rerouteNo="0" devices="tripinfo_f_0_3.4" vType="type1" speedFactor="1.05" vaporized=""/>
    <tripinfo id="f_0_2.1" depart="9.00" departLane="np2_nt2_0" departPos="32.78" departSpeed="0.00" departDelay="0.82" arrival="154.00" arrivalLane="nt15_np10_0" arrivalPos="75.00" arrivalSpeed="9.69" duration="145.00" routeLength="918.30" waitingTime="48.00" waitingCount="3" stopTime="0.00" timeLoss="68.46" rerouteNo="0" devices="tripinfo_f_0_2.1" vType="type1" speedFactor="1.00" vaporized=""/>
    <tripinfo id="f_0_3.5" depart="41.00" departLane="np3_nt3_0" departPos="20.52" departSpeed="0.00" departDelay="0.09" arrival="155.00" arrivalLane="nt14_np11_0" arrivalPos="75.00" arrivalSpeed="9.18" duration="114.00" routeLength="930.57" waitingTime="4.00" waitingCount="1" stopTime="0.00" timeLoss="25.09" rerouteNo="0" devices="tripinfo_f_0_3.5" vType="type1" speedFactor="0.88" vaporized=""/>
    <tripinfo id="f_0_1.0" depart="0.00" departLane="np16_nt1_0" departPos="33.14" departSpeed="0.00" departDelay="0.00" arrival="163.00" arrivalLane="nt16_np8_0" arrivalPos="75.00" arrivalSpeed="18.69" duration="163.00" routeLength="1314.74" waitingTime="46.00" waitingCount="4" stopTime="0.00" timeLoss="71.96" rerouteNo="0" devices="tripinfo_f_0_1.0" vType="type1" speedFactor="1.00" vaporized=""/>
    <tripinfo id="f_0_2.2" depart="17.00" departLane="np2_nt2_0" departPos="12.70" departSpeed="0.00" departDelay="0.64" arrival="164.00" arrivalLane="nt15_np10_0" arrivalPos="75.00" arrivalSpeed="11.56" duration="147.00" routeLength="938.38" waitingTime="45.00" waitingCount="5" stopTime="0.00" timeLoss="75.12" rerouteNo="0" devices="tripinfo_f_0_2.2" vType="type1" speedFactor="1.09" vaporized=""/>
    <tripinfo id="f_0_2.3" depart="25.00" departLane="np2_nt2_0" departPos="34.13" departSpeed="0.00" departDelay="0.45" arrival="167.00" arrivalLane="nt15_np10_0" arrivalPos="75.00" arrivalSpeed="9.91" duration="142.00" routeLength="916.95" waitingTime="31.00" waitingCount="3" stopTime="0.00" timeLoss="64.67" rerouteNo="0" devices="tripinfo_f_0_2.3" vType="type1" speedFactor="0.99" vaporized=""/>
    <tripinfo id="f_0_1.1" depart="14.00" departLane="np16_nt1_0" departPos="61.50" departSpeed="0.00" departDelay="0.36" arrival="168.00" arrivalLane="nt16_np8_0" arrivalPos="75.00" arrivalSpeed="16.90" duration="154.00" routeLength="1286.38" waitingTime="32.00" waitingCount="3" stopTime="0.00" timeLoss="59.72" rerouteNo="0" devices="tripinfo_f_0_1.1" vType="type1" speedFactor="0.96" vaporized=""/>
    <tripinfo id="f_0_1.2" depart="28.00" departLane="np16_nt1_0" departPos="0.69" departSpeed="0.00" departDelay="0.73" arrival="169.00" arrivalLane="nt16_np8_0" arrivalPos="75.00" arrivalSpeed="19.89" duration="141.00" routeLength="1347.19" waitingTime="26.00" waitingCount="3" stopTime="0.00" timeLoss="48.40" rerouteNo="0" devices="tripinfo_f_0_1.2" vType="type1" speedFactor="1.01" vaporized=""/>
    <tripinfo id="f_0_3.6" depart="50.00" departLane="np3_nt3_0" departPos="12.31" departSpeed="0.00" departDelay="0.91" arrival="180.00" arrivalLane="nt14_np11_0" arrivalPos="75.00" arrivalSpeed="7.05" duration="130.00" routeLength="938.78" waitingTime="3.00" waitingCount="1" stopTime="0.00" timeLoss="26.54" rerouteNo="0" devices="tripinfo_f_0_3.6" vType="type1" speedFactor="0.76" vaporized=""/>
    <tripinfo id="f_0_1.3" depart="41.00" departLane="np16_nt1_0" departPos="8.55" departSpeed="0.00" departDelay="0.09" arrival="182.00" arrivalLane="nt16_np8_0" arrivalPos="75.00" arrivalSpeed="15.73" duration="141.00" routeLength="1339.33" waitingTime="5.00" waitingCount="2" stopTime="0.00" timeLoss="32.14" rerouteNo="0" devices="tripinfo_f_0_1.3" vType="type1" speedFactor="0.85" vaporized=""/>
    <tripinfo id="f_0_3.7" depart="58.00" departLane="np3_nt3_0" departPos="36.39" departSpeed="0.00" departDelay="0.73" arrival="182.00" arrivalLane="nt14_np11_0" arrivalPos="75.00" arrivalSpeed="10.17" duration="124.00" routeLength="914.70" waitingTime="12.00" waitingCount="2" stopTime="0.00" timeLoss="49.53" rerouteNo="0" devices="tripinfo_f_0_3.7" vType="type1" speedFactor="1.03" vaporized=""/>
    <tripinfo id="f_0_0.0" depart="0.00" departLane="np13_nt13_0" departPos="14.46" departSpeed="0.00" departDelay="0.00" arrival="184.00" arrivalLane="nt4_np5_0" arrivalPos="75.00" arrivalSpeed="15.05" duration="184.00" routeLength="1333.43" waitingTime="49.00" waitingCount="4" stopTime="0.00" timeLoss="75.02" rerouteNo="0" devices="tripinfo_f_0_0.0" vType="type1" speedFactor="0.85" vaporized=""/>
    <tripinfo id="f_0_3.8" depart="66.00" departLane="np3_nt3_0" departPos="10.80" departSpeed="0.00" departDelay="0.54" arrival="184.00" arrivalLane="nt14_np11_0" arrivalPos="75.00" arrivalSpeed="13.75" duration="118.00" routeLength="940.29" waitingTime="16.00" waitingCount="2" stopTime="0.00" timeLoss="55.23" rerouteNo="0" devices="tripinfo_f_0_3.8" vType="type1" speedFactor="1.27" vaporized=""/>
    <tripinfo id="f_0_0.1" depart="14.00" departLane="np13_nt13_0" departPos="53.35" departSpeed="0.00" departDelay="0.36" arrival="185.00" arrivalLane="nt4_np5_0" arrivalPos="75.00" arrivalSpeed="18.05" duration="171.00" routeLength="1294.54" waitingTime="41.00" waitingCount="6" stopTime="0.00" timeLoss="83.87" rerouteNo="0" devices="tripinfo_f_0_0.1" vType="type1" speedFactor="1.03" vaporized=""/>
    <tripinfo id="f_0_2.4" depart="33.00" departLane="np2_nt2_0" departPos="39.01" departSpeed="0.00" departDelay="0.27" arrival="187.00" arrivalLane="nt15_np10_0" arrivalPos="75.00" arrivalSpeed="10.43" duration="154.00" routeLength="912.07" waitingTime="32.00" waitingCount="4" stopTime="0.00" timeLoss="81.69" rerouteNo="0" devices="tripinfo_f_0_2.4" vType="type1" speedFactor="1.06" vaporized=""/>
    <tripinfo id="f_0_2.5" depart="41.00" departLane="np2_nt2_0" departPos="39.14" departSpeed="0.00" departDelay="0.09" arrival="189.00" arrivalLane="nt15_np10_0" arrivalPos="75.00" arrivalSpeed="9.88" duration="148.00" routeLength="911.94" waitingTime="27.00" waitingCount="5" stopTime="0.00" timeLoss="74.03" rerouteNo="0" devices="tripinfo_f_0_2.5" vType="type1" speedFactor="1.03" vaporized=""/>
    <tripinfo id="f_0_2.6" depart="50.00" departLane="np2_nt2_0" departPos="10.10" departSpeed="0.00" departDelay="0.91" arrival="193.00" arrivalLane="nt15_np10_0" arrivalPos="75.00" arrivalSpeed="11.70" duration="143.00" routeLength="940.98" waitingTime="27.00" waitingCount="6" stopTime="0.00" timeLoss="75.67" rerouteNo="0" devices="tripinfo_f_0_2.6" vType="type1" speedFactor="1.18" vaporized=""/>
    <tripinfo id="f_0_2.7" depart="58.00" departLane="np2_nt2_0" departPos="35.36" departSpeed="0.00" departDelay="0.73" arrival="196.00" arrivalLane="nt15_np10_0" arrivalPos="75.00" arrivalSpeed="10.65" duration="138.00" routeLength="915.72" waitingTime="22.00" waitingCount="7" stopTime="0.00" timeLoss="63.93" rerouteNo="0" devices="tripinfo_f_0_2.7" vType="type1" speedFactor="1.03" vaporized=""/>
    <tripinfo id="f_0_0.2" depart="28.00" departLane="np13_nt13_0" departPos="1.85" departSpeed="0.00" departDelay="0.73" arrival="199.00" arrivalLane="nt4_np5_0" arrivalPos="75.00" arrivalSpeed="17.74" duration="171.00" routeLength="1346.04" waitingTime="22.00" waitingCount="5" stopTime="0.00" timeLoss="65.84" rerouteNo="0" devices="tripinfo_f_0_0.2" vType="type1" speedFactor="0.89" vaporized=""/>
    <tripinfo id="f_0_3.9" depart="74.00" departLane="np3_nt3_0" departPos="34.56" departSpeed="0.00" departDelay="0.36" arrival="201.00" arrivalLane="nt14_np11_0" arrivalPos="75.00" arrivalSpeed="11.73" duration="127.00" routeLength="916.53" waitingTime="31.00" waitingCount="6" stopTime="0.00" timeLoss="58.65" rerouteNo="0" devices="tripinfo_f_0_3.9" vType="type1" speedFactor="1.12" vaporized=""/>
    <tripinfo id="f_0_1.4" depart="55.00" departLane="np16_nt1_0" departPos="2.21" departSpeed="0.00" departDelay="0.46" arrival="202.00" arrivalLane="nt16_np8_0" arrivalPos="75.00" arrivalSpeed="16.95" duration="147.00" routeLength="1345.67" waitingTime="17.00" waitingCount="3" stopTime="0.00" timeLoss="44.56" rerouteNo="0" devices="tripinfo_f_0_1.4" vType="type1" speedFactor="0.91" vaporized=""/>
    <tripinfo id="f_0_3.10" depart="82.00" departLane="np3_nt3_0" departPos="8.59" departSpeed="0.00" departDelay="0.18" arrival="213.00" arrivalLane="nt14_np11_0" arrivalPos="75.00" arrivalSpeed="9.13" duration="131.00" routeLength="942.50" waitingTime="19.00" waitingCount="6" stopTime="0.00" timeLoss="44.67" rerouteNo="0" devices="tripinfo_f_0_3.10" vType="type1" speedFactor="0.92" vaporized=""/>
    <tripinfo id="f_0_0.3" depart="41.00" departLane="np13_nt13_0" departPos="48.31" departSpeed="0.00" departDelay="0.09" arrival="214.00" arrivalLane="nt4_np5_0" arrivalPos="75.00" arrivalSpeed="17.65" duration="173.00" routeLength="1299.58" waitingTime="24.00" waitingCount="4" stopTime="0.00" timeLoss="73.95" rerouteNo="0" devices="tripinfo_f_0_0.3" vType="type1" speedFactor="0.92" vaporized=""/>
    <tripinfo id="f_0_0.4" depart="55.00" departLane="np13_nt13_0" departPos="27.83" departSpeed="0.00" departDelay="0.46" arrival="215.00" arrivalLane="nt4_np5_0" arrivalPos="75.00" arrivalSpeed="19.49" duration="160.00" routeLength="1320.06" waitingTime="36.00" waitingCount="4" stopTime="0.00" timeLoss="70.19" rerouteNo="0" devices="tripinfo_f_0_0.4" vType="type1" speedFactor="1.03" vaporized=""/>
    <tripinfo id="f_0_3.11" depart="90.00" departLane="np3_nt3_0" departPos="17.38" departSpeed="0.00" departDelay="0.00" arrival="215.00" arrivalLane="nt14_np11_0" arrivalPos="75.00" arrivalSpeed="10.29" duration="125.00" routeLength="933.71" waitingTime="19.00" waitingCount="4" stopTime="0.00" timeLoss="53.89" rerouteNo="0" devices="tripinfo_f_0_3.11" vType="type1" speedFactor="1.09" vaporized=""/>
    <tripinfo id="f_0_2.8" depart="66.00" departLane="np2_nt2_0" departPos="1.87" departSpeed="0.00" departDelay="0.54" arrival="216.00" arrivalLane="nt15_np10_0" arrivalPos="75.00" arrivalSpeed="11.72" duration="150.00" routeLength="949.21" waitingTime="27.00" waitingCount="5" stopTime="0.00" timeLoss="80.37" rerouteNo="0" devices="tripinfo_f_0_2.8" vType="type1" speedFactor="1.14" vaporized=""/>
    <tripinfo id="f_0_0.5" depart="69.00" departLane="np13_nt13_0" departPos="41.82" departSpeed="0.00" departDelay="0.82" arrival="217.00" arrivalLane="nt4_np5_0" arrivalPos="75.00" arrivalSpeed="15.75" duration="148.00" routeLength="1306.07" waitingTime="12.00" waitingCount="3" stopTime="0.00" timeLoss="42.40" rerouteNo="0" devices="tripinfo_f_0_0.5" vType="type1" speedFactor="0.86" vaporized=""/>
    <tripinfo id="f_0_1.5" depart="69.00" departLane="np16_nt1_0" departPos="41.43" departSpeed="0.00" departDelay="0.82" arrival="218.00" arrivalLane="nt16_np8_0" arrivalPos="75.00" arrivalSpeed="15.11" duration="149.00" routeLength="1306.45" waitingTime="11.00" waitingCount="2" stopTime="0.00" timeLoss="37.89" rerouteNo="0" devices="tripinfo_f_0_1.5" vType="type1" speedFactor="0.82" vaporized=""/>
    <tripinfo id="f_0_2.9" depart="74.00" departLane="np2_nt2_0" departPos="2.42" departSpeed="0.00" departDelay="0.36" arrival="218.00" arrivalLane="nt15_np10_0" arrivalPos="75.00" arrivalSpeed="11.12" duration="144.00" routeLength="948.66" waitingTime="23.00" waitingCount="5" stopTime="0.00" timeLoss="76.05" rerouteNo="0" devices="tripinfo_f_0_2.9" vType="type1" speedFactor="1.18" vaporized=""/>
    <tripinfo id="f_0_3.12" depart="99.00" departLane="np3_nt3_0" departPos="11.99" departSpeed="0.00" departDelay="0.82" arrival="220.00" arrivalLane="nt14_np11_0" arrivalPos="75.00" arrivalSpeed="10.09" duration="121.00" routeLength="939.10" waitingTime="18.00" waitingCount="3" stopTime="0.00" timeLoss="41.81" rerouteNo="0" devices="tripinfo_f_0_3.12" vType="type1" speedFactor="1.00" vaporized=""/>
    <tripinfo id="f_0_2.10" depart="82.00" departLane="np2_nt2_0" departPos="45.42" departSpeed="0.00" departDelay="0.18" arrival="222.00" arrivalLane="nt15_np10_0" arrivalPos="75.00" arrivalSpeed="9.38" duration="140.00" routeLength="905.66" waitingTime="24.00" waitingCount="5" stopTime="0.00" timeLoss="61.87" rerouteNo="0" devices="tripinfo_f_0_2.10" vType="type1" speedFactor="0.97" vaporized=""/>
    <tripinfo id="f_0_2.11" depart="90.00" departLane="np2_nt2_0" departPos="20.08" departSpeed="0.00" departDelay="0.00" arrival="223.00" arrivalLane="nt15_np10_0" arrivalPos="75.00" arrivalSpeed="11.38" duration="133.00" routeLength="931.00" waitingTime="15.00" waitingCount="6" stopTime="0.00" timeLoss="65.15" rerouteNo="0" devices="tripinfo_f_0_2.11" vType="type1" speedFactor="1.15" vaporized=""/>
    <tripinfo id="f_0_1.6" depart="82.00" departLane="np16_nt1_0" departPos="56.27" departSpeed="0.00" departDelay="0.18" arrival="226.00" arrivalLane="nt16_np8_0" arrivalPos="75.00" arrivalSpeed="14.57" duration="144.00" routeLength="1291.61" waitingTime="6.00" waitingCount="2" stopTime="0.00" timeLoss="32.39" rerouteNo="0" devices="tripinfo_f_0_1.6" vType="type1" speedFactor="0.82" vaporized=""/>
    <tripinfo id="f_0_2.12" depart="99.00" departLane="np2_nt2_0" departPos="9.34" departSpeed="0.00" departDelay="0.82" arrival="229.00" arrivalLane="nt15_np10_0" arrivalPos="75.00" arrivalSpeed="11.01" duration="130.00" routeLength="941.74" waitingTime="13.00" waitingCount="4" stopTime="0.00" timeLoss="63.07" rerouteNo="0" devices="tripinfo_f_0_2.12" vType="type1" speedFactor="1.19" vaporized=""/>
    <tripinfo id="f_0_1.7" depart="96.00" departLane="np16_nt1_0" departPos="42.02" departSpeed="0.00" departDelay="0.55" arrival="234.00" arrivalLane="nt16_np8_0" arrivalPos="75.00" arrivalSpeed="20.76" duration="138.00" routeLength="1305.86" waitingTime="15.00" waitingCount="4" stopTime="0.00" timeLoss="57.35" rerouteNo="0" devices="tripinfo_f_0_1.7" vType="type1" speedFactor="1.14" vaporized=""/>
    <tripinfo id="f_0_0.6" depart="82.00" departLane="np13_nt13_0" departPos="65.62" departSpeed="0.00" departDelay="0.18" arrival="237.00" arrivalLane="nt4_np5_0" arrivalPos="75.00" arrivalSpeed="18.95" duration="155.00" routeLength="1282.27" waitingTime="39.00" waitingCount="3" stopTime="0.00" timeLoss="59.84" rerouteNo="0" devices="tripinfo_f_0_0.6" vType="type1" speedFactor="0.95" vaporized=""/>
    <tripinfo id="f_0_0.7" depart="96.00" departLane="np13_nt13_0" departPos="26.04" departSpeed="0.00" departDelay="0.55" arrival="238.00" arrivalLane="nt4_np5_0" arrivalPos="75.00" arrivalSpeed="18.08" duration="142.00" routeLength="1321.85" waitingTime="19.00" waitingCount="4" stopTime="0.00" timeLoss="47.99" rerouteNo="0" devices="tripinfo_f_0_0.7" vType="type1" speedFactor="0.97" vaporized=""/>
    <tripinfo id="f_0_0.8" depart="110.00" departLane="np13_nt13_0" departPos="32.25" departSpeed="0.00" departDelay="0.91" arrival="242.00" arrivalLane="nt4_np5_0" arrivalPos="75.00" arrivalSpeed="18.70" duration="132.00" routeLength="1315.64" waitingTime="8.00" waitingCount="3" stopTime="0.00" timeLoss="35.45" rerouteNo="0" devices="tripinfo_f_0_0.8" vType="type1" speedFactor="0.95" vaporized=""/>
    <tripinfo id="f_0_3.13" depart="107.00" departLane="np3_nt3_0" departPos="46.48" departSpeed="0.00" departDelay="0.63" arrival="250.00" arrivalLane="nt14_np11_0" arrivalPos="75.00" arrivalSpeed="8.40" duration="143.00" routeLength="904.61" waitingTime="13.00" waitingCount="5" stopTime="0.00" timeLoss="44.83" rerouteNo="0" devices="tripinfo_f_0_3.13" vType="type1" speedFactor="0.77" vaporized=""/>
    <tripinfo id="f_0_3.14" depart="115.00" departLane="np3_nt3_0" departPos="42.16" departSpeed="0.00" departDelay="0.45" arrival="253.00" arrivalLane="nt14_np11_0" arrivalPos="75.00" arrivalSpeed="7.73" duration="138.00" routeLength="908.93" waitingTime="12.00" waitingCount="4" stopTime="0.00" timeLoss="46.89" rerouteNo="0" devices="tripinfo_f_0_3.14" vType="type1" speedFactor="0.84" vaporized=""/>
    <tripinfo id="f_0_3.15" depart="123.00" departLane="np3_nt3_0" departPos="18.09" departSpeed="0.00" departDelay="0.27" arrival="255.00" arrivalLane="nt14_np11_0" arrivalPos="75.00" arrivalSpeed="8.73" duration="132.00" routeLength="933.00" waitingTime="18.00" waitingCount="4" stopTime="0.00" timeLoss="51.81" rerouteNo="0" devices="tripinfo_f_0_3.15" vType="type1" speedFactor="0.97" vaporized=""/>
    <tripinfo id="f_0_3.16" depart="131.00" departLane="np3_nt3_0" departPos="7.17" departSpeed="0.00" departDelay="0.09" arrival="257.00" arrivalLane="nt14_np11_0" arrivalPos="75.00" arrivalSpeed="12.82" duration="126.00" routeLength="943.92" waitingTime="11.00" waitingCount="2" stopTime="0.00" timeLoss="57.13" rerouteNo="0" devices="tripinfo_f_0_3.16" vType="type1" speedFactor="1.17" vaporized=""/>
    <tripinfo id="f_0_3.17" depart="140.00" departLane="np3_nt3_0" departPos="15.39" departSpeed="0.00" departDelay="0.91" arrival="262.00" arrivalLane="nt14_np11_0" arrivalPos="75.00" arrivalSpeed="10.11" duration="122.00" routeLength="935.70" waitingTime="5.00" waitingCount="3" stopTime="0.00" timeLoss="47.84" rerouteNo="0" devices="tripinfo_f_0_3.17" vType="type1" speedFactor="1.07" vaporized=""/>
    <tripinfo id="f_0_3.18" depart="148.00" departLane="np3_nt3_0" departPos="31.11" departSpeed="0.00" departDelay="0.72" arrival="264.00" arrivalLane="nt14_np11_0" arrivalPos="75.00" arrivalSpeed="10.03" duration="116.00" routeLength="919.98" waitingTime="2.00" waitingCount="1" stopTime="0.00" timeLoss="41.61" rerouteNo="0" devices="tripinfo_f_0_3.18" vType="type1" speedFactor="1.04" vaporized=""/>
    <tripinfo id="f_0_0.9" depart="123.00" departLane="np13_nt13_0" departPos="3.24" departSpeed="0.00" departDelay="0.28" arrival="278.00" arrivalLane="nt4_np5_0" arrivalPos="75.00" arrivalSpeed="16.63" duration="155.00" routeLength="1344.65" waitingTime="20.00" waitingCount="3" stopTime="0.00" timeLoss="45.48" rerouteNo="0" devices="tripinfo_f_0_0.9" vType="type1" speedFactor="0.85" vaporized=""/>
    <tripinfo id="f_0_0.10" depart="137.00" departLane="np13_nt13_0" departPos="59.85" departSpeed="0.00" departDelay="0.64" arrival="284.00" arrivalLane="nt4_np5_0" arrivalPos="75.00" arrivalSpeed="16.50" duration="147.00" routeLength="1288.04" waitingTime="20.00" waitingCount="2" stopTime="0.00" timeLoss="43.71" rerouteNo="0" devices="tripinfo_f_0_0.10" vType="type1" speedFactor="0.87" vaporized=""/>
    <tripinfo id="f_0_3.19" depart="156.00" departLane="np3_nt3_0" departPos="30.69" departSpeed="0.00" departDelay="0.54" arrival="298.00" arrivalLane="nt14_np11_0" arrivalPos="75.00" arrivalSpeed="8.82" duration="142.00" routeLength="920.40" waitingTime="33.00" waitingCount="3" stopTime="0.00" timeLoss="56.02" rerouteNo="0" devices="tripinfo_f_0_3.19" vType="type1" speedFactor="0.89" vaporized=""/>
    <tripinfo id="f_0_0.11" depart="150.00" departLane="np13_nt13_0" departPos="14.16" departSpeed="0.00" departDelay="0.00" arrival="300.00" arrivalLane="nt4_np5_0" arrivalPos="75.00" arrivalSpeed="20.07" duration="150.00" routeLength="1333.73" waitingTime="27.00" waitingCount="3" stopTime="0.00" timeLoss="57.91" rerouteNo="0" devices="tripinfo_f_0_0.11" vType="type1" speedFactor="1.01" vaporized=""/>
    <tripinfo id="f_0_3.20" depart="164.00" departLane="np3_nt3_0" departPos="12.33" departSpeed="0.00" departDelay="0.36" arrival="300.00" arrivalLane="nt14_np11_0" arrivalPos="75.00" arrivalSpeed="10.22" duration="136.00" routeLength="938.76" waitingTime="32.00" waitingCount="3" stopTime="0.00" timeLoss="53.96" rerouteNo="0" devices="tripinfo_f_0_3.20" vType="type1" speedFactor="0.96" vaporized=""/>
    <tripinfo id="f_0_3.21" depart="172.00" departLane="np3_nt3_0" departPos="27.68" departSpeed="0.00" departDelay="0.18" arrival="306.00" arrivalLane="nt14_np11_0" arrivalPos="75.00" arrivalSpeed="7.55" duration="134.00" routeLength="923.41" waitingTime="4.00" waitingCount="1" stopTime="0.00" timeLoss="27.80" rerouteNo="0" devices="tripinfo_f_0_3.21" vType="type1" speedFactor="0.73" vaporized=""/>
    <tripinfo id="f_0_3.22" depart="180.00" departLane="np3_nt3_0" departPos="2.78" departSpeed="0.00" departDelay="0.00" arrival="308.00" arrivalLane="nt14_np11_0" arrivalPos="75.00" arrivalSpeed="8.13" duration="128.00" routeLength="948.31" waitingTime="0.00" waitingCount="0" stopTime="0.00" timeLoss="38.52" rerouteNo="0" devices="tripinfo_f_0_3.22" vType="type1" speedFactor="0.89" vaporized=""/>
    <tripinfo id="f_0_0.12" depart="164.00" departLane="np13_nt13_0" departPos="40.64" departSpeed="0.00" departDelay="0.37" arrival="309.00" arrivalLane="nt4_np5_0" arrivalPos="75.00" arrivalSpeed="20.10" duration="145.00" routeLength="1307.25" waitingTime="31.00" waitingCount="4" stopTime="0.00" timeLoss="61.30" rerouteNo="0" devices="tripinfo_f_0_0.12" vType="type1" speedFactor="1.09" vaporized=""/>
    <tripinfo id="f_0_3.23" depart="189.00" departLane="np3_nt3_0" departPos="33.05" departSpeed="0.00" departDelay="0.81" arrival="310.00" arrivalLane="nt14_np11_0" arrivalPos="75.00" arrivalSpeed="10.75" duration="121.00" routeLength="918.04" waitingTime="1.00" waitingCount="1" stopTime="0.00" timeLoss="44.25" rerouteNo="0" devices="tripinfo_f_0_3.23" vType="type1" speedFactor="1.00" vaporized=""/>
    <tripinfo id="f_0_0.13" depart="178.00" departLane="np13_nt13_0" departPos="23.88" departSpeed="0.00" departDelay="0.73" arrival="311.00" arrivalLane="nt4_np5_0" arrivalPos="75.00" arrivalSpeed="19.80" duration="133.00" routeLength="1324.01" waitingTime="16.00" waitingCount="4" stopTime="0.00" timeLoss="48.87" rerouteNo="0" devices="tripinfo_f_0_0.13" vType="type1" speedFactor="1.09" vaporized=""/>
    <tripinfo id="f_0_3.24" depart="197.00" departLane="np3_nt3_0" departPos="18.60" departSpeed="0.00" departDelay="0.63" arrival="312.00" arrivalLane="nt14_np11_0" arrivalPos="75.00" arrivalSpeed="9.38" duration="115.00" routeLength="932.49" waitingTime="10.00" waitingCount="1" stopTime="0.00" timeLoss="33.42" rerouteNo="0" devices="tripinfo_f_0_3.24" vType="type1" speedFactor="0.96" vaporized=""/>
    <tripinfo id="f_0_3.25" depart="205.00" departLane="np3_nt3_0" departPos="33.79" departSpeed="0.00" departDelay="0.45" arrival="314.00" arrivalLane="nt14_np11_0" arrivalPos="75.00" arrivalSpeed="11.94" duration="109.00" routeLength="917.30" waitingTime="8.00" waitingCount="1" stopTime="0.00" timeLoss="39.85" rerouteNo="0" devices="tripinfo_f_0_3.25" vType="type1" speedFactor="1.12" vaporized=""/>
    <tripinfo id="f_0_2.13" depart="107.00" departLane="np2_nt2_0" departPos="38.68" departSpeed="0.00" departDelay="0.63" arrival="322.00" arrivalLane="nt15_np10_0" arrivalPos="75.00" arrivalSpeed="10.32" duration="215.00" routeLength="912.40" waitingTime="104.00" waitingCount="6" stopTime="0.00" timeLoss="141.70" rerouteNo="0" devices="tripinfo_f_0_2.13" vType="type1" speedFactor="1.05" vaporized=""/>
    <tripinfo id="f_0_3.26" depart="213.00" departLane="np3_nt3_0" departPos="25.14" departSpeed="0.00" departDelay="0.27" arrival="325.00" arrivalLane="nt14_np11_0" arrivalPos="75.00" arrivalSpeed="9.96" duration="112.00" routeLength="925.95" waitingTime="12.00" waitingCount="1" stopTime="0.00" timeLoss="32.29" rerouteNo="0" devices="tripinfo_f_0_3.26" vType="type1" speedFactor="0.98" vaporized=""/>
    <tripinfo id="f_0_2.14" depart="115.00" departLane="np2_nt2_0" departPos="34.11" departSpeed="0.00" departDelay="0.45" arrival="328.00" arrivalLane="nt15_np10_0" arrivalPos="75.00" arrivalSpeed="8.65" duration="213.00" routeLength="916.97" waitingTime="78.00" waitingCount="7" stopTime="0.00" timeLoss="137.03" rerouteNo="0" devices="tripinfo_f_0_2.14" vType="type1" speedFactor="1.01" vaporized=""/>
    <tripinfo id="f_0_2.15" depart="123.00" departLane="np2_nt2_0" departPos="12.34" departSpeed="0.00" departDelay="0.27" arrival="330.00" arrivalLane="nt15_np10_0" arrivalPos="75.00" arrivalSpeed="11.85" duration="207.00" routeLength="938.74" waitingTime="72.00" waitingCount="5" stopTime="0.00" timeLoss="136.95" rerouteNo="0" devices="tripinfo_f_0_2.15" vType="type1" speedFactor="1.13" vaporized=""/>
    <tripinfo id="f_0_2.16" depart="131.00" departLane="np2_nt2_0" departPos="45.50" departSpeed="0.00" departDelay="0.09" arrival="332.00" arrivalLane="nt15_np10_0" arrivalPos="75.00" arrivalSpeed="12.55" duration="201.00" routeLength="905.58" waitingTime="78.00" waitingCount="6" stopTime="0.00" timeLoss="136.76" rerouteNo="0" devices="tripinfo_f_0_2.16" vType="type1" speedFactor="1.18" vaporized=""/>
    <tripinfo id="f_0_0.14" depart="191.00" departLane="np13_nt13_0" departPos="28.52" departSpeed="0.00" departDelay="0.10" arrival="332.00" arrivalLane="nt4_np5_0" arrivalPos="75.00" arrivalSpeed="16.13" duration="141.00" routeLength="1319.37" waitingTime="12.00" waitingCount="3" stopTime="0.00" timeLoss="41.74" rerouteNo="0" devices="tripinfo_f_0_0.14" vType="type1" speedFactor="0.92" vaporized=""/>
    <tripinfo id="f_0_0.15" depart="205.00" departLane="np13_nt13_0" departPos="63.91" departSpeed="0.00" departDelay="0.46" arrival="333.00" arrivalLane="nt4_np5_0" arrivalPos="75.00" arrivalSpeed="19.26" duration="128.00" routeLength="1283.98" waitingTime="7.00" waitingCount="2" stopTime="0.00" timeLoss="40.80" rerouteNo="0" devices="tripinfo_f_0_0.15" vType="type1" speedFactor="1.02" vaporized=""/>
    <tripinfo id="f_0_1.8" depart="110.00" departLane="np16_nt1_0" departPos="26.95" departSpeed="0.00" departDelay="0.91" arrival="336.00" arrivalLane="nt16_np8_0" arrivalPos="75.00" arrivalSpeed="15.92" duration="226.00" routeLength="1320.93" waitingTime="75.00" waitingCount="5" stopTime="0.00" timeLoss="113.74" rerouteNo="0" devices="tripinfo_f_0_1.8" vType="type1" speedFactor="0.82" vaporized=""/>
    <tripinfo id="f_0_2.17" depart="140.00" departLane="np2_nt2_0" departPos="38.80" departSpeed="0.00" departDelay="0.91" arrival="338.00" arrivalLane="nt15_np10_0" arrivalPos="75.00" arrivalSpeed="11.93" duration="198.00" routeLength="912.28" waitingTime="68.00" waitingCount="6" stopTime="0.00" timeLoss="128.69" rerouteNo="0" devices="tripinfo_f_0_2.17" vType="type1" speedFactor="1.11" vaporized=""/>
    <tripinfo id="f_0_3.27" depart="221.00" departLane="np3_nt3_0" departPos="34.99" departSpeed="0.00" departDelay="0.09" arrival="338.00" arrivalLane="nt14_np11_0" arrivalPos="75.00" arrivalSpeed="8.95" duration="117.00" routeLength="916.10" waitingTime="18.00" waitingCount="3" stopTime="0.00" timeLoss="38.36" rerouteNo="0" devices="tripinfo_f_0_3.27" vType="type1" speedFactor="0.97" vaporized=""/>