<?xml version="1.0" encoding="UTF-8"?>

<!-- generated on 2023-08-23 16:45:59 by Eclipse SUMO libsumo Version 1.18.0
<configuration xmlns:xsi="http://www.w3.org/2001/XMLSchema-instance" xsi:noNamespaceSchemaLocation="http://sumo.dlr.de/xsd/libsumoConfiguration.xsd">

    <input>
        <net-file value="/home/stefan/RESCO/./environments/arterial4x4/arterial4x4.net.xml"/>
        <route-files value="/home/stefan/RESCO/./environments/arterial4x4/arterial4x4_68.rou.xml"/>
    </input>

    <output>
        <tripinfo-output value="/home/stefan/results/IDDQN-tr0-arterial4x4-0-drq_norm-wait_norm/tripinfo_68.xml"/>
        <tripinfo-output.write-unfinished value="true"/>
    </output>

    <processing>
        <time-to-teleport value="-1"/>
    </processing>

    <report>
        <no-warnings value="True"/>
        <no-step-log value="True"/>
    </report>

    <random_number>
        <random value="true"/>
    </random_number>

</configuration>
-->

<tripinfos xmlns:xsi="http://www.w3.org/2001/XMLSchema-instance" xsi:noNamespaceSchemaLocation="http://sumo.dlr.de/xsd/tripinfo_file.xsd">
    <tripinfo id="f_0_0.0" depart="0.00" departLane="np13_nt13_0" departPos="40.90" departSpeed="0.00" departDelay="0.00" arrival="138.00" arrivalLane="nt4_np5_0" arrivalPos="75.00" arrivalSpeed="24.48" duration="138.00" routeLength="1306.99" waitingTime="25.00" waitingCount="5" stopTime="0.00" timeLoss="63.81" rerouteNo="0" devices="tripinfo_f_0_0.0" vType="type1" speedFactor="1.23" vaporized=""/>
    <tripinfo id="f_0_3.0" depart="0.00" departLane="np3_nt3_0" departPos="24.07" departSpeed="0.00" departDelay="0.00" arrival="139.00" arrivalLane="nt14_np11_0" arrivalPos="75.00" arrivalSpeed="8.44" duration="139.00" routeLength="927.02" waitingTime="36.00" waitingCount="4" stopTime="0.00" timeLoss="58.93" rerouteNo="0" devices="tripinfo_f_0_3.0" vType="type1" speedFactor="0.97" vaporized=""/>
    <tripinfo id="f_0_0.1" depart="14.00" departLane="np13_nt13_0" departPos="23.75" departSpeed="0.00" departDelay="0.36" arrival="140.00" arrivalLane="nt4_np5_0" arrivalPos="75.00" arrivalSpeed="21.09" duration="126.00" routeLength="1324.14" waitingTime="14.00" waitingCount="5" stopTime="0.00" timeLoss="46.78" rerouteNo="0" devices="tripinfo_f_0_0.1" vType="type1" speedFactor="1.17" vaporized=""/>
    <tripinfo id="f_0_3.1" depart="9.00" departLane="np3_nt3_0" departPos="25.11" departSpeed="0.00" departDelay="0.82" arrival="158.00" arrivalLane="nt14_np11_0" arrivalPos="75.00" arrivalSpeed="7.80" duration="149.00" routeLength="925.98" waitingTime="38.00" waitingCount="4" stopTime="0.00" timeLoss="64.90" rerouteNo="0" devices="tripinfo_f_0_3.1" vType="type1" speedFactor="0.92" vaporized=""/>
    <tripinfo id="f_0_3.2" depart="17.00" departLane="np3_nt3_0" departPos="28.99" departSpeed="0.00" departDelay="0.64" arrival="160.00" arrivalLane="nt14_np11_0" arrivalPos="75.00" arrivalSpeed="9.90" duration="143.00" routeLength="922.10" waitingTime="28.00" waitingCount="4" stopTime="0.00" timeLoss="61.19" rerouteNo="0" devices="tripinfo_f_0_3.2" vType="type1" speedFactor="0.94" vaporized=""/>
    <tripinfo id="f_0_2.0" depart="0.00" departLane="np2_nt2_0" departPos="27.49" departSpeed="0.00" departDelay="0.00" arrival="163.00" arrivalLane="nt15_np10_0" arrivalPos="75.00" arrivalSpeed="8.73" duration="163.00" routeLength="923.59" waitingTime="57.00" waitingCount="3" stopTime="0.00" timeLoss="81.00" rerouteNo="0" devices="tripinfo_f_0_2.0" vType="type1" speedFactor="0.95" vaporized=""/>
    <tripinfo id="f_0_3.3" depart="25.00" departLane="np3_nt3_0" departPos="30.25" departSpeed="0.00" departDelay="0.45" arrival="164.00" arrivalLane="nt14_np11_0" arrivalPos="75.00" arrivalSpeed="8.59" duration="139.00" routeLength="920.84" waitingTime="26.00" waitingCount="4" stopTime="0.00" timeLoss="61.77" rerouteNo="0" devices="tripinfo_f_0_3.3" vType="type1" speedFactor="0.99" vaporized=""/>
    <tripinfo id="f_0_2.1" depart="9.00" departLane="np2_nt2_0" departPos="3.25" departSpeed="0.00" departDelay="0.82" arrival="165.00" arrivalLane="nt15_np10_0" arrivalPos="75.00" arrivalSpeed="11.50" duration="156.00" routeLength="947.83" waitingTime="56.00" waitingCount="5" stopTime="0.00" timeLoss="83.93" rerouteNo="0" devices="tripinfo_f_0_2.1" vType="type1" speedFactor="1.11" vaporized=""/>
    <tripinfo id="f_0_3.4" depart="33.00" departLane="np3_nt3_0" departPos="46.60" departSpeed="0.00" departDelay="0.27" arrival="169.00" arrivalLane="nt14_np11_0" arrivalPos="75.00" arrivalSpeed="9.62" duration="136.00" routeLength="904.49" waitingTime="19.00" waitingCount="4" stopTime="0.00" timeLoss="54.22" rerouteNo="0" devices="tripinfo_f_0_3.4" vType="type1" speedFactor="0.92" vaporized=""/>
    <tripinfo id="f_0_2.2" depart="17.00" departLane="np2_nt2_0" departPos="39.40" departSpeed="0.00" departDelay="0.64" arrival="172.00" arrivalLane="nt15_np10_0" arrivalPos="75.00" arrivalSpeed="11.72" duration="155.00" routeLength="911.68" waitingTime="51.00" waitingCount="8" stopTime="0.00" timeLoss="84.78" rerouteNo="0" devices="tripinfo_f_0_2.2" vType="type1" speedFactor="1.10" vaporized=""/>
    <tripinfo id="f_0_2.3" depart="25.00" departLane="np2_nt2_0" departPos="40.91" departSpeed="0.00" departDelay="0.45" arrival="174.00" arrivalLane="nt15_np10_0" arrivalPos="75.00" arrivalSpeed="10.14" duration="149.00" routeLength="910.17" waitingTime="38.00" waitingCount="8" stopTime="0.00" timeLoss="77.91" rerouteNo="0" devices="tripinfo_f_0_2.3" vType="type1" speedFactor="1.07" vaporized=""/>
    <tripinfo id="f_0_2.4" depart="33.00" departLane="np2_nt2_0" departPos="47.97" departSpeed="0.00" departDelay="0.27" arrival="176.00" arrivalLane="nt15_np10_0" arrivalPos="75.00" arrivalSpeed="10.64" duration="143.00" routeLength="903.11" waitingTime="30.00" waitingCount="7" stopTime="0.00" timeLoss="65.25" rerouteNo="0" devices="tripinfo_f_0_2.4" vType="type1" speedFactor="0.97" vaporized=""/>
    <tripinfo id="f_0_0.2" depart="28.00" departLane="np13_nt13_0" departPos="66.07" departSpeed="0.00" departDelay="0.73" arrival="178.00" arrivalLane="nt4_np5_0" arrivalPos="75.00" arrivalSpeed="20.32" duration="150.00" routeLength="1281.82" waitingTime="32.00" waitingCount="4" stopTime="0.00" timeLoss="67.93" rerouteNo="0" devices="tripinfo_f_0_0.2" vType="type1" speedFactor="1.10" vaporized=""/>
    <tripinfo id="f_0_2.5" depart="41.00" departLane="np2_nt2_0" departPos="59.91" departSpeed="0.00" departDelay="0.09" arrival="187.00" arrivalLane="nt15_np10_0" arrivalPos="75.00" arrivalSpeed="11.78" duration="146.00" routeLength="891.17" waitingTime="16.00" waitingCount="5" stopTime="0.00" timeLoss="79.72" rerouteNo="0" devices="tripinfo_f_0_2.5" vType="type1" speedFactor="1.14" vaporized=""/>
    <tripinfo id="f_0_1.0" depart="0.00" departLane="np16_nt1_0" departPos="36.51" departSpeed="0.00" departDelay="0.00" arrival="189.00" arrivalLane="nt16_np8_0" arrivalPos="75.00" arrivalSpeed="16.46" duration="189.00" routeLength="1311.37" waitingTime="44.00" waitingCount="6" stopTime="0.00" timeLoss="86.00" rerouteNo="0" devices="tripinfo_f_0_1.0" vType="type1" speedFactor="0.89" vaporized=""/>
    <tripinfo id="f_0_1.1" depart="14.00" departLane="np16_nt1_0" departPos="57.24" departSpeed="0.00" departDelay="0.36" arrival="193.00" arrivalLane="nt16_np8_0" arrivalPos="75.00" arrivalSpeed="18.15" duration="179.00" routeLength="1290.64" waitingTime="30.00" waitingCount="6" stopTime="0.00" timeLoss="90.56" rerouteNo="0" devices="tripinfo_f_0_1.1" vType="type1" speedFactor="1.03" vaporized=""/>
    <tripinfo id="f_0_2.6" depart="50.00" departLane="np2_nt2_0" departPos="0.54" departSpeed="0.00" departDelay="0.91" arrival="196.00" arrivalLane="nt15_np10_0" arrivalPos="75.00" arrivalSpeed="9.22" duration="146.00" routeLength="950.54" waitingTime="21.00" waitingCount="5" stopTime="0.00" timeLoss="70.86" rerouteNo="0" devices="tripinfo_f_0_2.6" vType="type1" speedFactor="1.06" vaporized=""/>
    <tripinfo id="f_0_1.2" depart="28.00" departLane="np16_nt1_0" departPos="42.46" departSpeed="0.00" departDelay="0.73" arrival="197.00" arrivalLane="nt16_np8_0" arrivalPos="75.00" arrivalSpeed="19.91" duration="169.00" routeLength="1305.42" waitingTime="24.00" waitingCount="7" stopTime="0.00" timeLoss="83.03" rerouteNo="0" devices="tripinfo_f_0_1.2" vType="type1" speedFactor="1.07" vaporized=""/>
    <tripinfo id="f_0_0.3" depart="41.00" departLane="np13_nt13_0" departPos="2.83" departSpeed="0.00" departDelay="0.09" arrival="199.00" arrivalLane="nt4_np5_0" arrivalPos="75.00" arrivalSpeed="19.03" duration="158.00" routeLength="1345.06" waitingTime="29.00" waitingCount="5" stopTime="0.00" timeLoss="60.22" rerouteNo="0" devices="tripinfo_f_0_0.3" vType="type1" speedFactor="0.96" vaporized=""/>
    <tripinfo id="f_0_0.4" depart="55.00" departLane="np13_nt13_0" departPos="12.30" departSpeed="0.00" departDelay="0.46" arrival="200.00" arrivalLane="nt4_np5_0" arrivalPos="75.00" arrivalSpeed="18.34" duration="145.00" routeLength="1335.59" waitingTime="17.00" waitingCount="5" stopTime="0.00" timeLoss="55.78" rerouteNo="0" devices="tripinfo_f_0_0.4" vType="type1" speedFactor="1.03" vaporized=""/>
    <tripinfo id="f_0_1.3" depart="41.00" departLane="np16_nt1_0" departPos="35.61" departSpeed="0.00" departDelay="0.09" arrival="201.00" arrivalLane="nt16_np8_0" arrivalPos="75.00" arrivalSpeed="17.25" duration="160.00" routeLength="1312.27" waitingTime="23.00" waitingCount="6" stopTime="0.00" timeLoss="67.03" rerouteNo="0" devices="tripinfo_f_0_1.3" vType="type1" speedFactor="0.98" vaporized=""/>
    <tripinfo id="f_0_3.5" depart="41.00" departLane="np3_nt3_0" departPos="37.54" departSpeed="0.00" departDelay="0.09" arrival="215.00" arrivalLane="nt14_np11_0" arrivalPos="75.00" arrivalSpeed="6.90" duration="174.00" routeLength="913.55" waitingTime="50.00" waitingCount="5" stopTime="0.00" timeLoss="81.23" rerouteNo="0" devices="tripinfo_f_0_3.5" vType="type1" speedFactor="0.83" vaporized=""/>
    <tripinfo id="f_0_3.6" depart="50.00" departLane="np3_nt3_0" departPos="50.58" departSpeed="0.00" departDelay="0.91" arrival="216.00" arrivalLane="nt14_np11_0" arrivalPos="75.00" arrivalSpeed="9.53" duration="166.00" routeLength="900.51" waitingTime="38.00" waitingCount="5" stopTime="0.00" timeLoss="90.63" rerouteNo="0" devices="tripinfo_f_0_3.6" vType="type1" speedFactor="1.00" vaporized=""/>
    <tripinfo id="f_0_3.7" depart="58.00" departLane="np3_nt3_0" departPos="43.51" departSpeed="0.00" departDelay="0.73" arrival="218.00" arrivalLane="nt14_np11_0" arrivalPos="75.00" arrivalSpeed="10.40" duration="160.00" routeLength="907.58" waitingTime="34.00" waitingCount="4" stopTime="0.00" timeLoss="93.91" rerouteNo="0" devices="tripinfo_f_0_3.7" vType="type1" speedFactor="1.16" vaporized=""/>
    <tripinfo id="f_0_0.5" depart="69.00" departLane="np13_nt13_0" departPos="63.57" departSpeed="0.00" departDelay="0.82" arrival="219.00" arrivalLane="nt4_np5_0" arrivalPos="75.00" arrivalSpeed="20.41" duration="150.00" routeLength="1284.32" waitingTime="21.00" waitingCount="4" stopTime="0.00" timeLoss="63.52" rerouteNo="0" devices="tripinfo_f_0_0.5" vType="type1" speedFactor="1.04" vaporized=""/>
    <tripinfo id="f_0_3.8" depart="66.00" departLane="np3_nt3_0" departPos="19.14" departSpeed="0.00" departDelay="0.54" arrival="220.00" arrivalLane="nt14_np11_0" arrivalPos="75.00" arrivalSpeed="11.23" duration="154.00" routeLength="931.95" waitingTime="43.00" waitingCount="3" stopTime="0.00" timeLoss="81.89" rerouteNo="0" devices="tripinfo_f_0_3.8" vType="type1" speedFactor="1.08" vaporized=""/>
    <tripinfo id="f_0_0.6" depart="82.00" departLane="np13_nt13_0" departPos="19.81" departSpeed="0.00" departDelay="0.18" arrival="221.00" arrivalLane="nt4_np5_0" arrivalPos="75.00" arrivalSpeed="19.74" duration="139.00" routeLength="1328.08" waitingTime="19.00" waitingCount="4" stopTime="0.00" timeLoss="52.23" rerouteNo="0" devices="tripinfo_f_0_0.6" vType="type1" speedFactor="1.06" vaporized=""/>
    <tripinfo id="f_0_3.9" depart="74.00" departLane="np3_nt3_0" departPos="6.50" departSpeed="0.00" departDelay="0.36" arrival="224.00" arrivalLane="nt14_np11_0" arrivalPos="75.00" arrivalSpeed="7.14" duration="150.00" routeLength="944.59" waitingTime="27.00" waitingCount="3" stopTime="0.00" timeLoss="51.80" rerouteNo="0" devices="tripinfo_f_0_3.9" vType="type1" speedFactor="0.81" vaporized=""/>
    <tripinfo id="f_0_3.10" depart="82.00" departLane="np3_nt3_0" departPos="30.67" departSpeed="0.00" departDelay="0.18" arrival="226.00" arrivalLane="nt14_np11_0" arrivalPos="75.00" arrivalSpeed="10.57" duration="144.00" routeLength="920.42" waitingTime="27.00" waitingCount="4" stopTime="0.00" timeLoss="71.42" rerouteNo="0" devices="tripinfo_f_0_3.10" vType="type1" speedFactor="1.06" vaporized=""/>
    <tripinfo id="f_0_2.7" depart="58.00" departLane="np2_nt2_0" departPos="38.73" departSpeed="0.00" departDelay="0.73" arrival="228.00" arrivalLane="nt15_np10_0" arrivalPos="75.00" arrivalSpeed="9.87" duration="170.00" routeLength="912.35" waitingTime="43.00" waitingCount="6" stopTime="0.00" timeLoss="91.77" rerouteNo="0" devices="tripinfo_f_0_2.7" vType="type1" speedFactor="0.98" vaporized=""/>
    <tripinfo id="f_0_3.11" depart="90.00" departLane="np3_nt3_0" departPos="35.57" departSpeed="0.00" departDelay="0.00" arrival="228.00" arrivalLane="nt14_np11_0" arrivalPos="75.00" arrivalSpeed="8.63" duration="138.00" routeLength="915.52" waitingTime="16.00" waitingCount="4" stopTime="0.00" timeLoss="49.48" rerouteNo="0" devices="tripinfo_f_0_3.11" vType="type1" speedFactor="0.87" vaporized=""/>
    <tripinfo id="f_0_2.8" depart="66.00" departLane="np2_nt2_0" departPos="1.80" departSpeed="0.00" departDelay="0.54" arrival="230.00" arrivalLane="nt15_np10_0" arrivalPos="75.00" arrivalSpeed="9.73" duration="164.00" routeLength="949.28" waitingTime="40.00" waitingCount="6" stopTime="0.00" timeLoss="78.64" rerouteNo="0" devices="tripinfo_f_0_2.8" vType="type1" speedFactor="0.94" vaporized=""/>
    <tripinfo id="f_0_2.9" depart="74.00" departLane="np2_nt2_0" departPos="17.90" departSpeed="0.00" departDelay="0.36" arrival="232.00" arrivalLane="nt15_np10_0" arrivalPos="75.00" arrivalSpeed="8.86" duration="158.00" routeLength="933.18" waitingTime="36.00" waitingCount="5" stopTime="0.00" timeLoss="79.53" rerouteNo="0" devices="tripinfo_f_0_2.9" vType="type1" speedFactor="1.00" vaporized=""/>
    <tripinfo id="f_0_3.12" depart="99.00" departLane="np3_nt3_0" departPos="26.67" departSpeed="0.00" departDelay="0.82" arrival="233.00" arrivalLane="nt14_np11_0" arrivalPos="75.00" arrivalSpeed="8.52" duration="134.00" routeLength="924.42" waitingTime="29.00" waitingCount="4" stopTime="0.00" timeLoss="54.88" rerouteNo="0" devices="tripinfo_f_0_3.12" vType="type1" speedFactor="0.98" vaporized=""/>
    <tripinfo id="f_0_0.7" depart="96.00" departLane="np13_nt13_0" departPos="39.38" departSpeed="0.00" departDelay="0.55" arrival="241.00" arrivalLane="nt4_np5_0" arrivalPos="75.00" arrivalSpeed="17.35" duration="145.00" routeLength="1308.51" waitingTime="26.00" waitingCount="3" stopTime="0.00" timeLoss="52.40" rerouteNo="0" devices="tripinfo_f_0_0.7" vType="type1" speedFactor="0.98" vaporized=""/>
    <tripinfo id="f_0_2.10" depart="82.00" departLane="np2_nt2_0" departPos="14.23" departSpeed="0.00" departDelay="0.18" arrival="243.00" arrivalLane="nt15_np10_0" arrivalPos="75.00" arrivalSpeed="11.54" duration="161.00" routeLength="936.85" waitingTime="29.00" waitingCount="5" stopTime="0.00" timeLoss="88.99" rerouteNo="0" devices="tripinfo_f_0_2.10" vType="type1" speedFactor="1.10" vaporized=""/>
    <tripinfo id="f_0_1.4" depart="55.00" departLane="np16_nt1_0" departPos="27.99" departSpeed="0.00" departDelay="0.46" arrival="244.00" arrivalLane="nt16_np8_0" arrivalPos="75.00" arrivalSpeed="17.54" duration="189.00" routeLength="1319.89" waitingTime="37.00" waitingCount="6" stopTime="0.00" timeLoss="87.14" rerouteNo="0" devices="tripinfo_f_0_1.4" vType="type1" speedFactor="0.90" vaporized=""/>
    <tripinfo id="f_0_2.11" depart="90.00" departLane="np2_nt2_0" departPos="17.91" departSpeed="0.00" departDelay="0.00" arrival="245.00" arrivalLane="nt15_np10_0" arrivalPos="75.00" arrivalSpeed="11.69" duration="155.00" routeLength="933.17" waitingTime="21.00" waitingCount="5" stopTime="0.00" timeLoss="83.52" rerouteNo="0" devices="tripinfo_f_0_2.11" vType="type1" speedFactor="1.11" vaporized=""/>
    <tripinfo id="f_0_2.12" depart="99.00" departLane="np2_nt2_0" departPos="26.86" departSpeed="0.00" departDelay="0.82" arrival="247.00" arrivalLane="nt15_np10_0" arrivalPos="75.00" arrivalSpeed="11.18" duration="148.00" routeLength="924.22" waitingTime="17.00" waitingCount="4" stopTime="0.00" timeLoss="75.99" rerouteNo="0" devices="tripinfo_f_0_2.12" vType="type1" speedFactor="1.08" vaporized=""/>
    <tripinfo id="f_0_3.13" depart="107.00" departLane="np3_nt3_0" departPos="7.31" departSpeed="0.00" departDelay="0.63" arrival="247.00" arrivalLane="nt14_np11_0" arrivalPos="75.00" arrivalSpeed="11.32" duration="140.00" routeLength="943.78" waitingTime="26.00" waitingCount="5" stopTime="0.00" timeLoss="66.25" rerouteNo="0" devices="tripinfo_f_0_3.13" vType="type1" speedFactor="1.08" vaporized=""/>
    <tripinfo id="f_0_1.5" depart="69.00" departLane="np16_nt1_0" departPos="37.41" departSpeed="0.00" departDelay="0.82" arrival="249.00" arrivalLane="nt16_np8_0" arrivalPos="75.00" arrivalSpeed="16.76" duration="180.00" routeLength="1310.47" waitingTime="23.00" waitingCount="4" stopTime="0.00" timeLoss="70.68" rerouteNo="0" devices="tripinfo_f_0_1.5" vType="type1" speedFactor="0.84" vaporized=""/>
    <tripinfo id="f_0_2.13" depart="107.00" departLane="np2_nt2_0" departPos="9.41" departSpeed="0.00" departDelay="0.63" arrival="249.00" arrivalLane="nt15_np10_0" arrivalPos="75.00" arrivalSpeed="11.25" duration="142.00" routeLength="941.67" waitingTime="13.00" waitingCount="4" stopTime="0.00" timeLoss="71.30" rerouteNo="0" devices="tripinfo_f_0_2.13" vType="type1" speedFactor="1.12" vaporized=""/>
    <tripinfo id="f_0_1.6" depart="82.00" departLane="np16_nt1_0" departPos="52.20" departSpeed="0.00" departDelay="0.18" arrival="250.00" arrivalLane="nt16_np8_0" arrivalPos="75.00" arrivalSpeed="18.97" duration="168.00" routeLength="1295.68" waitingTime="26.00" waitingCount="4" stopTime="0.00" timeLoss="91.79" rerouteNo="0" devices="tripinfo_f_0_1.6" vType="type1" speedFactor="1.19" vaporized=""/>
    <tripinfo id="f_0_3.14" depart="115.00" departLane="np3_nt3_0" departPos="31.67" departSpeed="0.00" departDelay="0.45" arrival="250.00" arrivalLane="nt14_np11_0" arrivalPos="75.00" arrivalSpeed="9.98" duration="135.00" routeLength="919.42" waitingTime="19.00" waitingCount="4" stopTime="0.00" timeLoss="53.65" rerouteNo="0" devices="tripinfo_f_0_3.14" vType="type1" speedFactor="0.95" vaporized=""/>
    <tripinfo id="f_0_3.15" depart="123.00" departLane="np3_nt3_0" departPos="46.56" departSpeed="0.00" departDelay="0.27" arrival="253.00" arrivalLane="nt14_np11_0" arrivalPos="75.00" arrivalSpeed="8.29" duration="130.00" routeLength="904.53" waitingTime="20.00" waitingCount="3" stopTime="0.00" timeLoss="45.99" rerouteNo="0" devices="tripinfo_f_0_3.15" vType="type1" speedFactor="0.90" vaporized=""/>
    <tripinfo id="f_0_1.7" depart="96.00" departLane="np16_nt1_0" departPos="9.99" departSpeed="0.00" departDelay="0.55" arrival="258.00" arrivalLane="nt16_np8_0" arrivalPos="75.00" arrivalSpeed="21.84" duration="162.00" routeLength="1337.89" waitingTime="21.00" waitingCount="4" stopTime="0.00" timeLoss="80.61" rerouteNo="0" devices="tripinfo_f_0_1.7" vType="type1" speedFactor="1.14" vaporized=""/>
    <tripinfo id="f_0_0.8" depart="110.00" departLane="np13_nt13_0" departPos="9.03" departSpeed="0.00" departDelay="0.91" arrival="259.00" arrivalLane="nt4_np5_0" arrivalPos="75.00" arrivalSpeed="22.43" duration="149.00" routeLength="1338.86" waitingTime="39.00" waitingCount="5" stopTime="0.00" timeLoss="67.25" rerouteNo="0" devices="tripinfo_f_0_0.8" vType="type1" speedFactor="1.13" vaporized=""/>
    <tripinfo id="f_0_1.8" depart="110.00" departLane="np16_nt1_0" departPos="43.52" departSpeed="0.00" departDelay="0.91" arrival="261.00" arrivalLane="nt16_np8_0" arrivalPos="75.00" arrivalSpeed="20.63" duration="151.00" routeLength="1304.36" waitingTime="16.00" waitingCount="3" stopTime="0.00" timeLoss="68.49" rerouteNo="0" devices="tripinfo_f_0_1.8" vType="type1" speedFactor="1.11" vaporized=""/>
    <tripinfo id="f_0_2.14" depart="115.00" departLane="np2_nt2_0" departPos="14.38" departSpeed="0.00" departDelay="0.45" arrival="261.00" arrivalLane="nt15_np10_0" arrivalPos="75.00" arrivalSpeed="12.59" duration="146.00" routeLength="936.70" waitingTime="26.00" waitingCount="7" stopTime="0.00" timeLoss="77.15" rerouteNo="0" devices="tripinfo_f_0_2.14" vType="type1" speedFactor="1.15" vaporized=""/>
    <tripinfo id="f_0_0.9" depart="123.00" departLane="np13_nt13_0" departPos="8.78" departSpeed="0.00" departDelay="0.28" arrival="261.00" arrivalLane="nt4_np5_0" arrivalPos="75.00" arrivalSpeed="22.10" duration="138.00" routeLength="1339.11" waitingTime="20.00" waitingCount="5" stopTime="0.00" timeLoss="56.13" rerouteNo="0" devices="tripinfo_f_0_0.9" vType="type1" speedFactor="1.13" vaporized=""/>
    <tripinfo id="f_0_2.15" depart="123.00" departLane="np2_nt2_0" departPos="20.55" departSpeed="0.00" departDelay="0.27" arrival="277.00" arrivalLane="nt15_np10_0" arrivalPos="75.00" arrivalSpeed="10.78" duration="154.00" routeLength="930.53" waitingTime="28.00" waitingCount="8" stopTime="0.00" timeLoss="79.51" rerouteNo="0" devices="tripinfo_f_0_2.15" vType="type1" speedFactor="1.06" vaporized=""/>
    <tripinfo id="f_0_2.16" depart="131.00" departLane="np2_nt2_0" departPos="51.37" departSpeed="0.00" departDelay="0.09" arrival="281.00" arrivalLane="nt15_np10_0" arrivalPos="75.00" arrivalSpeed="9.67" duration="150.00" routeLength="899.71" waitingTime="23.00" waitingCount="5" stopTime="0.00" timeLoss="64.12" rerouteNo="0" devices="tripinfo_f_0_2.16" vType="type1" speedFactor="0.88" vaporized=""/>
    <tripinfo id="f_0_1.9" depart="123.00" departLane="np16_nt1_0" departPos="45.26" departSpeed="0.00" departDelay="0.28" arrival="295.00" arrivalLane="nt16_np8_0" arrivalPos="75.00" arrivalSpeed="18.35" duration="172.00" routeLength="1302.62" waitingTime="21.00" waitingCount="5" stopTime="0.00" timeLoss="76.12" rerouteNo="0" devices="tripinfo_f_0_1.9" vType="type1" speedFactor="0.96" vaporized=""/>
    <tripinfo id="f_0_0.10" depart="137.00" departLane="np13_nt13_0" departPos="10.73" departSpeed="0.00" departDelay="0.64" arrival="295.00" arrivalLane="nt4_np5_0" arrivalPos="75.00" arrivalSpeed="19.06" duration="158.00" routeLength="1337.16" waitingTime="41.00" waitingCount="4" stopTime="0.00" timeLoss="67.42" rerouteNo="0" devices="tripinfo_f_0_0.10" vType="type1" speedFactor="1.02" vaporized=""/>
    <tripinfo id="f_0_1.10" depart="137.00" departLane="np16_nt1_0" departPos="61.83" departSpeed="0.00" departDelay="0.64" arrival="302.00" arrivalLane="nt16_np8_0" arrivalPos="75.00" arrivalSpeed="17.59" duration="165.00" routeLength="1286.05" waitingTime="18.00" waitingCount="6" stopTime="0.00" timeLoss="71.88" rerouteNo="0" devices="tripinfo_f_0_1.10" vType="type1" speedFactor="0.97" vaporized=""/>
    <tripinfo id="f_0_0.11" depart="150.00" departLane="np13_nt13_0" departPos="27.91" departSpeed="0.00" departDelay="0.00" arrival="316.00" arrivalLane="nt4_np5_0" arrivalPos="75.00" arrivalSpeed="19.42" duration="166.00" routeLength="1319.98" waitingTime="40.00" waitingCount="4" stopTime="0.00" timeLoss="76.06" rerouteNo="0" devices="tripinfo_f_0_0.11" vType="type1" speedFactor="1.02" vaporized=""/>
    <tripinfo id="f_0_3.16" depart="131.00" departLane="np3_nt3_0" departPos="1.16" departSpeed="0.00" departDelay="0.09" arrival="317.00" arrivalLane="nt14_np11_0" arrivalPos="75.00" arrivalSpeed="10.37" duration="186.00" routeLength="949.93" waitingTime="79.00" waitingCount="5" stopTime="0.00" timeLoss="110.38" rerouteNo="0" devices="tripinfo_f_0_3.16" vType="type1" speedFactor="1.05" vaporized=""/>
    <tripinfo id="f_0_3.17" depart="140.00" departLane="np3_nt3_0" departPos="4.60" departSpeed="0.00" departDelay="0.91" arrival="323.00" arrivalLane="nt14_np11_0" arrivalPos="75.00" arrivalSpeed="7.75" duration="183.00" routeLength="946.49" waitingTime="35.00" waitingCount="3" stopTime="0.00" timeLoss="73.93" rerouteNo="0" devices="tripinfo_f_0_3.17" vType="type1" speedFactor="0.73" vaporized=""/>
    <tripinfo id="f_0_0.12" depart="164.00" departLane="np13_nt13_0" departPos="19.63" departSpeed="0.00" departDelay="0.37" arrival="324.00" arrivalLane="nt4_np5_0" arrivalPos="75.00" arrivalSpeed="21.23" duration="160.00" routeLength="1328.26" waitingTime="43.00" waitingCount="4" stopTime="0.00" timeLoss="73.97" rerouteNo="0" devices="tripinfo_f_0_0.12" vType="type1" speedFactor="1.08" vaporized=""/>
    <tripinfo id="f_0_3.18" depart="148.00" departLane="np3_nt3_0" departPos="37.07" departSpeed="0.00" departDelay="0.72" arrival="325.00" arrivalLane="nt14_np11_0" arrivalPos="75.00" arrivalSpeed="9.28" duration="177.00" routeLength="914.02" waitingTime="55.00" waitingCount="6" stopTime="0.00" timeLoss="89.59" rerouteNo="0" devices="tripinfo_f_0_3.18" vType="type1" speedFactor="0.88" vaporized=""/>
    <tripinfo id="f_0_3.19" depart="156.00" departLane="np3_nt3_0" departPos="40.13" departSpeed="0.00" departDelay="0.54" arrival="327.00" arrivalLane="nt14_np11_0" arrivalPos="75.00" arrivalSpeed="9.70" duration="171.00" routeLength="910.96" waitingTime="42.00" waitingCount="7" stopTime="0.00" timeLoss="88.46" rerouteNo="0" devices="tripinfo_f_0_3.19" vType="type1" speedFactor="0.93" vaporized=""/>
    <tripinfo id="f_0_3.20" depart="164.00" departLane="np3_nt3_0" departPos="45.89" departSpeed="0.00" departDelay="0.36" arrival="329.00" arrivalLane="nt14_np11_0" arrivalPos="75.00" arrivalSpeed="7.92" duration="165.00" routeLength="905.20" waitingTime="34.00" waitingCount="7" stopTime="0.00" timeLoss="77.17" rerouteNo="0" devices="tripinfo_f_0_3.20" vType="type1" speedFactor="0.86" vaporized=""/>
    <tripinfo id="f_0_3.21" depart="172.00" departLane="np3_nt3_0" departPos="34.79" departSpeed="0.00" departDelay="0.18" arrival="331.00" arrivalLane="nt14_np11_0" arrivalPos="75.00" arrivalSpeed="11.32" duration="159.00" routeLength="916.30" waitingTime="21.00" waitingCount="4" stopTime="0.00" timeLoss="86.81" rerouteNo="0" devices="tripinfo_f_0_3.21" vType="type1" speedFactor="1.07" vaporized=""/>
    <tripinfo id="f_0_2.17" depart="140.00" departLane="np2_nt2_0" departPos="8.61" departSpeed="0.00" departDelay="0.91" arrival="333.00" arrivalLane="nt15_np10_0" arrivalPos="75.00" arrivalSpeed="8.16" duration="193.00" routeLength="942.47" waitingTime="59.00" waitingCount="7" stopTime="0.00" timeLoss="107.74" rerouteNo="0" devices="tripinfo_f_0_2.17" vType="type1" speedFactor="0.93" vaporized=""/>
    <tripinfo id="f_0_3.22" depart="180.00" departLane="np3_nt3_0" departPos="35.88" departSpeed="0.00" departDelay="0.00" arrival="333.00" arrivalLane="nt14_np11_0" arrivalPos="75.00" arrivalSpeed="8.99" duration="153.00" routeLength="915.21" waitingTime="39.00" waitingCount="6" stopTime="0.00" timeLoss="75.05" rerouteNo="0" devices="tripinfo_f_0_3.22" vType="type1" speedFactor="0.98" vaporized=""/>
    <tripinfo id="f_0_3.23" depart="189.00" departLane="np3_nt3_0" departPos="46.41" departSpeed="0.00" departDelay="0.81" arrival="335.00" arrivalLane="nt14_np11_0" arrivalPos="75.00" arrivalSpeed="9.94" duration="146.00" routeLength="904.68" waitingTime="28.00" waitingCount="5" stopTime="0.00" timeLoss="72.32" rerouteNo="0" devices="tripinfo_f_0_3.23" vType="type1" speedFactor="1.03" vaporized=""/>
    <tripinfo id="f_0_2.18" depart="148.00" departLane="np2_nt2_0" departPos="48.33" departSpeed="0.00" departDelay="0.72" arrival="336.00" arrivalLane="nt15_np10_0" arrivalPos="75.00" arrivalSpeed="7.95" duration="188.00" routeLength="902.75" waitingTime="50.00" waitingCount="4" stopTime="0.00" timeLoss="101.86" rerouteNo="0" devices="tripinfo_f_0_2.18" vType="type1" speedFactor="0.88" vaporized=""/>
    <tripinfo id="f_0_3.24" depart="197.00" departLane="np3_nt3_0" departPos="33.24" departSpeed="0.00" departDelay="0.63" arrival="337.00" arrivalLane="nt14_np11_0" arrivalPos="75.00" arrivalSpeed="9.91" duration="140.00" routeLength="917.85" waitingTime="26.00" waitingCount="4" stopTime="0.00" timeLoss="66.91" rerouteNo="0" devices="tripinfo_f_0_3.24" vType="type1" speedFactor="1.05" vaporized=""/>
    <tripinfo id="f_0_2.19" depart="156.00" departLane="np2_nt2_0" departPos="19.59" departSpeed="0.00" departDelay="0.54" arrival="338.00" arrivalLane="nt15_np10_0" arrivalPos="75.00" arrivalSpeed="10.10" duration="182.00" routeLength="931.49" waitingTime="42.00" waitingCount="4" stopTime="0.00" timeLoss="99.81" rerouteNo="0" devices="tripinfo_f_0_2.19" vType="type1" speedFactor="0.95" vaporized=""/>
    <tripinfo id="f_0_2.20" depart="164.00" departLane="np2_nt2_0" departPos="11.36" departSpeed="0.00" departDelay="0.36" arrival="340.00" arrivalLane="nt15_np10_0" arrivalPos="75.00" arrivalSpeed="10.38" duration="176.00" routeLength="939.72" waitingTime="44.00" waitingCount="4" stopTime="0.00" timeLoss="103.01" rerouteNo="0" devices="tripinfo_f_0_2.20" vType="type1" speedFactor="1.08" vaporized=""/>
    <tripinfo id="f_0_3.25" depart="205.00" departLane="np3_nt3_0" departPos="45.23" departSpeed="0.00" departDelay="0.45" arrival="340.00" arrivalLane="nt14_np11_0" arrivalPos="75.00" arrivalSpeed="9.00" duration="135.00" routeLength="905.86" waitingTime="19.00" waitingCount="4" stopTime="0.00" timeLoss="49.28" rerouteNo="0" devices="tripinfo_f_0_3.25" vType="type1" speedFactor="0.89" vaporized=""/>