<?xml version="1.0" encoding="UTF-8"?>

<!-- generated on 2023-08-23 16:22:33 by Eclipse SUMO libsumo Version 1.18.0
<configuration xmlns:xsi="http://www.w3.org/2001/XMLSchema-instance" xsi:noNamespaceSchemaLocation="http://sumo.dlr.de/xsd/libsumoConfiguration.xsd">

    <input>
        <net-file value="/home/stefan/RESCO/./environments/arterial4x4/arterial4x4.net.xml"/>
        <route-files value="/home/stefan/RESCO/./environments/arterial4x4/arterial4x4_40.rou.xml"/>
    </input>

    <output>
        <tripinfo-output value="/home/stefan/results/IDDQN-tr0-arterial4x4-0-drq_norm-wait_norm/tripinfo_40.xml"/>
        <tripinfo-output.write-unfinished value="true"/>
    </output>

    <processing>
        <time-to-teleport value="-1"/>
    </processing>

    <report>
        <no-warnings value="True"/>
        <no-step-log value="True"/>
    </report>

    <random_number>
        <random value="true"/>
    </random_number>

</configuration>
-->

<tripinfos xmlns:xsi="http://www.w3.org/2001/XMLSchema-instance" xsi:noNamespaceSchemaLocation="http://sumo.dlr.de/xsd/tripinfo_file.xsd">
    <tripinfo id="f_0_2.0" depart="0.00" departLane="np2_nt2_0" departPos="15.00" departSpeed="0.00" departDelay="0.00" arrival="113.00" arrivalLane="nt15_np10_0" arrivalPos="75.00" arrivalSpeed="9.65" duration="113.00" routeLength="936.08" waitingTime="9.00" waitingCount="1" stopTime="0.00" timeLoss="25.42" rerouteNo="0" devices="tripinfo_f_0_2.0" vType="type1" speedFactor="0.90" vaporized=""/>
    <tripinfo id="f_0_2.1" depart="9.00" departLane="np2_nt2_0" departPos="11.31" departSpeed="0.00" departDelay="0.82" arrival="114.00" arrivalLane="nt15_np10_0" arrivalPos="75.00" arrivalSpeed="11.02" duration="105.00" routeLength="939.77" waitingTime="14.00" waitingCount="3" stopTime="0.00" timeLoss="38.85" rerouteNo="0" devices="tripinfo_f_0_2.1" vType="type1" speedFactor="1.18" vaporized=""/>
    <tripinfo id="f_0_2.2" depart="17.00" departLane="np2_nt2_0" departPos="6.70" departSpeed="0.00" departDelay="0.64" arrival="116.00" arrivalLane="nt15_np10_0" arrivalPos="75.00" arrivalSpeed="11.55" duration="99.00" routeLength="944.38" waitingTime="3.00" waitingCount="1" stopTime="0.00" timeLoss="25.64" rerouteNo="0" devices="tripinfo_f_0_2.2" vType="type1" speedFactor="1.08" vaporized=""/>
    <tripinfo id="f_0_3.0" depart="0.00" departLane="np3_nt3_0" departPos="60.29" departSpeed="0.00" departDelay="0.00" arrival="117.00" arrivalLane="nt14_np11_0" arrivalPos="75.00" arrivalSpeed="9.92" duration="117.00" routeLength="890.80" waitingTime="25.00" waitingCount="2" stopTime="0.00" timeLoss="42.88" rerouteNo="0" devices="tripinfo_f_0_3.0" vType="type1" speedFactor="1.00" vaporized=""/>
    <tripinfo id="f_0_3.1" depart="9.00" departLane="np3_nt3_0" departPos="2.58" departSpeed="0.00" departDelay="0.82" arrival="119.00" arrivalLane="nt14_np11_0" arrivalPos="75.00" arrivalSpeed="9.02" duration="110.00" routeLength="948.51" waitingTime="13.00" waitingCount="3" stopTime="0.00" timeLoss="34.36" rerouteNo="0" devices="tripinfo_f_0_3.1" vType="type1" speedFactor="1.05" vaporized=""/>
    <tripinfo id="f_0_0.0" depart="0.00" departLane="np13_nt13_0" departPos="33.84" departSpeed="0.00" departDelay="0.00" arrival="153.00" arrivalLane="nt4_np5_0" arrivalPos="75.00" arrivalSpeed="17.63" duration="153.00" routeLength="1314.05" waitingTime="32.00" waitingCount="4" stopTime="0.00" timeLoss="61.61" rerouteNo="0" devices="tripinfo_f_0_0.0" vType="type1" speedFactor="1.00" vaporized=""/>
    <tripinfo id="f_0_2.3" depart="25.00" departLane="np2_nt2_0" departPos="27.31" departSpeed="0.00" departDelay="0.45" arrival="162.00" arrivalLane="nt15_np10_0" arrivalPos="75.00" arrivalSpeed="9.02" duration="137.00" routeLength="923.77" waitingTime="39.00" waitingCount="3" stopTime="0.00" timeLoss="62.21" rerouteNo="0" devices="tripinfo_f_0_2.3" vType="type1" speedFactor="1.04" vaporized=""/>
    <tripinfo id="f_0_3.2" depart="17.00" departLane="np3_nt3_0" departPos="33.74" departSpeed="0.00" departDelay="0.64" arrival="184.00" arrivalLane="nt14_np11_0" arrivalPos="75.00" arrivalSpeed="9.03" duration="167.00" routeLength="917.35" waitingTime="53.00" waitingCount="5" stopTime="0.00" timeLoss="78.41" rerouteNo="0" devices="tripinfo_f_0_3.2" vType="type1" speedFactor="0.87" vaporized=""/>
    <tripinfo id="f_0_3.3" depart="25.00" departLane="np3_nt3_0" departPos="0.56" departSpeed="0.00" departDelay="0.45" arrival="186.00" arrivalLane="nt14_np11_0" arrivalPos="75.00" arrivalSpeed="10.98" duration="161.00" routeLength="950.53" waitingTime="38.00" waitingCount="4" stopTime="0.00" timeLoss="83.84" rerouteNo="0" devices="tripinfo_f_0_3.3" vType="type1" speedFactor="1.05" vaporized=""/>
    <tripinfo id="f_0_3.4" depart="33.00" departLane="np3_nt3_0" departPos="29.26" departSpeed="0.00" departDelay="0.27" arrival="188.00" arrivalLane="nt14_np11_0" arrivalPos="75.00" arrivalSpeed="10.04" duration="155.00" routeLength="921.83" waitingTime="35.00" waitingCount="2" stopTime="0.00" timeLoss="75.44" rerouteNo="0" devices="tripinfo_f_0_3.4" vType="type1" speedFactor="0.98" vaporized=""/>
    <tripinfo id="f_0_3.5" depart="41.00" departLane="np3_nt3_0" departPos="7.72" departSpeed="0.00" departDelay="0.09" arrival="190.00" arrivalLane="nt14_np11_0" arrivalPos="75.00" arrivalSpeed="9.42" duration="149.00" routeLength="943.37" waitingTime="34.00" waitingCount="3" stopTime="0.00" timeLoss="59.91" rerouteNo="0" devices="tripinfo_f_0_3.5" vType="type1" speedFactor="0.89" vaporized=""/>
    <tripinfo id="f_0_3.6" depart="50.00" departLane="np3_nt3_0" departPos="31.48" departSpeed="0.00" departDelay="0.91" arrival="198.00" arrivalLane="nt14_np11_0" arrivalPos="75.00" arrivalSpeed="9.29" duration="148.00" routeLength="919.61" waitingTime="37.00" waitingCount="3" stopTime="0.00" timeLoss="69.07" rerouteNo="0" devices="tripinfo_f_0_3.6" vType="type1" speedFactor="0.98" vaporized=""/>
    <tripinfo id="f_0_3.7" depart="58.00" departLane="np3_nt3_0" departPos="19.90" departSpeed="0.00" departDelay="0.73" arrival="200.00" arrivalLane="nt14_np11_0" arrivalPos="75.00" arrivalSpeed="10.12" duration="142.00" routeLength="931.19" waitingTime="35.00" waitingCount="3" stopTime="0.00" timeLoss="64.17" rerouteNo="0" devices="tripinfo_f_0_3.7" vType="type1" speedFactor="1.00" vaporized=""/>
    <tripinfo id="f_0_3.8" depart="66.00" departLane="np3_nt3_0" departPos="1.73" departSpeed="0.00" departDelay="0.54" arrival="202.00" arrivalLane="nt14_np11_0" arrivalPos="75.00" arrivalSpeed="9.68" duration="136.00" routeLength="949.36" waitingTime="25.00" waitingCount="4" stopTime="0.00" timeLoss="53.01" rerouteNo="0" devices="tripinfo_f_0_3.8" vType="type1" speedFactor="0.96" vaporized=""/>
    <tripinfo id="f_0_0.1" depart="14.00" departLane="np13_nt13_0" departPos="56.90" departSpeed="0.00" departDelay="0.36" arrival="203.00" arrivalLane="nt4_np5_0" arrivalPos="75.00" arrivalSpeed="17.32" duration="189.00" routeLength="1290.99" waitingTime="62.00" waitingCount="5" stopTime="0.00" timeLoss="92.24" rerouteNo="0" devices="tripinfo_f_0_0.1" vType="type1" speedFactor="0.93" vaporized=""/>
    <tripinfo id="f_0_3.9" depart="74.00" departLane="np3_nt3_0" departPos="49.00" departSpeed="0.00" departDelay="0.36" arrival="204.00" arrivalLane="nt14_np11_0" arrivalPos="75.00" arrivalSpeed="8.63" duration="130.00" routeLength="902.09" waitingTime="19.00" waitingCount="6" stopTime="0.00" timeLoss="54.48" rerouteNo="0" devices="tripinfo_f_0_3.9" vType="type1" speedFactor="1.00" vaporized=""/>
    <tripinfo id="f_0_0.2" depart="28.00" departLane="np13_nt13_0" departPos="41.85" departSpeed="0.00" departDelay="0.73" arrival="205.00" arrivalLane="nt4_np5_0" arrivalPos="75.00" arrivalSpeed="19.95" duration="177.00" routeLength="1306.04" waitingTime="45.00" waitingCount="5" stopTime="0.00" timeLoss="92.22" rerouteNo="0" devices="tripinfo_f_0_0.2" vType="type1" speedFactor="1.08" vaporized=""/>
    <tripinfo id="f_0_0.3" depart="41.00" departLane="np13_nt13_0" departPos="12.27" departSpeed="0.00" departDelay="0.09" arrival="207.00" arrivalLane="nt4_np5_0" arrivalPos="75.00" arrivalSpeed="16.59" duration="166.00" routeLength="1335.62" waitingTime="25.00" waitingCount="3" stopTime="0.00" timeLoss="65.13" rerouteNo="0" devices="tripinfo_f_0_0.3" vType="type1" speedFactor="0.92" vaporized=""/>
    <tripinfo id="f_0_0.4" depart="55.00" departLane="np13_nt13_0" departPos="58.85" departSpeed="0.00" departDelay="0.46" arrival="208.00" arrivalLane="nt4_np5_0" arrivalPos="75.00" arrivalSpeed="19.33" duration="153.00" routeLength="1289.04" waitingTime="26.00" waitingCount="5" stopTime="0.00" timeLoss="62.72" rerouteNo="0" devices="tripinfo_f_0_0.4" vType="type1" speedFactor="1.00" vaporized=""/>
    <tripinfo id="f_0_2.4" depart="33.00" departLane="np2_nt2_0" departPos="45.20" departSpeed="0.00" departDelay="0.27" arrival="213.00" arrivalLane="nt15_np10_0" arrivalPos="75.00" arrivalSpeed="8.92" duration="180.00" routeLength="905.88" waitingTime="68.00" waitingCount="5" stopTime="0.00" timeLoss="97.82" rerouteNo="0" devices="tripinfo_f_0_2.4" vType="type1" speedFactor="0.92" vaporized=""/>
    <tripinfo id="f_0_2.5" depart="41.00" departLane="np2_nt2_0" departPos="47.21" departSpeed="0.00" departDelay="0.09" arrival="215.00" arrivalLane="nt15_np10_0" arrivalPos="75.00" arrivalSpeed="11.37" duration="174.00" routeLength="903.87" waitingTime="59.00" waitingCount="5" stopTime="0.00" timeLoss="103.22" rerouteNo="0" devices="tripinfo_f_0_2.5" vType="type1" speedFactor="1.07" vaporized=""/>
    <tripinfo id="f_0_1.0" depart="0.00" departLane="np16_nt1_0" departPos="42.05" departSpeed="0.00" departDelay="0.00" arrival="224.00" arrivalLane="nt16_np8_0" arrivalPos="75.00" arrivalSpeed="19.14" duration="224.00" routeLength="1305.83" waitingTime="85.00" waitingCount="8" stopTime="0.00" timeLoss="137.82" rerouteNo="0" devices="tripinfo_f_0_1.0" vType="type1" speedFactor="1.07" vaporized=""/>
    <tripinfo id="f_0_2.6" depart="50.00" departLane="np2_nt2_0" departPos="19.30" departSpeed="0.00" departDelay="0.91" arrival="224.00" arrivalLane="nt15_np10_0" arrivalPos="75.00" arrivalSpeed="8.27" duration="174.00" routeLength="931.78" waitingTime="36.00" waitingCount="8" stopTime="0.00" timeLoss="89.73" rerouteNo="0" devices="tripinfo_f_0_2.6" vType="type1" speedFactor="0.93" vaporized=""/>
    <tripinfo id="f_0_2.7" depart="58.00" departLane="np2_nt2_0" departPos="47.67" departSpeed="0.00" departDelay="0.73" arrival="225.00" arrivalLane="nt15_np10_0" arrivalPos="75.00" arrivalSpeed="10.59" duration="167.00" routeLength="903.41" waitingTime="27.00" waitingCount="6" stopTime="0.00" timeLoss="89.72" rerouteNo="0" devices="tripinfo_f_0_2.7" vType="type1" speedFactor="0.98" vaporized=""/>
    <tripinfo id="f_0_1.1" depart="14.00" departLane="np16_nt1_0" departPos="51.04" departSpeed="0.00" departDelay="0.36" arrival="228.00" arrivalLane="nt16_np8_0" arrivalPos="75.00" arrivalSpeed="19.07" duration="214.00" routeLength="1296.84" waitingTime="70.00" waitingCount="7" stopTime="0.00" timeLoss="122.59" rerouteNo="0" devices="tripinfo_f_0_1.1" vType="type1" speedFactor="1.00" vaporized=""/>
    <tripinfo id="f_0_0.5" depart="69.00" departLane="np13_nt13_0" departPos="9.13" departSpeed="0.00" departDelay="0.82" arrival="234.00" arrivalLane="nt4_np5_0" arrivalPos="75.00" arrivalSpeed="18.26" duration="165.00" routeLength="1338.76" waitingTime="31.00" waitingCount="5" stopTime="0.00" timeLoss="67.37" rerouteNo="0" devices="tripinfo_f_0_0.5" vType="type1" speedFactor="0.95" vaporized=""/>
    <tripinfo id="f_0_1.2" depart="28.00" departLane="np16_nt1_0" departPos="67.79" departSpeed="0.00" departDelay="0.73" arrival="238.00" arrivalLane="nt16_np8_0" arrivalPos="75.00" arrivalSpeed="20.19" duration="210.00" routeLength="1280.09" waitingTime="47.00" waitingCount="10" stopTime="0.00" timeLoss="127.22" rerouteNo="0" devices="tripinfo_f_0_1.2" vType="type1" speedFactor="1.08" vaporized=""/>
    <tripinfo id="f_0_2.8" depart="66.00" departLane="np2_nt2_0" departPos="22.13" departSpeed="0.00" departDelay="0.54" arrival="238.00" arrivalLane="nt15_np10_0" arrivalPos="75.00" arrivalSpeed="8.34" duration="172.00" routeLength="928.95" waitingTime="17.00" waitingCount="5" stopTime="0.00" timeLoss="88.95" rerouteNo="0" devices="tripinfo_f_0_2.8" vType="type1" speedFactor="0.95" vaporized=""/>
    <tripinfo id="f_0_2.9" depart="74.00" departLane="np2_nt2_0" departPos="56.21" departSpeed="0.00" departDelay="0.36" arrival="239.00" arrivalLane="nt15_np10_0" arrivalPos="75.00" arrivalSpeed="10.40" duration="165.00" routeLength="894.87" waitingTime="34.00" waitingCount="8" stopTime="0.00" timeLoss="99.14" rerouteNo="0" devices="tripinfo_f_0_2.9" vType="type1" speedFactor="1.13" vaporized=""/>
    <tripinfo id="f_0_1.3" depart="41.00" departLane="np16_nt1_0" departPos="0.35" departSpeed="0.00" departDelay="0.09" arrival="240.00" arrivalLane="nt16_np8_0" arrivalPos="75.00" arrivalSpeed="21.03" duration="199.00" routeLength="1347.53" waitingTime="27.00" waitingCount="7" stopTime="0.00" timeLoss="113.81" rerouteNo="0" devices="tripinfo_f_0_1.3" vType="type1" speedFactor="1.10" vaporized=""/>
    <tripinfo id="f_0_2.10" depart="82.00" departLane="np2_nt2_0" departPos="14.22" departSpeed="0.00" departDelay="0.18" arrival="244.00" arrivalLane="nt15_np10_0" arrivalPos="75.00" arrivalSpeed="11.73" duration="162.00" routeLength="936.86" waitingTime="23.00" waitingCount="3" stopTime="0.00" timeLoss="88.52" rerouteNo="0" devices="tripinfo_f_0_2.10" vType="type1" speedFactor="1.07" vaporized=""/>
    <tripinfo id="f_0_2.11" depart="90.00" departLane="np2_nt2_0" departPos="46.78" departSpeed="0.00" departDelay="0.00" arrival="247.00" arrivalLane="nt15_np10_0" arrivalPos="75.00" arrivalSpeed="8.48" duration="157.00" routeLength="904.30" waitingTime="24.00" waitingCount="5" stopTime="0.00" timeLoss="77.55" rerouteNo="0" devices="tripinfo_f_0_2.11" vType="type1" speedFactor="0.95" vaporized=""/>
    <tripinfo id="f_0_3.10" depart="82.00" departLane="np3_nt3_0" departPos="52.03" departSpeed="0.00" departDelay="0.18" arrival="258.00" arrivalLane="nt14_np11_0" arrivalPos="75.00" arrivalSpeed="9.64" duration="176.00" routeLength="899.06" waitingTime="74.00" waitingCount="4" stopTime="0.00" timeLoss="95.61" rerouteNo="0" devices="tripinfo_f_0_3.10" vType="type1" speedFactor="0.93" vaporized=""/>
    <tripinfo id="f_0_1.4" depart="55.00" departLane="np16_nt1_0" departPos="54.28" departSpeed="0.00" departDelay="0.46" arrival="263.00" arrivalLane="nt16_np8_0" arrivalPos="75.00" arrivalSpeed="20.75" duration="208.00" routeLength="1293.60" waitingTime="37.00" waitingCount="7" stopTime="0.00" timeLoss="128.28" rerouteNo="0" devices="tripinfo_f_0_1.4" vType="type1" speedFactor="1.15" vaporized=""/>
    <tripinfo id="f_0_0.6" depart="82.00" departLane="np13_nt13_0" departPos="10.18" departSpeed="0.00" departDelay="0.18" arrival="263.00" arrivalLane="nt4_np5_0" arrivalPos="75.00" arrivalSpeed="19.59" duration="181.00" routeLength="1337.71" waitingTime="49.00" waitingCount="8" stopTime="0.00" timeLoss="95.78" rerouteNo="0" devices="tripinfo_f_0_0.6" vType="type1" speedFactor="1.09" vaporized=""/>
    <tripinfo id="f_0_1.5" depart="69.00" departLane="np16_nt1_0" departPos="58.22" departSpeed="0.00" departDelay="0.82" arrival="265.00" arrivalLane="nt16_np8_0" arrivalPos="75.00" arrivalSpeed="20.16" duration="196.00" routeLength="1289.66" waitingTime="39.00" waitingCount="5" stopTime="0.00" timeLoss="114.10" rerouteNo="0" devices="tripinfo_f_0_1.5" vType="type1" speedFactor="1.10" vaporized=""/>
    <tripinfo id="f_0_1.6" depart="82.00" departLane="np16_nt1_0" departPos="40.24" departSpeed="0.00" departDelay="0.18" arrival="266.00" arrivalLane="nt16_np8_0" arrivalPos="75.00" arrivalSpeed="21.27" duration="184.00" routeLength="1307.64" waitingTime="32.00" waitingCount="5" stopTime="0.00" timeLoss="99.22" rerouteNo="0" devices="tripinfo_f_0_1.6" vType="type1" speedFactor="1.07" vaporized=""/>
    <tripinfo id="f_0_2.12" depart="99.00" departLane="np2_nt2_0" departPos="13.50" departSpeed="0.00" departDelay="0.82" arrival="267.00" arrivalLane="nt15_np10_0" arrivalPos="75.00" arrivalSpeed="9.62" duration="168.00" routeLength="937.58" waitingTime="38.00" waitingCount="5" stopTime="0.00" timeLoss="88.57" rerouteNo="0" devices="tripinfo_f_0_2.12" vType="type1" speedFactor="0.99" vaporized=""/>
    <tripinfo id="f_0_2.13" depart="107.00" departLane="np2_nt2_0" departPos="21.42" departSpeed="0.00" departDelay="0.63" arrival="272.00" arrivalLane="nt15_np10_0" arrivalPos="75.00" arrivalSpeed="8.57" duration="165.00" routeLength="929.66" waitingTime="39.00" waitingCount="5" stopTime="0.00" timeLoss="83.10" rerouteNo="0" devices="tripinfo_f_0_2.13" vType="type1" speedFactor="0.95" vaporized=""/>
    <tripinfo id="f_0_2.14" depart="115.00" departLane="np2_nt2_0" departPos="9.26" departSpeed="0.00" departDelay="0.45" arrival="276.00" arrivalLane="nt15_np10_0" arrivalPos="75.00" arrivalSpeed="8.79" duration="161.00" routeLength="941.82" waitingTime="27.00" waitingCount="5" stopTime="0.00" timeLoss="69.08" rerouteNo="0" devices="tripinfo_f_0_2.14" vType="type1" speedFactor="0.86" vaporized=""/>
    <tripinfo id="f_0_1.7" depart="96.00" departLane="np16_nt1_0" departPos="48.68" departSpeed="0.00" departDelay="0.55" arrival="277.00" arrivalLane="nt16_np8_0" arrivalPos="75.00" arrivalSpeed="20.07" duration="181.00" routeLength="1299.20" waitingTime="44.00" waitingCount="5" stopTime="0.00" timeLoss="91.95" rerouteNo="0" devices="tripinfo_f_0_1.7" vType="type1" speedFactor="1.03" vaporized=""/>
    <tripinfo id="f_0_2.15" depart="123.00" departLane="np2_nt2_0" departPos="29.63" departSpeed="0.00" departDelay="0.27" arrival="277.00" arrivalLane="nt15_np10_0" arrivalPos="75.00" arrivalSpeed="9.50" duration="154.00" routeLength="921.45" waitingTime="25.00" waitingCount="6" stopTime="0.00" timeLoss="76.17" rerouteNo="0" devices="tripinfo_f_0_2.15" vType="type1" speedFactor="0.99" vaporized=""/>
    <tripinfo id="f_0_1.8" depart="110.00" departLane="np16_nt1_0" departPos="22.88" departSpeed="0.00" departDelay="0.91" arrival="292.00" arrivalLane="nt16_np8_0" arrivalPos="75.00" arrivalSpeed="16.40" duration="182.00" routeLength="1325.00" waitingTime="21.00" waitingCount="5" stopTime="0.00" timeLoss="82.15" rerouteNo="0" devices="tripinfo_f_0_1.8" vType="type1" speedFactor="0.92" vaporized=""/>
    <tripinfo id="f_0_3.11" depart="90.00" departLane="np3_nt3_0" departPos="39.05" departSpeed="0.00" departDelay="0.00" arrival="293.00" arrivalLane="nt14_np11_0" arrivalPos="75.00" arrivalSpeed="8.87" duration="203.00" routeLength="912.04" waitingTime="88.00" waitingCount="5" stopTime="0.00" timeLoss="118.74" rerouteNo="0" devices="tripinfo_f_0_3.11" vType="type1" speedFactor="0.91" vaporized=""/>
    <tripinfo id="f_0_3.12" depart="99.00" departLane="np3_nt3_0" departPos="27.63" departSpeed="0.00" departDelay="0.82" arrival="294.00" arrivalLane="nt14_np11_0" arrivalPos="75.00" arrivalSpeed="11.02" duration="195.00" routeLength="923.46" waitingTime="80.00" waitingCount="6" stopTime="0.00" timeLoss="118.28" rerouteNo="0" devices="tripinfo_f_0_3.12" vType="type1" speedFactor="1.00" vaporized=""/>
    <tripinfo id="f_0_0.7" depart="96.00" departLane="np13_nt13_0" departPos="10.62" departSpeed="0.00" departDelay="0.55" arrival="309.00" arrivalLane="nt4_np5_0" arrivalPos="75.00" arrivalSpeed="14.35" duration="213.00" routeLength="1337.27" waitingTime="60.00" waitingCount="5" stopTime="0.00" timeLoss="98.30" rerouteNo="0" devices="tripinfo_f_0_0.7" vType="type1" speedFactor="0.81" vaporized=""/>
    <tripinfo id="f_0_0.8" depart="110.00" departLane="np13_nt13_0" departPos="38.18" departSpeed="0.00" departDelay="0.91" arrival="310.00" arrivalLane="nt4_np5_0" arrivalPos="75.00" arrivalSpeed="22.03" duration="200.00" routeLength="1309.71" waitingTime="64.00" waitingCount="5" stopTime="0.00" timeLoss="118.47" rerouteNo="0" devices="tripinfo_f_0_0.8" vType="type1" speedFactor="1.12" vaporized=""/>
    <tripinfo id="f_0_0.9" depart="123.00" departLane="np13_nt13_0" departPos="33.83" departSpeed="0.00" departDelay="0.28" arrival="312.00" arrivalLane="nt4_np5_0" arrivalPos="75.00" arrivalSpeed="19.03" duration="189.00" routeLength="1314.06" waitingTime="46.00" waitingCount="6" stopTime="0.00" timeLoss="98.16" rerouteNo="0" devices="tripinfo_f_0_0.9" vType="type1" speedFactor="1.00" vaporized=""/>
    <tripinfo id="f_0_3.13" depart="107.00" departLane="np3_nt3_0" departPos="19.67" departSpeed="0.00" departDelay="0.63" arrival="313.00" arrivalLane="nt14_np11_0" arrivalPos="75.00" arrivalSpeed="9.26" duration="206.00" routeLength="931.42" waitingTime="86.00" waitingCount="8" stopTime="0.00" timeLoss="126.69" rerouteNo="0" devices="tripinfo_f_0_3.13" vType="type1" speedFactor="0.99" vaporized=""/>
    <tripinfo id="f_0_2.16" depart="131.00" departLane="np2_nt2_0" departPos="4.50" departSpeed="0.00" departDelay="0.09" arrival="313.00" arrivalLane="nt15_np10_0" arrivalPos="75.00" arrivalSpeed="9.67" duration="182.00" routeLength="946.58" waitingTime="41.00" waitingCount="6" stopTime="0.00" timeLoss="97.99" rerouteNo="0" devices="tripinfo_f_0_2.16" vType="type1" speedFactor="0.95" vaporized=""/>
    <tripinfo id="f_0_3.14" depart="115.00" departLane="np3_nt3_0" departPos="3.67" departSpeed="0.00" departDelay="0.45" arrival="314.00" arrivalLane="nt14_np11_0" arrivalPos="75.00" arrivalSpeed="12.40" duration="199.00" routeLength="947.42" waitingTime="74.00" waitingCount="8" stopTime="0.00" timeLoss="129.31" rerouteNo="0" devices="tripinfo_f_0_3.14" vType="type1" speedFactor="1.13" vaporized=""/>
    <tripinfo id="f_0_1.9" depart="123.00" departLane="np16_nt1_0" departPos="58.55" departSpeed="0.00" departDelay="0.28" arrival="314.00" arrivalLane="nt16_np8_0" arrivalPos="75.00" arrivalSpeed="19.62" duration="191.00" routeLength="1289.33" waitingTime="28.00" waitingCount="7" stopTime="0.00" timeLoss="104.45" rerouteNo="0" devices="tripinfo_f_0_1.9" vType="type1" speedFactor="1.05" vaporized=""/>
    <tripinfo id="f_0_0.10" depart="137.00" departLane="np13_nt13_0" departPos="44.46" departSpeed="0.00" departDelay="0.64" arrival="314.00" arrivalLane="nt4_np5_0" arrivalPos="75.00" arrivalSpeed="23.06" duration="177.00" routeLength="1303.43" waitingTime="48.00" waitingCount="6" stopTime="0.00" timeLoss="100.37" rerouteNo="0" devices="tripinfo_f_0_0.10" vType="type1" speedFactor="1.19" vaporized=""/>
    <tripinfo id="f_0_2.17" depart="140.00" departLane="np2_nt2_0" departPos="31.95" departSpeed="0.00" departDelay="0.91" arrival="315.00" arrivalLane="nt15_np10_0" arrivalPos="75.00" arrivalSpeed="9.39" duration="175.00" routeLength="919.13" waitingTime="35.00" waitingCount="5" stopTime="0.00" timeLoss="95.22" rerouteNo="0" devices="tripinfo_f_0_2.17" vType="type1" speedFactor="0.97" vaporized=""/>
    <tripinfo id="f_0_3.15" depart="123.00" departLane="np3_nt3_0" departPos="21.15" departSpeed="0.00" departDelay="0.27" arrival="317.00" arrivalLane="nt14_np11_0" arrivalPos="75.00" arrivalSpeed="8.89" duration="194.00" routeLength="929.94" waitingTime="63.00" waitingCount="7" stopTime="0.00" timeLoss="107.77" rerouteNo="0" devices="tripinfo_f_0_3.15" vType="type1" speedFactor="0.90" vaporized=""/>
    <tripinfo id="f_0_3.16" depart="131.00" departLane="np3_nt3_0" departPos="1.54" departSpeed="0.00" departDelay="0.09" arrival="320.00" arrivalLane="nt14_np11_0" arrivalPos="75.00" arrivalSpeed="8.36" duration="189.00" routeLength="949.55" waitingTime="53.00" waitingCount="8" stopTime="0.00" timeLoss="101.32" rerouteNo="0" devices="tripinfo_f_0_3.16" vType="type1" speedFactor="0.92" vaporized=""/>
    <tripinfo id="f_0_2.18" depart="148.00" departLane="np2_nt2_0" departPos="1.41" departSpeed="0.00" departDelay="0.72" arrival="322.00" arrivalLane="nt15_np10_0" arrivalPos="75.00" arrivalSpeed="9.77" duration="174.00" routeLength="949.67" waitingTime="36.00" waitingCount="6" stopTime="0.00" timeLoss="101.72" rerouteNo="0" devices="tripinfo_f_0_2.18" vType="type1" speedFactor="1.11" vaporized=""/>
    <tripinfo id="f_0_0.11" depart="150.00" departLane="np13_nt13_0" departPos="55.59" departSpeed="0.00" departDelay="0.00" arrival="323.00" arrivalLane="nt4_np5_0" arrivalPos="75.00" arrivalSpeed="18.84" duration="173.00" routeLength="1292.30" waitingTime="36.00" waitingCount="6" stopTime="0.00" timeLoss="87.05" rerouteNo="0" devices="tripinfo_f_0_0.11" vType="type1" speedFactor="1.05" vaporized=""/>
    <tripinfo id="f_0_0.12" depart="164.00" departLane="np13_nt13_0" departPos="63.36" departSpeed="0.00" departDelay="0.37" arrival="325.00" arrivalLane="nt4_np5_0" arrivalPos="75.00" arrivalSpeed="18.32" duration="161.00" routeLength="1284.53" waitingTime="29.00" waitingCount="7" stopTime="0.00" timeLoss="73.80" rerouteNo="0" devices="tripinfo_f_0_0.12" vType="type1" speedFactor="1.04" vaporized=""/>
    <tripinfo id="f_0_3.17" depart="140.00" departLane="np3_nt3_0" departPos="11.46" departSpeed="0.00" departDelay="0.91" arrival="326.00" arrivalLane="nt14_np11_0" arrivalPos="75.00" arrivalSpeed="10.67" duration="186.00" routeLength="939.63" waitingTime="56.00" waitingCount="8" stopTime="0.00" timeLoss="117.53" rerouteNo="0" devices="tripinfo_f_0_3.17" vType="type1" speedFactor="1.15" vaporized=""/>
    <tripinfo id="f_0_0.13" depart="178.00" departLane="np13_nt13_0" departPos="11.13" departSpeed="0.00" departDelay="0.73" arrival="326.00" arrivalLane="nt4_np5_0" arrivalPos="75.00" arrivalSpeed="19.64" duration="148.00" routeLength="1336.76" waitingTime="26.00" waitingCount="4" stopTime="0.00" timeLoss="62.74" rerouteNo="0" devices="tripinfo_f_0_0.13" vType="type1" speedFactor="1.08" vaporized=""/>
    <tripinfo id="f_0_1.10" depart="137.00" departLane="np16_nt1_0" departPos="25.07" departSpeed="0.00" departDelay="0.64" arrival="338.00" arrivalLane="nt16_np8_0" arrivalPos="75.00" arrivalSpeed="19.78" duration="201.00" routeLength="1322.81" waitingTime="41.00" waitingCount="9" stopTime="0.00" timeLoss="115.34" rerouteNo="0" devices="tripinfo_f_0_1.10" vType="type1" speedFactor="1.08" vaporized=""/>
    <tripinfo id="f_0_2.19" depart="156.00" departLane="np2_nt2_0" departPos="36.00" departSpeed="0.00" departDelay="0.54" arrival="343.00" arrivalLane="nt15_np10_0" arrivalPos="75.00" arrivalSpeed="8.67" duration="187.00" routeLength="915.08" waitingTime="34.00" waitingCount="7" stopTime="0.00" timeLoss="100.97" rerouteNo="0" devices="tripinfo_f_0_2.19" vType="type1" speedFactor="0.89" vaporized=""/>
    <tripinfo id="f_0_3.18" depart="148.00" departLane="np3_nt3_0" departPos="23.09" departSpeed="0.00" departDelay="0.72" arrival="344.00" arrivalLane="nt14_np11_0" arrivalPos="75.00" arrivalSpeed="7.48" duration="196.00" routeLength="928.00" waitingTime="65.00" waitingCount="9" stopTime="0.00" timeLoss="107.41" rerouteNo="0" devices="tripinfo_f_0_3.18" vType="type1" speedFactor="0.88" vaporized=""/>
    <tripinfo id="f_0_2.20" depart="164.00" departLane="np2_nt2_0" departPos="52.25" departSpeed="0.00" departDelay="0.36" arrival="345.00" arrivalLane="nt15_np10_0" arrivalPos="75.00" arrivalSpeed="10.15" duration="181.00" routeLength="898.83" waitingTime="33.00" waitingCount="8" stopTime="0.00" timeLoss="104.48" rerouteNo="0" devices="tripinfo_f_0_2.20" vType="type1" speedFactor="0.97" vaporized=""/>
    <tripinfo id="f_0_3.19" depart="156.00" departLane="np3_nt3_0" departPos="18.18" departSpeed="0.00" departDelay="0.54" arrival="346.00" arrivalLane="nt14_np11_0" arrivalPos="75.00" arrivalSpeed="8.63" duration="190.00" routeLength="932.91" waitingTime="47.00" waitingCount="6" stopTime="0.00" timeLoss="107.00" rerouteNo="0" devices="tripinfo_f_0_3.19" vType="type1" speedFactor="0.95" vaporized=""/>
    <tripinfo id="f_0_3.20" depart="164.00" departLane="np3_nt3_0" departPos="15.98" departSpeed="0.00" departDelay="0.36" arrival="348.00" arrivalLane="nt14_np11_0" arrivalPos="75.00" arrivalSpeed="7.59" duration="184.00" routeLength="935.11" waitingTime="43.00" waitingCount="8" stopTime="0.00" timeLoss="95.91" rerouteNo="0" devices="tripinfo_f_0_3.20" vType="type1" speedFactor="0.89" vaporized=""/>
    <tripinfo id="f_0_3.21" depart="172.00" departLane="np3_nt3_0" departPos="0.12" departSpeed="0.00" departDelay="0.18" arrival="350.00" arrivalLane="nt14_np11_0" arrivalPos="75.00" arrivalSpeed="12.28" duration="178.00" routeLength="950.97" waitingTime="41.00" waitingCount="9" stopTime="0.00" timeLoss="107.12" rerouteNo="0" devices="tripinfo_f_0_3.21" vType="type1" speedFactor="1.14" vaporized=""/>
    <tripinfo id="f_0_3.22" depart="180.00" departLane="np3_nt3_0" departPos="8.35" departSpeed="0.00" departDelay="0.00" arrival="352.00" arrivalLane="nt14_np11_0" arrivalPos="75.00" arrivalSpeed="9.57" duration="172.00" routeLength="942.74" waitingTime="28.00" waitingCount="7" stopTime="0.00" timeLoss="95.38" rerouteNo="0" devices="tripinfo_f_0_3.22" vType="type1" speedFactor="1.04" vaporized=""/>
    <tripinfo id="f_0_3.23" depart="189.00" departLane="np3_nt3_0" departPos="24.53" departSpeed="0.00" departDelay="0.81" arrival="354.00" arrivalLane="nt14_np11_0" arrivalPos="75.00" arrivalSpeed="10.26" duration="165.00" routeLength="926.56" waitingTime="20.00" waitingCount="6" stopTime="0.00" timeLoss="86.75" rerouteNo="0" devices="tripinfo_f_0_3.23" vType="type1" speedFactor="1.00" vaporized=""/>
    <tripinfo id="f_0_3.24" depart="197.00" departLane="np3_nt3_0" departPos="29.44" departSpeed="0.00" departDelay="0.63" arrival="356.00" arrivalLane="nt14_np11_0" arrivalPos="75.00" arrivalSpeed="9.76" duration="159.00" routeLength="921.65" waitingTime="30.00" waitingCount="7" stopTime="0.00" timeLoss="81.38" rerouteNo="0" devices="tripinfo_f_0_3.24" vType="type1" speedFactor="1.00" vaporized=""/>