<?xml version="1.0" encoding="UTF-8"?>

<!-- generated on 2023-08-23 16:15:03 by Eclipse SUMO libsumo Version 1.18.0
<configuration xmlns:xsi="http://www.w3.org/2001/XMLSchema-instance" xsi:noNamespaceSchemaLocation="http://sumo.dlr.de/xsd/libsumoConfiguration.xsd">

    <input>
        <net-file value="/home/stefan/RESCO/./environments/arterial4x4/arterial4x4.net.xml"/>
        <route-files value="/home/stefan/RESCO/./environments/arterial4x4/arterial4x4_31.rou.xml"/>
    </input>

    <output>
        <tripinfo-output value="/home/stefan/results/IDDQN-tr0-arterial4x4-0-drq_norm-wait_norm/tripinfo_31.xml"/>
        <tripinfo-output.write-unfinished value="true"/>
    </output>

    <processing>
        <time-to-teleport value="-1"/>
    </processing>

    <report>
        <no-warnings value="True"/>
        <no-step-log value="True"/>
    </report>

    <random_number>
        <random value="true"/>
    </random_number>

</configuration>
-->

<tripinfos xmlns:xsi="http://www.w3.org/2001/XMLSchema-instance" xsi:noNamespaceSchemaLocation="http://sumo.dlr.de/xsd/tripinfo_file.xsd">
    <tripinfo id="f_0_2.0" depart="0.00" departLane="np2_nt2_0" departPos="21.10" departSpeed="0.00" departDelay="0.00" arrival="143.00" arrivalLane="nt15_np10_0" arrivalPos="75.00" arrivalSpeed="9.54" duration="143.00" routeLength="929.98" waitingTime="34.00" waitingCount="3" stopTime="0.00" timeLoss="60.13" rerouteNo="0" devices="tripinfo_f_0_2.0" vType="type1" speedFactor="0.94" vaporized=""/>
    <tripinfo id="f_0_3.0" depart="0.00" departLane="np3_nt3_0" departPos="63.29" departSpeed="0.00" departDelay="0.00" arrival="152.00" arrivalLane="nt14_np11_0" arrivalPos="75.00" arrivalSpeed="11.35" duration="152.00" routeLength="887.80" waitingTime="60.00" waitingCount="3" stopTime="0.00" timeLoss="81.61" rerouteNo="0" devices="tripinfo_f_0_3.0" vType="type1" speedFactor="1.05" vaporized=""/>
    <tripinfo id="f_0_0.0" depart="0.00" departLane="np13_nt13_0" departPos="39.98" departSpeed="0.00" departDelay="0.00" arrival="156.00" arrivalLane="nt4_np5_0" arrivalPos="75.00" arrivalSpeed="17.82" duration="156.00" routeLength="1307.91" waitingTime="30.00" waitingCount="5" stopTime="0.00" timeLoss="65.66" rerouteNo="0" devices="tripinfo_f_0_0.0" vType="type1" speedFactor="1.01" vaporized=""/>
    <tripinfo id="f_0_2.1" depart="9.00" departLane="np2_nt2_0" departPos="32.98" departSpeed="0.00" departDelay="0.82" arrival="157.00" arrivalLane="nt15_np10_0" arrivalPos="75.00" arrivalSpeed="10.31" duration="148.00" routeLength="918.10" waitingTime="39.00" waitingCount="6" stopTime="0.00" timeLoss="77.62" rerouteNo="0" devices="tripinfo_f_0_2.1" vType="type1" speedFactor="1.09" vaporized=""/>
    <tripinfo id="f_0_2.2" depart="17.00" departLane="np2_nt2_0" departPos="41.27" departSpeed="0.00" departDelay="0.64" arrival="159.00" arrivalLane="nt15_np10_0" arrivalPos="75.00" arrivalSpeed="12.19" duration="142.00" routeLength="909.81" waitingTime="29.00" waitingCount="6" stopTime="0.00" timeLoss="72.72" rerouteNo="0" devices="tripinfo_f_0_2.2" vType="type1" speedFactor="1.11" vaporized=""/>
    <tripinfo id="f_0_2.3" depart="25.00" departLane="np2_nt2_0" departPos="43.90" departSpeed="0.00" departDelay="0.45" arrival="162.00" arrivalLane="nt15_np10_0" arrivalPos="75.00" arrivalSpeed="10.76" duration="137.00" routeLength="907.18" waitingTime="19.00" waitingCount="5" stopTime="0.00" timeLoss="59.26" rerouteNo="0" devices="tripinfo_f_0_2.3" vType="type1" speedFactor="0.98" vaporized=""/>
    <tripinfo id="f_0_1.0" depart="0.00" departLane="np16_nt1_0" departPos="63.62" departSpeed="0.00" departDelay="0.00" arrival="168.00" arrivalLane="nt16_np8_0" arrivalPos="75.00" arrivalSpeed="18.84" duration="168.00" routeLength="1284.26" waitingTime="41.00" waitingCount="4" stopTime="0.00" timeLoss="78.74" rerouteNo="0" devices="tripinfo_f_0_1.0" vType="type1" speedFactor="1.01" vaporized=""/>
    <tripinfo id="f_0_2.4" depart="33.00" departLane="np2_nt2_0" departPos="54.30" departSpeed="0.00" departDelay="0.27" arrival="172.00" arrivalLane="nt15_np10_0" arrivalPos="75.00" arrivalSpeed="9.74" duration="139.00" routeLength="896.78" waitingTime="23.00" waitingCount="5" stopTime="0.00" timeLoss="70.05" rerouteNo="0" devices="tripinfo_f_0_2.4" vType="type1" speedFactor="1.08" vaporized=""/>
    <tripinfo id="f_0_1.1" depart="14.00" departLane="np16_nt1_0" departPos="25.20" departSpeed="0.00" departDelay="0.36" arrival="176.00" arrivalLane="nt16_np8_0" arrivalPos="75.00" arrivalSpeed="17.77" duration="162.00" routeLength="1322.68" waitingTime="27.00" waitingCount="5" stopTime="0.00" timeLoss="60.75" rerouteNo="0" devices="tripinfo_f_0_1.1" vType="type1" speedFactor="0.91" vaporized=""/>
    <tripinfo id="f_0_2.5" depart="41.00" departLane="np2_nt2_0" departPos="0.46" departSpeed="0.00" departDelay="0.09" arrival="177.00" arrivalLane="nt15_np10_0" arrivalPos="75.00" arrivalSpeed="8.64" duration="136.00" routeLength="950.62" waitingTime="22.00" waitingCount="4" stopTime="0.00" timeLoss="52.80" rerouteNo="0" devices="tripinfo_f_0_2.5" vType="type1" speedFactor="0.96" vaporized=""/>
    <tripinfo id="f_0_2.6" depart="50.00" departLane="np2_nt2_0" departPos="11.69" departSpeed="0.00" departDelay="0.91" arrival="179.00" arrivalLane="nt15_np10_0" arrivalPos="75.00" arrivalSpeed="12.31" duration="129.00" routeLength="939.39" waitingTime="22.00" waitingCount="5" stopTime="0.00" timeLoss="59.15" rerouteNo="0" devices="tripinfo_f_0_2.6" vType="type1" speedFactor="1.13" vaporized=""/>
    <tripinfo id="f_0_0.1" depart="14.00" departLane="np13_nt13_0" departPos="4.51" departSpeed="0.00" departDelay="0.36" arrival="188.00" arrivalLane="nt4_np5_0" arrivalPos="75.00" arrivalSpeed="19.49" duration="174.00" routeLength="1343.38" waitingTime="43.00" waitingCount="6" stopTime="0.00" timeLoss="82.86" rerouteNo="0" devices="tripinfo_f_0_0.1" vType="type1" speedFactor="1.02" vaporized=""/>
    <tripinfo id="f_0_3.1" depart="9.00" departLane="np3_nt3_0" departPos="43.82" departSpeed="0.00" departDelay="0.82" arrival="194.00" arrivalLane="nt14_np11_0" arrivalPos="75.00" arrivalSpeed="8.05" duration="185.00" routeLength="907.27" waitingTime="72.00" waitingCount="5" stopTime="0.00" timeLoss="99.92" rerouteNo="0" devices="tripinfo_f_0_3.1" vType="type1" speedFactor="0.89" vaporized=""/>
    <tripinfo id="f_0_0.2" depart="28.00" departLane="np13_nt13_0" departPos="46.72" departSpeed="0.00" departDelay="0.73" arrival="202.00" arrivalLane="nt4_np5_0" arrivalPos="75.00" arrivalSpeed="17.07" duration="174.00" routeLength="1301.17" waitingTime="40.00" waitingCount="5" stopTime="0.00" timeLoss="79.58" rerouteNo="0" devices="tripinfo_f_0_0.2" vType="type1" speedFactor="0.96" vaporized=""/>
    <tripinfo id="f_0_0.3" depart="41.00" departLane="np13_nt13_0" departPos="20.75" departSpeed="0.00" departDelay="0.09" arrival="204.00" arrivalLane="nt4_np5_0" arrivalPos="75.00" arrivalSpeed="19.62" duration="163.00" routeLength="1327.14" waitingTime="30.00" waitingCount="6" stopTime="0.00" timeLoss="74.73" rerouteNo="0" devices="tripinfo_f_0_0.3" vType="type1" speedFactor="1.05" vaporized=""/>
    <tripinfo id="f_0_0.4" depart="55.00" departLane="np13_nt13_0" departPos="34.49" departSpeed="0.00" departDelay="0.46" arrival="206.00" arrivalLane="nt4_np5_0" arrivalPos="75.00" arrivalSpeed="19.50" duration="151.00" routeLength="1313.40" waitingTime="15.00" waitingCount="4" stopTime="0.00" timeLoss="60.77" rerouteNo="0" devices="tripinfo_f_0_0.4" vType="type1" speedFactor="1.01" vaporized=""/>
    <tripinfo id="f_0_3.2" depart="17.00" departLane="np3_nt3_0" departPos="38.90" departSpeed="0.00" departDelay="0.64" arrival="223.00" arrivalLane="nt14_np11_0" arrivalPos="75.00" arrivalSpeed="9.28" duration="206.00" routeLength="912.19" waitingTime="91.00" waitingCount="5" stopTime="0.00" timeLoss="122.66" rerouteNo="0" devices="tripinfo_f_0_3.2" vType="type1" speedFactor="0.92" vaporized=""/>
    <tripinfo id="f_0_1.2" depart="28.00" departLane="np16_nt1_0" departPos="37.94" departSpeed="0.00" departDelay="0.73" arrival="224.00" arrivalLane="nt16_np8_0" arrivalPos="75.00" arrivalSpeed="19.78" duration="196.00" routeLength="1309.94" waitingTime="67.00" waitingCount="6" stopTime="0.00" timeLoss="108.47" rerouteNo="0" devices="tripinfo_f_0_1.2" vType="type1" speedFactor="1.05" vaporized=""/>
    <tripinfo id="f_0_0.5" depart="69.00" departLane="np13_nt13_0" departPos="62.31" departSpeed="0.00" departDelay="0.82" arrival="228.00" arrivalLane="nt4_np5_0" arrivalPos="75.00" arrivalSpeed="19.64" duration="159.00" routeLength="1285.58" waitingTime="24.00" waitingCount="5" stopTime="0.00" timeLoss="70.52" rerouteNo="0" devices="tripinfo_f_0_0.5" vType="type1" speedFactor="1.02" vaporized=""/>
    <tripinfo id="f_0_3.3" depart="25.00" departLane="np3_nt3_0" departPos="20.37" departSpeed="0.00" departDelay="0.45" arrival="232.00" arrivalLane="nt14_np11_0" arrivalPos="75.00" arrivalSpeed="10.01" duration="207.00" routeLength="930.72" waitingTime="85.00" waitingCount="7" stopTime="0.00" timeLoss="127.02" rerouteNo="0" devices="tripinfo_f_0_3.3" vType="type1" speedFactor="0.97" vaporized=""/>
    <tripinfo id="f_0_3.4" depart="33.00" departLane="np3_nt3_0" departPos="10.90" departSpeed="0.00" departDelay="0.27" arrival="235.00" arrivalLane="nt14_np11_0" arrivalPos="75.00" arrivalSpeed="8.24" duration="202.00" routeLength="940.19" waitingTime="81.00" waitingCount="8" stopTime="0.00" timeLoss="120.55" rerouteNo="0" devices="tripinfo_f_0_3.4" vType="type1" speedFactor="0.97" vaporized=""/>
    <tripinfo id="f_0_3.5" depart="41.00" departLane="np3_nt3_0" departPos="20.80" departSpeed="0.00" departDelay="0.09" arrival="244.00" arrivalLane="nt14_np11_0" arrivalPos="75.00" arrivalSpeed="9.97" duration="203.00" routeLength="930.29" waitingTime="68.00" waitingCount="9" stopTime="0.00" timeLoss="120.17" rerouteNo="0" devices="tripinfo_f_0_3.5" vType="type1" speedFactor="0.95" vaporized=""/>
    <tripinfo id="f_0_3.6" depart="50.00" departLane="np3_nt3_0" departPos="5.17" departSpeed="0.00" departDelay="0.91" arrival="246.00" arrivalLane="nt14_np11_0" arrivalPos="75.00" arrivalSpeed="10.59" duration="196.00" routeLength="945.92" waitingTime="54.00" waitingCount="10" stopTime="0.00" timeLoss="114.24" rerouteNo="0" devices="tripinfo_f_0_3.6" vType="type1" speedFactor="0.97" vaporized=""/>
    <tripinfo id="f_0_3.7" depart="58.00" departLane="np3_nt3_0" departPos="5.93" departSpeed="0.00" departDelay="0.73" arrival="248.00" arrivalLane="nt14_np11_0" arrivalPos="75.00" arrivalSpeed="9.48" duration="190.00" routeLength="945.16" waitingTime="44.00" waitingCount="8" stopTime="0.00" timeLoss="107.12" rerouteNo="0" devices="tripinfo_f_0_3.7" vType="type1" speedFactor="0.96" vaporized=""/>
    <tripinfo id="f_0_2.7" depart="58.00" departLane="np2_nt2_0" departPos="0.42" departSpeed="0.00" departDelay="0.73" arrival="263.00" arrivalLane="nt15_np10_0" arrivalPos="75.00" arrivalSpeed="9.50" duration="205.00" routeLength="950.66" waitingTime="89.00" waitingCount="5" stopTime="0.00" timeLoss="121.19" rerouteNo="0" devices="tripinfo_f_0_2.7" vType="type1" speedFactor="0.96" vaporized=""/>
    <tripinfo id="f_0_2.8" depart="66.00" departLane="np2_nt2_0" departPos="1.29" departSpeed="0.00" departDelay="0.54" arrival="277.00" arrivalLane="nt15_np10_0" arrivalPos="75.00" arrivalSpeed="9.90" duration="211.00" routeLength="949.79" waitingTime="97.00" waitingCount="5" stopTime="0.00" timeLoss="132.08" rerouteNo="0" devices="tripinfo_f_0_2.8" vType="type1" speedFactor="1.01" vaporized=""/>
    <tripinfo id="f_0_0.6" depart="82.00" departLane="np13_nt13_0" departPos="43.14" departSpeed="0.00" departDelay="0.18" arrival="279.00" arrivalLane="nt4_np5_0" arrivalPos="75.00" arrivalSpeed="17.73" duration="197.00" routeLength="1304.75" waitingTime="64.00" waitingCount="4" stopTime="0.00" timeLoss="99.67" rerouteNo="0" devices="tripinfo_f_0_0.6" vType="type1" speedFactor="0.94" vaporized=""/>
    <tripinfo id="f_0_0.7" depart="96.00" departLane="np13_nt13_0" departPos="38.71" departSpeed="0.00" departDelay="0.55" arrival="280.00" arrivalLane="nt4_np5_0" arrivalPos="75.00" arrivalSpeed="21.40" duration="184.00" routeLength="1309.18" waitingTime="54.00" waitingCount="8" stopTime="0.00" timeLoss="98.75" rerouteNo="0" devices="tripinfo_f_0_0.7" vType="type1" speedFactor="1.07" vaporized=""/>
    <tripinfo id="f_0_2.9" depart="74.00" departLane="np2_nt2_0" departPos="6.24" departSpeed="0.00" departDelay="0.36" arrival="285.00" arrivalLane="nt15_np10_0" arrivalPos="75.00" arrivalSpeed="7.14" duration="211.00" routeLength="944.84" waitingTime="73.00" waitingCount="4" stopTime="0.00" timeLoss="107.42" rerouteNo="0" devices="tripinfo_f_0_2.9" vType="type1" speedFactor="0.77" vaporized=""/>
    <tripinfo id="f_0_2.10" depart="82.00" departLane="np2_nt2_0" departPos="31.96" departSpeed="0.00" departDelay="0.18" arrival="286.00" arrivalLane="nt15_np10_0" arrivalPos="75.00" arrivalSpeed="11.09" duration="204.00" routeLength="919.12" waitingTime="77.00" waitingCount="5" stopTime="0.00" timeLoss="139.61" rerouteNo="0" devices="tripinfo_f_0_2.10" vType="type1" speedFactor="1.20" vaporized=""/>
    <tripinfo id="f_0_0.8" depart="110.00" departLane="np13_nt13_0" departPos="34.09" departSpeed="0.00" departDelay="0.91" arrival="290.00" arrivalLane="nt4_np5_0" arrivalPos="75.00" arrivalSpeed="21.16" duration="180.00" routeLength="1313.80" waitingTime="55.00" waitingCount="6" stopTime="0.00" timeLoss="93.42" rerouteNo="0" devices="tripinfo_f_0_0.8" vType="type1" speedFactor="1.06" vaporized=""/>
    <tripinfo id="f_0_1.3" depart="41.00" departLane="np16_nt1_0" departPos="6.91" departSpeed="0.00" departDelay="0.09" arrival="293.00" arrivalLane="nt16_np8_0" arrivalPos="75.00" arrivalSpeed="19.18" duration="252.00" routeLength="1340.97" waitingTime="125.00" waitingCount="7" stopTime="0.00" timeLoss="165.10" rerouteNo="0" devices="tripinfo_f_0_1.3" vType="type1" speedFactor="1.07" vaporized=""/>
    <tripinfo id="f_0_2.11" depart="90.00" departLane="np2_nt2_0" departPos="50.94" departSpeed="0.00" departDelay="0.00" arrival="297.00" arrivalLane="nt15_np10_0" arrivalPos="75.00" arrivalSpeed="11.02" duration="207.00" routeLength="900.14" waitingTime="80.00" waitingCount="8" stopTime="0.00" timeLoss="134.57" rerouteNo="0" devices="tripinfo_f_0_2.11" vType="type1" speedFactor="1.04" vaporized=""/>
    <tripinfo id="f_0_2.12" depart="99.00" departLane="np2_nt2_0" departPos="13.24" departSpeed="0.00" departDelay="0.82" arrival="300.00" arrivalLane="nt15_np10_0" arrivalPos="75.00" arrivalSpeed="8.24" duration="201.00" routeLength="937.84" waitingTime="64.00" waitingCount="9" stopTime="0.00" timeLoss="118.19" rerouteNo="0" devices="tripinfo_f_0_2.12" vType="type1" speedFactor="0.96" vaporized=""/>
    <tripinfo id="f_0_1.4" depart="55.00" departLane="np16_nt1_0" departPos="28.92" departSpeed="0.00" departDelay="0.46" arrival="303.00" arrivalLane="nt16_np8_0" arrivalPos="75.00" arrivalSpeed="20.55" duration="248.00" routeLength="1318.96" waitingTime="103.00" waitingCount="7" stopTime="0.00" timeLoss="166.29" rerouteNo="0" devices="tripinfo_f_0_1.4" vType="type1" speedFactor="1.13" vaporized=""/>
    <tripinfo id="f_0_3.8" depart="66.00" departLane="np3_nt3_0" departPos="4.02" departSpeed="0.00" departDelay="0.54" arrival="307.00" arrivalLane="nt14_np11_0" arrivalPos="75.00" arrivalSpeed="9.98" duration="241.00" routeLength="947.07" waitingTime="114.00" waitingCount="6" stopTime="0.00" timeLoss="164.33" rerouteNo="0" devices="tripinfo_f_0_3.8" vType="type1" speedFactor="1.05" vaporized=""/>
    <tripinfo id="f_0_3.9" depart="74.00" departLane="np3_nt3_0" departPos="3.34" departSpeed="0.00" departDelay="0.36" arrival="309.00" arrivalLane="nt14_np11_0" arrivalPos="75.00" arrivalSpeed="8.21" duration="235.00" routeLength="947.75" waitingTime="102.00" waitingCount="7" stopTime="0.00" timeLoss="152.31" rerouteNo="0" devices="tripinfo_f_0_3.9" vType="type1" speedFactor="0.96" vaporized=""/>
    <tripinfo id="f_0_1.5" depart="69.00" departLane="np16_nt1_0" departPos="34.39" departSpeed="0.00" departDelay="0.82" arrival="314.00" arrivalLane="nt16_np8_0" arrivalPos="75.00" arrivalSpeed="17.81" duration="245.00" routeLength="1313.49" waitingTime="75.00" waitingCount="10" stopTime="0.00" timeLoss="148.62" rerouteNo="0" devices="tripinfo_f_0_1.5" vType="type1" speedFactor="0.95" vaporized=""/>
    <tripinfo id="f_0_2.13" depart="107.00" departLane="np2_nt2_0" departPos="6.29" departSpeed="0.00" departDelay="0.63" arrival="317.00" arrivalLane="nt15_np10_0" arrivalPos="75.00" arrivalSpeed="9.47" duration="210.00" routeLength="944.79" waitingTime="54.00" waitingCount="10" stopTime="0.00" timeLoss="136.47" rerouteNo="0" devices="tripinfo_f_0_2.13" vType="type1" speedFactor="1.08" vaporized=""/>
    <tripinfo id="f_0_2.14" depart="115.00" departLane="np2_nt2_0" departPos="45.28" departSpeed="0.00" departDelay="0.45" arrival="320.00" arrivalLane="nt15_np10_0" arrivalPos="75.00" arrivalSpeed="9.06" duration="205.00" routeLength="905.80" waitingTime="53.00" waitingCount="8" stopTime="0.00" timeLoss="121.09" rerouteNo="0" devices="tripinfo_f_0_2.14" vType="type1" speedFactor="0.91" vaporized=""/>
    <tripinfo id="f_0_3.10" depart="82.00" departLane="np3_nt3_0" departPos="7.41" departSpeed="0.00" departDelay="0.18" arrival="323.00" arrivalLane="nt14_np11_0" arrivalPos="75.00" arrivalSpeed="8.13" duration="241.00" routeLength="943.68" waitingTime="94.00" waitingCount="9" stopTime="0.00" timeLoss="154.12" rerouteNo="0" devices="tripinfo_f_0_3.10" vType="type1" speedFactor="0.91" vaporized=""/>
    <tripinfo id="f_0_2.15" depart="123.00" departLane="np2_nt2_0" departPos="37.67" departSpeed="0.00" departDelay="0.27" arrival="326.00" arrivalLane="nt15_np10_0" arrivalPos="75.00" arrivalSpeed="9.27" duration="203.00" routeLength="913.41" waitingTime="48.00" waitingCount="9" stopTime="0.00" timeLoss="114.84" rerouteNo="0" devices="tripinfo_f_0_2.15" vType="type1" speedFactor="0.88" vaporized=""/>
    <tripinfo id="f_0_1.6" depart="82.00" departLane="np16_nt1_0" departPos="29.34" departSpeed="0.00" departDelay="0.18" arrival="328.00" arrivalLane="nt16_np8_0" arrivalPos="75.00" arrivalSpeed="20.72" duration="246.00" routeLength="1318.54" waitingTime="80.00" waitingCount="12" stopTime="0.00" timeLoss="162.46" rerouteNo="0" devices="tripinfo_f_0_1.6" vType="type1" speedFactor="1.10" vaporized=""/>
    <tripinfo id="f_0_2.16" depart="131.00" departLane="np2_nt2_0" departPos="27.33" departSpeed="0.00" departDelay="0.09" arrival="328.00" arrivalLane="nt15_np10_0" arrivalPos="75.00" arrivalSpeed="9.75" duration="197.00" routeLength="923.75" waitingTime="57.00" waitingCount="8" stopTime="0.00" timeLoss="117.55" rerouteNo="0" devices="tripinfo_f_0_2.16" vType="type1" speedFactor="0.98" vaporized=""/>
    <tripinfo id="f_0_2.17" depart="140.00" departLane="np2_nt2_0" departPos="39.66" departSpeed="0.00" departDelay="0.91" arrival="330.00" arrivalLane="nt15_np10_0" arrivalPos="75.00" arrivalSpeed="9.11" duration="190.00" routeLength="911.42" waitingTime="56.00" waitingCount="8" stopTime="0.00" timeLoss="114.44" rerouteNo="0" devices="tripinfo_f_0_2.17" vType="type1" speedFactor="1.02" vaporized=""/>
    <tripinfo id="f_0_0.9" depart="123.00" departLane="np13_nt13_0" departPos="11.17" departSpeed="0.00" departDelay="0.28" arrival="334.00" arrivalLane="nt4_np5_0" arrivalPos="75.00" arrivalSpeed="16.59" duration="211.00" routeLength="1336.72" waitingTime="67.00" waitingCount="6" stopTime="0.00" timeLoss="109.95" rerouteNo="0" devices="tripinfo_f_0_0.9" vType="type1" speedFactor="0.92" vaporized=""/>
    <tripinfo id="f_0_0.10" depart="137.00" departLane="np13_nt13_0" departPos="15.36" departSpeed="0.00" departDelay="0.64" arrival="335.00" arrivalLane="nt4_np5_0" arrivalPos="75.00" arrivalSpeed="20.41" duration="198.00" routeLength="1332.53" waitingTime="64.00" waitingCount="7" stopTime="0.00" timeLoss="108.32" rerouteNo="0" devices="tripinfo_f_0_0.10" vType="type1" speedFactor="1.03" vaporized=""/>
    <tripinfo id="f_0_3.11" depart="90.00" departLane="np3_nt3_0" departPos="1.60" departSpeed="0.00" departDelay="0.00" arrival="337.00" arrivalLane="nt14_np11_0" arrivalPos="75.00" arrivalSpeed="10.87" duration="247.00" routeLength="949.49" waitingTime="98.00" waitingCount="10" stopTime="0.00" timeLoss="171.33" rerouteNo="0" devices="tripinfo_f_0_3.11" vType="type1" speedFactor="1.05" vaporized=""/>
    <tripinfo id="f_0_1.7" depart="96.00" departLane="np16_nt1_0" departPos="35.57" departSpeed="0.00" departDelay="0.55" arrival="339.00" arrivalLane="nt16_np8_0" arrivalPos="75.00" arrivalSpeed="16.09" duration="243.00" routeLength="1312.31" waitingTime="59.00" waitingCount="11" stopTime="0.00" timeLoss="143.37" rerouteNo="0" devices="tripinfo_f_0_1.7" vType="type1" speedFactor="0.92" vaporized=""/>
    <tripinfo id="f_0_3.12" depart="102.00" departLane="np3_nt3_0" departPos="0.00" departSpeed="0.00" departDelay="3.82" arrival="340.00" arrivalLane="nt14_np11_0" arrivalPos="75.00" arrivalSpeed="10.38" duration="238.00" routeLength="951.09" waitingTime="96.00" waitingCount="9" stopTime="0.00" timeLoss="157.51" rerouteNo="0" devices="tripinfo_f_0_3.12" vType="type1" speedFactor="0.99" vaporized=""/>
    <tripinfo id="f_0_3.13" depart="107.00" departLane="np3_nt3_0" departPos="0.00" departSpeed="0.00" departDelay="0.63" arrival="342.00" arrivalLane="nt14_np11_0" arrivalPos="75.00" arrivalSpeed="10.74" duration="235.00" routeLength="951.09" waitingTime="87.00" waitingCount="9" stopTime="0.00" timeLoss="157.95" rerouteNo="0" devices="tripinfo_f_0_3.13" vType="type1" speedFactor="1.04" vaporized=""/>
    <tripinfo id="f_0_1.8" depart="110.00" departLane="np16_nt1_0" departPos="47.80" departSpeed="0.00" departDelay="0.91" arrival="342.00" arrivalLane="nt16_np8_0" arrivalPos="75.00" arrivalSpeed="20.12" duration="232.00" routeLength="1300.08" waitingTime="77.00" waitingCount="10" stopTime="0.00" timeLoss="146.39" rerouteNo="0" devices="tripinfo_f_0_1.8" vType="type1" speedFactor="1.06" vaporized=""/>
    <tripinfo id="f_0_1.9" depart="123.00" departLane="np16_nt1_0" departPos="11.46" departSpeed="0.00" departDelay="0.28" arrival="345.00" arrivalLane="nt16_np8_0" arrivalPos="75.00" arrivalSpeed="20.80" duration="222.00" routeLength="1336.42" waitingTime="71.00" waitingCount="8" stopTime="0.00" timeLoss="140.49" rerouteNo="0" devices="tripinfo_f_0_1.9" vType="type1" speedFactor="1.13" vaporized=""/>
    <tripinfo id="f_0_3.14" depart="115.00" departLane="np3_nt3_0" departPos="7.81" departSpeed="0.00" departDelay="0.45" arrival="347.00" arrivalLane="nt14_np11_0" arrivalPos="75.00" arrivalSpeed="7.62" duration="232.00" routeLength="943.28" waitingTime="73.00" waitingCount="8" stopTime="0.00" timeLoss="131.40" rerouteNo="0" devices="tripinfo_f_0_3.14" vType="type1" speedFactor="0.79" vaporized=""/>
    <tripinfo id="f_0_0.11" depart="150.00" departLane="np13_nt13_0" departPos="44.64" departSpeed="0.00" departDelay="0.00" arrival="348.00" arrivalLane="nt4_np5_0" arrivalPos="75.00" arrivalSpeed="19.83" duration="198.00" routeLength="1303.25" waitingTime="60.00" waitingCount="7" stopTime="0.00" timeLoss="115.89" rerouteNo="0" devices="tripinfo_f_0_0.11" vType="type1" speedFactor="1.11" vaporized=""/>
    <tripinfo id="f_0_3.15" depart="123.00" departLane="np3_nt3_0" departPos="0.00" departSpeed="0.00" departDelay="0.27" arrival="349.00" arrivalLane="nt14_np11_0" arrivalPos="75.00" arrivalSpeed="10.71" duration="226.00" routeLength="951.09" waitingTime="66.00" waitingCount="9" stopTime="0.00" timeLoss="153.60" rerouteNo="0" devices="tripinfo_f_0_3.15" vType="type1" speedFactor="1.11" vaporized=""/>
    <tripinfo id="f_0_3.16" depart="131.00" departLane="np3_nt3_0" departPos="0.00" departSpeed="0.00" departDelay="0.09" arrival="351.00" arrivalLane="nt14_np11_0" arrivalPos="75.00" arrivalSpeed="7.38" duration="220.00" routeLength="951.09" waitingTime="56.00" waitingCount="11" stopTime="0.00" timeLoss="129.55" rerouteNo="0" devices="tripinfo_f_0_3.16" vType="type1" speedFactor="0.88" vaporized=""/>
    <tripinfo id="f_0_2.18" depart="148.00" departLane="np2_nt2_0" departPos="61.70" departSpeed="0.00" departDelay="0.72" arrival="356.00" arrivalLane="nt15_np10_0" arrivalPos="75.00" arrivalSpeed="6.78" duration="208.00" routeLength="889.38" waitingTime="60.00" waitingCount="6" stopTime="0.00" timeLoss="109.17" rerouteNo="0" devices="tripinfo_f_0_2.18" vType="type1" speedFactor="0.76" vaporized=""/>
    <tripinfo id="f_0_0.12" depart="164.00" departLane="np13_nt13_0" departPos="27.33" departSpeed="0.00" departDelay="0.37" arrival="358.00" arrivalLane="nt4_np5_0" arrivalPos="75.00" arrivalSpeed="19.69" duration="194.00" routeLength="1320.56" waitingTime="60.00" waitingCount="8" stopTime="0.00" timeLoss="104.96" rerouteNo="0" devices="tripinfo_f_0_0.12" vType="type1" speedFactor="1.03" vaporized=""/>
    <tripinfo id="f_0_0.13" depart="178.00" departLane="np13_nt13_0" departPos="48.41" departSpeed="0.00" departDelay="0.73" arrival="360.00" arrivalLane="nt4_np5_0" arrivalPos="75.00" arrivalSpeed="21.60" duration="182.00" routeLength="1299.48" waitingTime="51.00" waitingCount="7" stopTime="0.00" timeLoss="103.93" rerouteNo="0" devices="tripinfo_f_0_0.13" vType="type1" speedFactor="1.17" vaporized=""/>
    <tripinfo id="f_0_3.17" depart="149.00" departLane="np3_nt3_0" departPos="0.00" departSpeed="0.00" departDelay="9.91" arrival="362.00" arrivalLane="nt14_np11_0" arrivalPos="75.00" arrivalSpeed="11.07" duration="213.00" routeLength="951.09" waitingTime="56.00" waitingCount="11" stopTime="0.00" timeLoss="142.63" rerouteNo="0" devices="tripinfo_f_0_3.17" vType="type1" speedFactor="1.15" vaporized=""/>
    <tripinfo id="f_0_0.14" depart="191.00" departLane="np13_nt13_0" departPos="3.58" departSpeed="0.00" departDelay="0.10" arrival="362.00" arrivalLane="nt4_np5_0" arrivalPos="75.00" arrivalSpeed="17.19" duration="171.00" routeLength="1344.31" waitingTime="17.00" waitingCount="5" stopTime="0.00" timeLoss="63.95" rerouteNo="0" devices="tripinfo_f_0_0.14" vType="type1" speedFactor="0.87" vaporized=""/>
    <tripinfo id="f_0_0.15" depart="205.00" departLane="np13_nt13_0" departPos="29.36" departSpeed="0.00" departDelay="0.46" arrival="364.00" arrivalLane="nt4_np5_0" arrivalPos="75.00" arrivalSpeed="21.92" duration="159.00" routeLength="1318.53" waitingTime="27.00" waitingCount="6" stopTime="0.00" timeLoss="79.18" rerouteNo="0" devices="tripinfo_f_0_0.15" vType="type1" speedFactor="1.15" vaporized=""/>
    <tripinfo id="f_0_0.16" depart="219.00" departLane="np13_nt13_0" departPos="6.63" departSpeed="0.00" departDelay="0.82" arrival="365.00" arrivalLane="nt4_np5_0" arrivalPos="75.00" arrivalSpeed="20.46" duration="146.00" routeLength="1341.26" waitingTime="21.00" waitingCount="4" stopTime="0.00" timeLoss="56.42" rerouteNo="0" devices="tripinfo_f_0_0.16" vType="type1" speedFactor="1.04" vaporized=""/>
    <tripinfo id="f_0_0.17" depart="232.00" departLane="np13_nt13_0" departPos="34.79" departSpeed="0.00" departDelay="0.19" arrival="368.00" arrivalLane="nt4_np5_0" arrivalPos="75.00" arrivalSpeed="18.43" duration="136.00" routeLength="1313.10" waitingTime="12.00" waitingCount="3" stopTime="0.00" timeLoss="45.08" rerouteNo="0" devices="tripinfo_f_0_0.17" vType="type1" speedFactor="1.01" vaporized=""/>
    <tripinfo id="f_0_3.18" depart="162.00" departLane="np3_nt3_0" departPos="0.00" departSpeed="0.00" departDelay="14.72" arrival="377.00" arrivalLane="nt14_np11_0" arrivalPos="75.00" arrivalSpeed="10.73" duration="215.00" routeLength="951.09" waitingTime="55.00" waitingCount="11" stopTime="0.00" timeLoss="137.99" rerouteNo="0" devices="tripinfo_f_0_3.18" vType="type1" speedFactor="1.04" vaporized=""/>
    <tripinfo id="f_0_0.18" depart="246.00" departLane="np13_nt13_0" departPos="0.69" departSpeed="0.00" departDelay="0.55" arrival="379.00" arrivalLane="nt4_np5_0" arrivalPos="75.00" arrivalSpeed="18.12" duration="133.00" routeLength="1347.20" waitingTime="5.00" waitingCount="2" stopTime="0.00" timeLoss="37.74" rerouteNo="0" devices="tripinfo_f_0_0.18" vType="type1" speedFactor="0.98" vaporized=""/>
    <tripinfo id="f_0_3.21" depart="192.00" departLane="np3_nt3_0" departPos="29.57" departSpeed="0.00" departDelay="20.18" arrival="392.00" arrivalLane="nt14_np11_0" arrivalPos="75.00" arrivalSpeed="7.48" duration="200.00" routeLength="921.52" waitingTime="43.00" waitingCount="8" stopTime="0.00" timeLoss="104.09" rerouteNo="0" devices="tripinfo_f_0_3.21" vType="type1" speedFactor="0.80" vaporized=""/>
    <tripinfo id="f_0_0.19" depart="260.00" departLane="np13_nt13_0" departPos="32.28" departSpeed="0.00" departDelay="0.92" arrival="397.00" arrivalLane="nt4_np5_0" arrivalPos="75.00" arrivalSpeed="21.86" duration="137.00" routeLength="1315.61" waitingTime="21.00" waitingCount="3" stopTime="0.00" timeLoss="56.13" rerouteNo="0" devices="tripinfo_f_0_0.19" vType="type1" speedFactor="1.13" vaporized=""/>
    <tripinfo id="f_0_0.20" depart="273.00" departLane="np13_nt13_0" departPos="15.23" departSpeed="0.00" departDelay="0.28" arrival="399.00" arrivalLane="nt4_np5_0" arrivalPos="75.00" arrivalSpeed="21.40" duration="126.00" routeLength="1332.66" waitingTime="14.00" waitingCount="3" stopTime="0.00" timeLoss="43.04" rerouteNo="0" devices="tripinfo_f_0_0.20" vType="type1" speedFactor="1.11" vaporized=""/>
    <tripinfo id="f_0_2.19" depart="156.00" departLane="np2_nt2_0" departPos="17.34" departSpeed="0.00" departDelay="0.54" arrival="402.00" arrivalLane="nt15_np10_0" arrivalPos="75.00" arrivalSpeed="11.21" duration="246.00" routeLength="933.74" waitingTime="111.00" waitingCount="10" stopTime="0.00" timeLoss="170.65" rerouteNo="0" devices="tripinfo_f_0_2.19" vType="type1" speedFactor="1.04" vaporized=""/>