<?xml version="1.0" encoding="UTF-8"?>

<!-- generated on 2023-08-23 16:16:43 by Eclipse SUMO libsumo Version 1.18.0
<configuration xmlns:xsi="http://www.w3.org/2001/XMLSchema-instance" xsi:noNamespaceSchemaLocation="http://sumo.dlr.de/xsd/libsumoConfiguration.xsd">

    <input>
        <net-file value="/home/stefan/RESCO/./environments/arterial4x4/arterial4x4.net.xml"/>
        <route-files value="/home/stefan/RESCO/./environments/arterial4x4/arterial4x4_33.rou.xml"/>
    </input>

    <output>
        <tripinfo-output value="/home/stefan/results/IDDQN-tr0-arterial4x4-0-drq_norm-wait_norm/tripinfo_33.xml"/>
        <tripinfo-output.write-unfinished value="true"/>
    </output>

    <processing>
        <time-to-teleport value="-1"/>
    </processing>

    <report>
        <no-warnings value="True"/>
        <no-step-log value="True"/>
    </report>

    <random_number>
        <random value="true"/>
    </random_number>

</configuration>
-->

<tripinfos xmlns:xsi="http://www.w3.org/2001/XMLSchema-instance" xsi:noNamespaceSchemaLocation="http://sumo.dlr.de/xsd/tripinfo_file.xsd">
    <tripinfo id="f_0_3.0" depart="0.00" departLane="np3_nt3_0" departPos="24.97" departSpeed="0.00" departDelay="0.00" arrival="127.00" arrivalLane="nt14_np11_0" arrivalPos="75.00" arrivalSpeed="10.01" duration="127.00" routeLength="926.12" waitingTime="30.00" waitingCount="4" stopTime="0.00" timeLoss="55.63" rerouteNo="0" devices="tripinfo_f_0_3.0" vType="type1" speedFactor="1.09" vaporized=""/>
    <tripinfo id="f_0_0.0" depart="0.00" departLane="np13_nt13_0" departPos="55.90" departSpeed="0.00" departDelay="0.00" arrival="138.00" arrivalLane="nt4_np5_0" arrivalPos="75.00" arrivalSpeed="22.09" duration="138.00" routeLength="1291.99" waitingTime="25.00" waitingCount="4" stopTime="0.00" timeLoss="59.96" rerouteNo="0" devices="tripinfo_f_0_0.0" vType="type1" speedFactor="1.15" vaporized=""/>
    <tripinfo id="f_0_2.0" depart="0.00" departLane="np2_nt2_0" departPos="40.08" departSpeed="0.00" departDelay="0.00" arrival="142.00" arrivalLane="nt15_np10_0" arrivalPos="75.00" arrivalSpeed="11.26" duration="142.00" routeLength="911.00" waitingTime="43.00" waitingCount="4" stopTime="0.00" timeLoss="68.03" rerouteNo="0" devices="tripinfo_f_0_2.0" vType="type1" speedFactor="1.04" vaporized=""/>
    <tripinfo id="f_0_3.1" depart="9.00" departLane="np3_nt3_0" departPos="10.44" departSpeed="0.00" departDelay="0.82" arrival="157.00" arrivalLane="nt14_np11_0" arrivalPos="75.00" arrivalSpeed="10.69" duration="148.00" routeLength="940.65" waitingTime="45.00" waitingCount="4" stopTime="0.00" timeLoss="68.17" rerouteNo="0" devices="tripinfo_f_0_3.1" vType="type1" speedFactor="0.99" vaporized=""/>
    <tripinfo id="f_0_3.2" depart="17.00" departLane="np3_nt3_0" departPos="8.45" departSpeed="0.00" departDelay="0.64" arrival="159.00" arrivalLane="nt14_np11_0" arrivalPos="75.00" arrivalSpeed="10.86" duration="142.00" routeLength="942.64" waitingTime="37.00" waitingCount="4" stopTime="0.00" timeLoss="74.67" rerouteNo="0" devices="tripinfo_f_0_3.2" vType="type1" speedFactor="1.17" vaporized=""/>
    <tripinfo id="f_0_0.1" depart="14.00" departLane="np13_nt13_0" departPos="54.77" departSpeed="0.00" departDelay="0.36" arrival="183.00" arrivalLane="nt4_np5_0" arrivalPos="75.00" arrivalSpeed="20.12" duration="169.00" routeLength="1293.12" waitingTime="48.00" waitingCount="8" stopTime="0.00" timeLoss="86.77" rerouteNo="0" devices="tripinfo_f_0_0.1" vType="type1" speedFactor="1.09" vaporized=""/>
    <tripinfo id="f_0_0.2" depart="28.00" departLane="np13_nt13_0" departPos="44.43" departSpeed="0.00" departDelay="0.73" arrival="185.00" arrivalLane="nt4_np5_0" arrivalPos="75.00" arrivalSpeed="19.05" duration="157.00" routeLength="1303.46" waitingTime="29.00" waitingCount="5" stopTime="0.00" timeLoss="62.58" rerouteNo="0" devices="tripinfo_f_0_0.2" vType="type1" speedFactor="0.97" vaporized=""/>
    <tripinfo id="f_0_2.1" depart="9.00" departLane="np2_nt2_0" departPos="63.24" departSpeed="0.00" departDelay="0.82" arrival="187.00" arrivalLane="nt15_np10_0" arrivalPos="75.00" arrivalSpeed="8.58" duration="178.00" routeLength="887.84" waitingTime="68.00" waitingCount="5" stopTime="0.00" timeLoss="91.59" rerouteNo="0" devices="tripinfo_f_0_2.1" vType="type1" speedFactor="0.86" vaporized=""/>
    <tripinfo id="f_0_2.2" depart="17.00" departLane="np2_nt2_0" departPos="45.96" departSpeed="0.00" departDelay="0.64" arrival="198.00" arrivalLane="nt15_np10_0" arrivalPos="75.00" arrivalSpeed="8.92" duration="181.00" routeLength="905.12" waitingTime="69.00" waitingCount="7" stopTime="0.00" timeLoss="100.00" rerouteNo="0" devices="tripinfo_f_0_2.2" vType="type1" speedFactor="0.94" vaporized=""/>
    <tripinfo id="f_0_2.3" depart="25.00" departLane="np2_nt2_0" departPos="10.28" departSpeed="0.00" departDelay="0.45" arrival="206.00" arrivalLane="nt15_np10_0" arrivalPos="75.00" arrivalSpeed="11.28" duration="181.00" routeLength="940.80" waitingTime="60.00" waitingCount="8" stopTime="0.00" timeLoss="107.10" rerouteNo="0" devices="tripinfo_f_0_2.3" vType="type1" speedFactor="1.07" vaporized=""/>
    <tripinfo id="f_0_0.3" depart="41.00" departLane="np13_nt13_0" departPos="29.22" departSpeed="0.00" departDelay="0.09" arrival="208.00" arrivalLane="nt4_np5_0" arrivalPos="75.00" arrivalSpeed="18.80" duration="167.00" routeLength="1318.67" waitingTime="43.00" waitingCount="4" stopTime="0.00" timeLoss="75.16" rerouteNo="0" devices="tripinfo_f_0_0.3" vType="type1" speedFactor="0.99" vaporized=""/>
    <tripinfo id="f_0_0.4" depart="55.00" departLane="np13_nt13_0" departPos="3.30" departSpeed="0.00" departDelay="0.46" arrival="210.00" arrivalLane="nt4_np5_0" arrivalPos="75.00" arrivalSpeed="17.38" duration="155.00" routeLength="1344.59" waitingTime="24.00" waitingCount="5" stopTime="0.00" timeLoss="57.53" rerouteNo="0" devices="tripinfo_f_0_0.4" vType="type1" speedFactor="0.96" vaporized=""/>
    <tripinfo id="f_0_3.3" depart="25.00" departLane="np3_nt3_0" departPos="6.74" departSpeed="0.00" departDelay="0.45" arrival="216.00" arrivalLane="nt14_np11_0" arrivalPos="75.00" arrivalSpeed="10.99" duration="191.00" routeLength="944.35" waitingTime="84.00" waitingCount="3" stopTime="0.00" timeLoss="120.82" rerouteNo="0" devices="tripinfo_f_0_3.3" vType="type1" speedFactor="1.14" vaporized=""/>
    <tripinfo id="f_0_0.5" depart="69.00" departLane="np13_nt13_0" departPos="53.04" departSpeed="0.00" departDelay="0.82" arrival="223.00" arrivalLane="nt4_np5_0" arrivalPos="75.00" arrivalSpeed="19.45" duration="154.00" routeLength="1294.85" waitingTime="29.00" waitingCount="5" stopTime="0.00" timeLoss="66.19" rerouteNo="0" devices="tripinfo_f_0_0.5" vType="type1" speedFactor="1.04" vaporized=""/>
    <tripinfo id="f_0_3.4" depart="33.00" departLane="np3_nt3_0" departPos="34.26" departSpeed="0.00" departDelay="0.27" arrival="236.00" arrivalLane="nt14_np11_0" arrivalPos="75.00" arrivalSpeed="11.01" duration="203.00" routeLength="916.83" waitingTime="97.00" waitingCount="6" stopTime="0.00" timeLoss="132.14" rerouteNo="0" devices="tripinfo_f_0_3.4" vType="type1" speedFactor="1.08" vaporized=""/>
    <tripinfo id="f_0_1.0" depart="0.00" departLane="np16_nt1_0" departPos="63.14" departSpeed="0.00" departDelay="0.00" arrival="238.00" arrivalLane="nt16_np8_0" arrivalPos="75.00" arrivalSpeed="21.79" duration="238.00" routeLength="1284.74" waitingTime="107.00" waitingCount="6" stopTime="0.00" timeLoss="157.12" rerouteNo="0" devices="tripinfo_f_0_1.0" vType="type1" speedFactor="1.11" vaporized=""/>
    <tripinfo id="f_0_3.5" depart="41.00" departLane="np3_nt3_0" departPos="46.46" departSpeed="0.00" departDelay="0.09" arrival="253.00" arrivalLane="nt14_np11_0" arrivalPos="75.00" arrivalSpeed="10.60" duration="212.00" routeLength="904.63" waitingTime="101.00" waitingCount="7" stopTime="0.00" timeLoss="133.60" rerouteNo="0" devices="tripinfo_f_0_3.5" vType="type1" speedFactor="0.97" vaporized=""/>
    <tripinfo id="f_0_3.6" depart="50.00" departLane="np3_nt3_0" departPos="9.24" departSpeed="0.00" departDelay="0.91" arrival="255.00" arrivalLane="nt14_np11_0" arrivalPos="75.00" arrivalSpeed="9.93" duration="205.00" routeLength="941.85" waitingTime="85.00" waitingCount="6" stopTime="0.00" timeLoss="123.31" rerouteNo="0" devices="tripinfo_f_0_3.6" vType="type1" speedFactor="0.97" vaporized=""/>
    <tripinfo id="f_0_2.4" depart="33.00" departLane="np2_nt2_0" departPos="12.78" departSpeed="0.00" departDelay="0.27" arrival="257.00" arrivalLane="nt15_np10_0" arrivalPos="75.00" arrivalSpeed="10.87" duration="224.00" routeLength="938.30" waitingTime="92.00" waitingCount="10" stopTime="0.00" timeLoss="148.84" rerouteNo="0" devices="tripinfo_f_0_2.4" vType="type1" speedFactor="1.06" vaporized=""/>
    <tripinfo id="f_0_3.7" depart="58.00" departLane="np3_nt3_0" departPos="26.26" departSpeed="0.00" departDelay="0.73" arrival="257.00" arrivalLane="nt14_np11_0" arrivalPos="75.00" arrivalSpeed="8.50" duration="199.00" routeLength="924.83" waitingTime="77.00" waitingCount="7" stopTime="0.00" timeLoss="120.23" rerouteNo="0" devices="tripinfo_f_0_3.7" vType="type1" speedFactor="1.00" vaporized=""/>
    <tripinfo id="f_0_3.8" depart="66.00" departLane="np3_nt3_0" departPos="17.40" departSpeed="0.00" departDelay="0.54" arrival="258.00" arrivalLane="nt14_np11_0" arrivalPos="75.00" arrivalSpeed="13.57" duration="192.00" routeLength="933.69" waitingTime="74.00" waitingCount="6" stopTime="0.00" timeLoss="129.40" rerouteNo="0" devices="tripinfo_f_0_3.8" vType="type1" speedFactor="1.25" vaporized=""/>
    <tripinfo id="f_0_3.9" depart="74.00" departLane="np3_nt3_0" departPos="22.65" departSpeed="0.00" departDelay="0.36" arrival="260.00" arrivalLane="nt14_np11_0" arrivalPos="75.00" arrivalSpeed="11.97" duration="186.00" routeLength="928.44" waitingTime="67.00" waitingCount="7" stopTime="0.00" timeLoss="117.87" rerouteNo="0" devices="tripinfo_f_0_3.9" vType="type1" speedFactor="1.14" vaporized=""/>
    <tripinfo id="f_0_3.10" depart="82.00" departLane="np3_nt3_0" departPos="1.49" departSpeed="0.00" departDelay="0.18" arrival="264.00" arrivalLane="nt14_np11_0" arrivalPos="75.00" arrivalSpeed="7.46" duration="182.00" routeLength="949.60" waitingTime="45.00" waitingCount="8" stopTime="0.00" timeLoss="91.75" rerouteNo="0" devices="tripinfo_f_0_3.10" vType="type1" speedFactor="0.88" vaporized=""/>
    <tripinfo id="f_0_1.1" depart="14.00" departLane="np16_nt1_0" departPos="43.27" departSpeed="0.00" departDelay="0.36" arrival="273.00" arrivalLane="nt16_np8_0" arrivalPos="75.00" arrivalSpeed="20.28" duration="259.00" routeLength="1304.61" waitingTime="99.00" waitingCount="10" stopTime="0.00" timeLoss="170.56" rerouteNo="0" devices="tripinfo_f_0_1.1" vType="type1" speedFactor="1.03" vaporized=""/>
    <tripinfo id="f_0_0.6" depart="82.00" departLane="np13_nt13_0" departPos="22.76" departSpeed="0.00" departDelay="0.18" arrival="274.00" arrivalLane="nt4_np5_0" arrivalPos="75.00" arrivalSpeed="17.37" duration="192.00" routeLength="1325.13" waitingTime="68.00" waitingCount="4" stopTime="0.00" timeLoss="96.45" rerouteNo="0" devices="tripinfo_f_0_0.6" vType="type1" speedFactor="0.97" vaporized=""/>
    <tripinfo id="f_0_1.2" depart="28.00" departLane="np16_nt1_0" departPos="19.34" departSpeed="0.00" departDelay="0.73" arrival="276.00" arrivalLane="nt16_np8_0" arrivalPos="75.00" arrivalSpeed="14.81" duration="248.00" routeLength="1328.54" waitingTime="69.00" waitingCount="5" stopTime="0.00" timeLoss="131.38" rerouteNo="0" devices="tripinfo_f_0_1.2" vType="type1" speedFactor="0.79" vaporized=""/>
    <tripinfo id="f_0_3.11" depart="90.00" departLane="np3_nt3_0" departPos="10.63" departSpeed="0.00" departDelay="0.00" arrival="282.00" arrivalLane="nt14_np11_0" arrivalPos="75.00" arrivalSpeed="10.18" duration="192.00" routeLength="940.46" waitingTime="76.00" waitingCount="7" stopTime="0.00" timeLoss="116.76" rerouteNo="0" devices="tripinfo_f_0_3.11" vType="type1" speedFactor="1.06" vaporized=""/>
    <tripinfo id="f_0_0.7" depart="96.00" departLane="np13_nt13_0" departPos="37.21" departSpeed="0.00" departDelay="0.55" arrival="282.00" arrivalLane="nt4_np5_0" arrivalPos="75.00" arrivalSpeed="18.76" duration="186.00" routeLength="1310.68" waitingTime="51.00" waitingCount="7" stopTime="0.00" timeLoss="92.43" rerouteNo="0" devices="tripinfo_f_0_0.7" vType="type1" speedFactor="0.98" vaporized=""/>
    <tripinfo id="f_0_3.12" depart="99.00" departLane="np3_nt3_0" departPos="23.75" departSpeed="0.00" departDelay="0.82" arrival="286.00" arrivalLane="nt14_np11_0" arrivalPos="75.00" arrivalSpeed="7.96" duration="187.00" routeLength="927.34" waitingTime="62.00" waitingCount="4" stopTime="0.00" timeLoss="96.86" rerouteNo="0" devices="tripinfo_f_0_3.12" vType="type1" speedFactor="0.86" vaporized=""/>
    <tripinfo id="f_0_3.13" depart="107.00" departLane="np3_nt3_0" departPos="8.60" departSpeed="0.00" departDelay="0.63" arrival="288.00" arrivalLane="nt14_np11_0" arrivalPos="75.00" arrivalSpeed="10.03" duration="181.00" routeLength="942.49" waitingTime="57.00" waitingCount="5" stopTime="0.00" timeLoss="104.20" rerouteNo="0" devices="tripinfo_f_0_3.13" vType="type1" speedFactor="1.03" vaporized=""/>
    <tripinfo id="f_0_2.5" depart="41.00" departLane="np2_nt2_0" departPos="43.54" departSpeed="0.00" departDelay="0.09" arrival="289.00" arrivalLane="nt15_np10_0" arrivalPos="75.00" arrivalSpeed="8.24" duration="248.00" routeLength="907.54" waitingTime="84.00" waitingCount="8" stopTime="0.00" timeLoss="162.08" rerouteNo="0" devices="tripinfo_f_0_2.5" vType="type1" speedFactor="0.89" vaporized=""/>
    <tripinfo id="f_0_3.14" depart="115.00" departLane="np3_nt3_0" departPos="22.30" departSpeed="0.00" departDelay="0.45" arrival="290.00" arrivalLane="nt14_np11_0" arrivalPos="75.00" arrivalSpeed="9.05" duration="175.00" routeLength="928.79" waitingTime="47.00" waitingCount="5" stopTime="0.00" timeLoss="81.63" rerouteNo="0" devices="tripinfo_f_0_3.14" vType="type1" speedFactor="0.83" vaporized=""/>
    <tripinfo id="f_0_2.6" depart="50.00" departLane="np2_nt2_0" departPos="52.12" departSpeed="0.00" departDelay="0.91" arrival="291.00" arrivalLane="nt15_np10_0" arrivalPos="75.00" arrivalSpeed="10.30" duration="241.00" routeLength="898.96" waitingTime="96.00" waitingCount="10" stopTime="0.00" timeLoss="170.11" rerouteNo="0" devices="tripinfo_f_0_2.6" vType="type1" speedFactor="1.06" vaporized=""/>
    <tripinfo id="f_0_2.7" depart="58.00" departLane="np2_nt2_0" departPos="43.19" departSpeed="0.00" departDelay="0.73" arrival="293.00" arrivalLane="nt15_np10_0" arrivalPos="75.00" arrivalSpeed="9.82" duration="235.00" routeLength="907.89" waitingTime="81.00" waitingCount="9" stopTime="0.00" timeLoss="150.01" rerouteNo="0" devices="tripinfo_f_0_2.7" vType="type1" speedFactor="0.90" vaporized=""/>
    <tripinfo id="f_0_3.15" depart="123.00" departLane="np3_nt3_0" departPos="20.55" departSpeed="0.00" departDelay="0.27" arrival="302.00" arrivalLane="nt14_np11_0" arrivalPos="75.00" arrivalSpeed="9.66" duration="179.00" routeLength="930.54" waitingTime="59.00" waitingCount="5" stopTime="0.00" timeLoss="102.09" rerouteNo="0" devices="tripinfo_f_0_3.15" vType="type1" speedFactor="1.01" vaporized=""/>
    <tripinfo id="f_0_2.8" depart="66.00" departLane="np2_nt2_0" departPos="39.30" departSpeed="0.00" departDelay="0.54" arrival="304.00" arrivalLane="nt15_np10_0" arrivalPos="75.00" arrivalSpeed="10.38" duration="238.00" routeLength="911.78" waitingTime="71.00" waitingCount="7" stopTime="0.00" timeLoss="160.75" rerouteNo="0" devices="tripinfo_f_0_2.8" vType="type1" speedFactor="0.98" vaporized=""/>
    <tripinfo id="f_0_3.16" depart="131.00" departLane="np3_nt3_0" departPos="14.03" departSpeed="0.00" departDelay="0.09" arrival="304.00" arrivalLane="nt14_np11_0" arrivalPos="75.00" arrivalSpeed="10.10" duration="173.00" routeLength="937.06" waitingTime="56.00" waitingCount="5" stopTime="0.00" timeLoss="101.56" rerouteNo="0" devices="tripinfo_f_0_3.16" vType="type1" speedFactor="1.10" vaporized=""/>
    <tripinfo id="f_0_0.8" depart="110.00" departLane="np13_nt13_0" departPos="34.65" departSpeed="0.00" departDelay="0.91" arrival="305.00" arrivalLane="nt4_np5_0" arrivalPos="75.00" arrivalSpeed="21.15" duration="195.00" routeLength="1313.24" waitingTime="56.00" waitingCount="7" stopTime="0.00" timeLoss="108.68" rerouteNo="0" devices="tripinfo_f_0_0.8" vType="type1" speedFactor="1.06" vaporized=""/>
    <tripinfo id="f_0_1.3" depart="41.00" departLane="np16_nt1_0" departPos="4.87" departSpeed="0.00" departDelay="0.09" arrival="309.00" arrivalLane="nt16_np8_0" arrivalPos="75.00" arrivalSpeed="17.56" duration="268.00" routeLength="1343.01" waitingTime="89.00" waitingCount="11" stopTime="0.00" timeLoss="174.33" rerouteNo="0" devices="tripinfo_f_0_1.3" vType="type1" speedFactor="1.00" vaporized=""/>
    <tripinfo id="f_0_1.4" depart="55.00" departLane="np16_nt1_0" departPos="34.11" departSpeed="0.00" departDelay="0.46" arrival="311.00" arrivalLane="nt16_np8_0" arrivalPos="75.00" arrivalSpeed="18.51" duration="256.00" routeLength="1313.77" waitingTime="74.00" waitingCount="10" stopTime="0.00" timeLoss="158.31" rerouteNo="0" devices="tripinfo_f_0_1.4" vType="type1" speedFactor="0.94" vaporized=""/>
    <tripinfo id="f_0_2.9" depart="74.00" departLane="np2_nt2_0" departPos="2.57" departSpeed="0.00" departDelay="0.36" arrival="311.00" arrivalLane="nt15_np10_0" arrivalPos="75.00" arrivalSpeed="11.73" duration="237.00" routeLength="948.51" waitingTime="69.00" waitingCount="8" stopTime="0.00" timeLoss="165.90" rerouteNo="0" devices="tripinfo_f_0_2.9" vType="type1" speedFactor="1.12" vaporized=""/>
    <tripinfo id="f_0_3.17" depart="140.00" departLane="np3_nt3_0" departPos="1.42" departSpeed="0.00" departDelay="0.91" arrival="312.00" arrivalLane="nt14_np11_0" arrivalPos="75.00" arrivalSpeed="8.59" duration="172.00" routeLength="949.67" waitingTime="39.00" waitingCount="7" stopTime="0.00" timeLoss="92.36" rerouteNo="0" devices="tripinfo_f_0_3.17" vType="type1" speedFactor="1.00" vaporized=""/>
    <tripinfo id="f_0_2.10" depart="82.00" departLane="np2_nt2_0" departPos="3.75" departSpeed="0.00" departDelay="0.18" arrival="313.00" arrivalLane="nt15_np10_0" arrivalPos="75.00" arrivalSpeed="10.78" duration="231.00" routeLength="947.33" waitingTime="60.00" waitingCount="7" stopTime="0.00" timeLoss="163.03" rerouteNo="0" devices="tripinfo_f_0_2.10" vType="type1" speedFactor="1.17" vaporized=""/>
    <tripinfo id="f_0_0.9" depart="123.00" departLane="np13_nt13_0" departPos="9.11" departSpeed="0.00" departDelay="0.28" arrival="315.00" arrivalLane="nt4_np5_0" arrivalPos="75.00" arrivalSpeed="18.64" duration="192.00" routeLength="1338.78" waitingTime="55.00" waitingCount="6" stopTime="0.00" timeLoss="99.47" rerouteNo="0" devices="tripinfo_f_0_0.9" vType="type1" speedFactor="1.00" vaporized=""/>
    <tripinfo id="f_0_2.11" depart="90.00" departLane="np2_nt2_0" departPos="43.62" departSpeed="0.00" departDelay="0.00" arrival="319.00" arrivalLane="nt15_np10_0" arrivalPos="75.00" arrivalSpeed="8.88" duration="229.00" routeLength="907.46" waitingTime="60.00" waitingCount="6" stopTime="0.00" timeLoss="136.91" rerouteNo="0" devices="tripinfo_f_0_2.11" vType="type1" speedFactor="0.83" vaporized=""/>
    <tripinfo id="f_0_2.12" depart="99.00" departLane="np2_nt2_0" departPos="35.43" departSpeed="0.00" departDelay="0.82" arrival="321.00" arrivalLane="nt15_np10_0" arrivalPos="75.00" arrivalSpeed="8.22" duration="222.00" routeLength="915.65" waitingTime="75.00" waitingCount="7" stopTime="0.00" timeLoss="139.97" rerouteNo="0" devices="tripinfo_f_0_2.12" vType="type1" speedFactor="0.93" vaporized=""/>
    <tripinfo id="f_0_3.18" depart="148.00" departLane="np3_nt3_0" departPos="5.03" departSpeed="0.00" departDelay="0.72" arrival="322.00" arrivalLane="nt14_np11_0" arrivalPos="75.00" arrivalSpeed="9.13" duration="174.00" routeLength="946.06" waitingTime="46.00" waitingCount="8" stopTime="0.00" timeLoss="98.45" rerouteNo="0" devices="tripinfo_f_0_3.18" vType="type1" speedFactor="1.05" vaporized=""/>
    <tripinfo id="f_0_2.13" depart="107.00" departLane="np2_nt2_0" departPos="31.56" departSpeed="0.00" departDelay="0.63" arrival="323.00" arrivalLane="nt15_np10_0" arrivalPos="75.00" arrivalSpeed="9.93" duration="216.00" routeLength="919.52" waitingTime="69.00" waitingCount="6" stopTime="0.00" timeLoss="131.80" rerouteNo="0" devices="tripinfo_f_0_2.13" vType="type1" speedFactor="0.92" vaporized=""/>
    <tripinfo id="f_0_3.19" depart="156.00" departLane="np3_nt3_0" departPos="2.62" departSpeed="0.00" departDelay="0.54" arrival="324.00" arrivalLane="nt14_np11_0" arrivalPos="75.00" arrivalSpeed="9.06" duration="168.00" routeLength="948.47" waitingTime="36.00" waitingCount="8" stopTime="0.00" timeLoss="88.77" rerouteNo="0" devices="tripinfo_f_0_3.19" vType="type1" speedFactor="1.00" vaporized=""/>
    <tripinfo id="f_0_2.14" depart="115.00" departLane="np2_nt2_0" departPos="25.11" departSpeed="0.00" departDelay="0.45" arrival="325.00" arrivalLane="nt15_np10_0" arrivalPos="75.00" arrivalSpeed="9.54" duration="210.00" routeLength="925.97" waitingTime="65.00" waitingCount="6" stopTime="0.00" timeLoss="133.13" rerouteNo="0" devices="tripinfo_f_0_2.14" vType="type1" speedFactor="1.02" vaporized=""/>
    <tripinfo id="f_0_3.20" depart="164.00" departLane="np3_nt3_0" departPos="3.38" departSpeed="0.00" departDelay="0.36" arrival="337.00" arrivalLane="nt14_np11_0" arrivalPos="75.00" arrivalSpeed="9.15" duration="173.00" routeLength="947.71" waitingTime="51.00" waitingCount="5" stopTime="0.00" timeLoss="90.83" rerouteNo="0" devices="tripinfo_f_0_3.20" vType="type1" speedFactor="0.97" vaporized=""/>
    <tripinfo id="f_0_1.5" depart="69.00" departLane="np16_nt1_0" departPos="40.02" departSpeed="0.00" departDelay="0.82" arrival="343.00" arrivalLane="nt16_np8_0" arrivalPos="75.00" arrivalSpeed="17.88" duration="274.00" routeLength="1307.86" waitingTime="99.00" waitingCount="10" stopTime="0.00" timeLoss="172.51" rerouteNo="0" devices="tripinfo_f_0_1.5" vType="type1" speedFactor="0.90" vaporized=""/>
    <tripinfo id="f_0_1.6" depart="82.00" departLane="np16_nt1_0" departPos="32.48" departSpeed="0.00" departDelay="0.18" arrival="345.00" arrivalLane="nt16_np8_0" arrivalPos="75.00" arrivalSpeed="18.78" duration="263.00" routeLength="1315.40" waitingTime="101.00" waitingCount="8" stopTime="0.00" timeLoss="165.94" rerouteNo="0" devices="tripinfo_f_0_1.6" vType="type1" speedFactor="0.95" vaporized=""/>
    <tripinfo id="f_0_1.7" depart="96.00" departLane="np16_nt1_0" departPos="45.43" departSpeed="0.00" departDelay="0.55" arrival="350.00" arrivalLane="nt16_np8_0" arrivalPos="75.00" arrivalSpeed="17.86" duration="254.00" routeLength="1302.45" waitingTime="102.00" waitingCount="8" stopTime="0.00" timeLoss="163.17" rerouteNo="0" devices="tripinfo_f_0_1.7" vType="type1" speedFactor="1.00" vaporized=""/>
    <tripinfo id="f_0_1.15" depart="205.00" departLane="np16_nt1_0" departPos="15.85" departSpeed="0.00" departDelay="0.46" arrival="357.00" arrivalLane="nt16_np8_0" arrivalPos="75.00" arrivalSpeed="20.28" duration="152.00" routeLength="1332.03" waitingTime="33.00" waitingCount="4" stopTime="0.00" timeLoss="65.39" rerouteNo="0" devices="tripinfo_f_0_1.15" vType="type1" speedFactor="1.06" vaporized=""/>
    <tripinfo id="f_0_0.10" depart="137.00" departLane="np13_nt13_0" departPos="9.36" departSpeed="0.00" departDelay="0.64" arrival="359.00" arrivalLane="nt4_np5_0" arrivalPos="75.00" arrivalSpeed="19.61" duration="222.00" routeLength="1338.53" waitingTime="83.00" waitingCount="6" stopTime="0.00" timeLoss="132.80" rerouteNo="0" devices="tripinfo_f_0_0.10" vType="type1" speedFactor="1.04" vaporized=""/>
    <tripinfo id="f_0_3.21" depart="172.00" departLane="np3_nt3_0" departPos="31.47" departSpeed="0.00" departDelay="0.18" arrival="361.00" arrivalLane="nt14_np11_0" arrivalPos="75.00" arrivalSpeed="11.44" duration="189.00" routeLength="919.62" waitingTime="76.00" waitingCount="6" stopTime="0.00" timeLoss="116.89" rerouteNo="0" devices="tripinfo_f_0_3.21" vType="type1" speedFactor="1.06" vaporized=""/>
    <tripinfo id="f_0_2.15" depart="123.00" departLane="np2_nt2_0" departPos="2.86" departSpeed="0.00" departDelay="0.27" arrival="367.00" arrivalLane="nt15_np10_0" arrivalPos="75.00" arrivalSpeed="10.82" duration="244.00" routeLength="948.22" waitingTime="88.00" waitingCount="5" stopTime="0.00" timeLoss="164.51" rerouteNo="0" devices="tripinfo_f_0_2.15" vType="type1" speedFactor="0.99" vaporized=""/>
    <tripinfo id="f_0_0.11" depart="150.00" departLane="np13_nt13_0" departPos="38.80" departSpeed="0.00" departDelay="0.00" arrival="368.00" arrivalLane="nt4_np5_0" arrivalPos="75.00" arrivalSpeed="19.55" duration="218.00" routeLength="1309.09" waitingTime="71.00" waitingCount="7" stopTime="0.00" timeLoss="130.52" rerouteNo="0" devices="tripinfo_f_0_0.11" vType="type1" speedFactor="1.04" vaporized=""/>
    <tripinfo id="f_0_2.16" depart="131.00" departLane="np2_nt2_0" departPos="26.88" departSpeed="0.00" departDelay="0.09" arrival="370.00" arrivalLane="nt15_np10_0" arrivalPos="75.00" arrivalSpeed="7.93" duration="239.00" routeLength="924.20" waitingTime="83.00" waitingCount="7" stopTime="0.00" timeLoss="155.17" rerouteNo="0" devices="tripinfo_f_0_2.16" vType="type1" speedFactor="0.92" vaporized=""/>
    <tripinfo id="f_0_2.17" depart="140.00" departLane="np2_nt2_0" departPos="6.99" departSpeed="0.00" departDelay="0.91" arrival="372.00" arrivalLane="nt15_np10_0" arrivalPos="75.00" arrivalSpeed="11.78" duration="232.00" routeLength="944.09" waitingTime="72.00" waitingCount="5" stopTime="0.00" timeLoss="160.61" rerouteNo="0" devices="tripinfo_f_0_2.17" vType="type1" speedFactor="1.12" vaporized=""/>
    <tripinfo id="f_0_1.8" depart="110.00" departLane="np16_nt1_0" departPos="2.05" departSpeed="0.00" departDelay="0.91" arrival="373.00" arrivalLane="nt16_np8_0" arrivalPos="75.00" arrivalSpeed="20.38" duration="263.00" routeLength="1345.83" waitingTime="103.00" waitingCount="9" stopTime="0.00" timeLoss="176.99" rerouteNo="0" devices="tripinfo_f_0_1.8" vType="type1" speedFactor="1.08" vaporized=""/>
    <tripinfo id="f_0_2.18" depart="148.00" departLane="np2_nt2_0" departPos="45.52" departSpeed="0.00" departDelay="0.72" arrival="380.00" arrivalLane="nt15_np10_0" arrivalPos="75.00" arrivalSpeed="8.91" duration="232.00" routeLength="905.56" waitingTime="80.00" waitingCount="7" stopTime="0.00" timeLoss="141.66" rerouteNo="0" devices="tripinfo_f_0_2.18" vType="type1" speedFactor="0.85" vaporized=""/>
    <tripinfo id="f_0_0.12" depart="164.00" departLane="np13_nt13_0" departPos="23.46" departSpeed="0.00" departDelay="0.37" arrival="382.00" arrivalLane="nt4_np5_0" arrivalPos="75.00" arrivalSpeed="16.72" duration="218.00" routeLength="1324.43" waitingTime="81.00" waitingCount="6" stopTime="0.00" timeLoss="118.16" rerouteNo="0" devices="tripinfo_f_0_0.12" vType="type1" speedFactor="0.92" vaporized=""/>
    <tripinfo id="f_0_0.13" depart="178.00" departLane="np13_nt13_0" departPos="10.62" departSpeed="0.00" departDelay="0.73" arrival="383.00" arrivalLane="nt4_np5_0" arrivalPos="75.00" arrivalSpeed="23.77" duration="205.00" routeLength="1337.27" waitingTime="83.00" waitingCount="6" stopTime="0.00" timeLoss="127.54" rerouteNo="0" devices="tripinfo_f_0_0.13" vType="type1" speedFactor="1.19" vaporized=""/>
    <tripinfo id="f_0_1.9" depart="123.00" departLane="np16_nt1_0" departPos="13.31" departSpeed="0.00" departDelay="0.28" arrival="388.00" arrivalLane="nt16_np8_0" arrivalPos="75.00" arrivalSpeed="19.78" duration="265.00" routeLength="1334.57" waitingTime="100.00" waitingCount="10" stopTime="0.00" timeLoss="175.98" rerouteNo="0" devices="tripinfo_f_0_1.9" vType="type1" speedFactor="1.05" vaporized=""/>
    <tripinfo id="f_0_2.19" depart="156.00" departLane="np2_nt2_0" departPos="49.03" departSpeed="0.00" departDelay="0.54" arrival="388.00" arrivalLane="nt15_np10_0" arrivalPos="75.00" arrivalSpeed="10.41" duration="232.00" routeLength="902.05" waitingTime="89.00" waitingCount="5" stopTime="0.00" timeLoss="153.76" rerouteNo="0" devices="tripinfo_f_0_2.19" vType="type1" speedFactor="0.97" vaporized=""/>
    <tripinfo id="f_0_0.14" depart="191.00" departLane="np13_nt13_0" departPos="13.94" departSpeed="0.00" departDelay="0.10" arrival="394.00" arrivalLane="nt4_np5_0" arrivalPos="75.00" arrivalSpeed="16.80" duration="203.00" routeLength="1333.95" waitingTime="59.00" waitingCount="5" stopTime="0.00" timeLoss="99.08" rerouteNo="0" devices="tripinfo_f_0_0.14" vType="type1" speedFactor="0.89" vaporized=""/>
    <tripinfo id="f_0_0.15" depart="205.00" departLane="np13_nt13_0" departPos="18.54" departSpeed="0.00" departDelay="0.46" arrival="395.00" arrivalLane="nt4_np5_0" arrivalPos="75.00" arrivalSpeed="18.41" duration="190.00" routeLength="1329.35" waitingTime="48.00" waitingCount="3" stopTime="0.00" timeLoss="102.47" rerouteNo="0" devices="tripinfo_f_0_0.15" vType="type1" speedFactor="1.05" vaporized=""/>
    <tripinfo id="f_0_2.20" depart="164.00" departLane="np2_nt2_0" departPos="52.29" departSpeed="0.00" departDelay="0.36" arrival="397.00" arrivalLane="nt15_np10_0" arrivalPos="75.00" arrivalSpeed="9.25" duration="233.00" routeLength="898.79" waitingTime="89.00" waitingCount="7" stopTime="0.00" timeLoss="160.83" rerouteNo="0" devices="tripinfo_f_0_2.20" vType="type1" speedFactor="1.04" vaporized=""/>
    <tripinfo id="f_0_0.16" depart="219.00" departLane="np13_nt13_0" departPos="25.30" departSpeed="0.00" departDelay="0.82" arrival="397.00" arrivalLane="nt4_np5_0" arrivalPos="75.00" arrivalSpeed="17.85" duration="178.00" routeLength="1322.59" waitingTime="39.00" waitingCount="5" stopTime="0.00" timeLoss="82.19" rerouteNo="0" devices="tripinfo_f_0_0.16" vType="type1" speedFactor="0.96" vaporized=""/>