<?xml version="1.0" encoding="UTF-8"?>

<!-- generated on 2023-08-23 16:25:52 by Eclipse SUMO libsumo Version 1.18.0
<configuration xmlns:xsi="http://www.w3.org/2001/XMLSchema-instance" xsi:noNamespaceSchemaLocation="http://sumo.dlr.de/xsd/libsumoConfiguration.xsd">

    <input>
        <net-file value="/home/stefan/RESCO/./environments/arterial4x4/arterial4x4.net.xml"/>
        <route-files value="/home/stefan/RESCO/./environments/arterial4x4/arterial4x4_44.rou.xml"/>
    </input>

    <output>
        <tripinfo-output value="/home/stefan/results/IDDQN-tr0-arterial4x4-0-drq_norm-wait_norm/tripinfo_44.xml"/>
        <tripinfo-output.write-unfinished value="true"/>
    </output>

    <processing>
        <time-to-teleport value="-1"/>
    </processing>

    <report>
        <no-warnings value="True"/>
        <no-step-log value="True"/>
    </report>

    <random_number>
        <random value="true"/>
    </random_number>

</configuration>
-->

<tripinfos xmlns:xsi="http://www.w3.org/2001/XMLSchema-instance" xsi:noNamespaceSchemaLocation="http://sumo.dlr.de/xsd/tripinfo_file.xsd">
    <tripinfo id="f_0_3.0" depart="0.00" departLane="np3_nt3_0" departPos="15.69" departSpeed="0.00" departDelay="0.00" arrival="149.00" arrivalLane="nt14_np11_0" arrivalPos="75.00" arrivalSpeed="8.47" duration="149.00" routeLength="935.40" waitingTime="29.00" waitingCount="5" stopTime="0.00" timeLoss="56.67" rerouteNo="0" devices="tripinfo_f_0_3.0" vType="type1" speedFactor="0.85" vaporized=""/>
    <tripinfo id="f_0_2.0" depart="0.00" departLane="np2_nt2_0" departPos="27.98" departSpeed="0.00" departDelay="0.00" arrival="153.00" arrivalLane="nt15_np10_0" arrivalPos="75.00" arrivalSpeed="9.57" duration="153.00" routeLength="923.10" waitingTime="43.00" waitingCount="6" stopTime="0.00" timeLoss="70.66" rerouteNo="0" devices="tripinfo_f_0_2.0" vType="type1" speedFactor="0.94" vaporized=""/>
    <tripinfo id="f_0_1.0" depart="0.00" departLane="np16_nt1_0" departPos="60.70" departSpeed="0.00" departDelay="0.00" arrival="163.00" arrivalLane="nt16_np8_0" arrivalPos="75.00" arrivalSpeed="16.90" duration="163.00" routeLength="1287.18" waitingTime="37.00" waitingCount="5" stopTime="0.00" timeLoss="68.11" rerouteNo="0" devices="tripinfo_f_0_1.0" vType="type1" speedFactor="0.96" vaporized=""/>
    <tripinfo id="f_0_2.1" depart="9.00" departLane="np2_nt2_0" departPos="1.44" departSpeed="0.00" departDelay="0.82" arrival="166.00" arrivalLane="nt15_np10_0" arrivalPos="75.00" arrivalSpeed="10.73" duration="157.00" routeLength="949.64" waitingTime="47.00" waitingCount="5" stopTime="0.00" timeLoss="81.66" rerouteNo="0" devices="tripinfo_f_0_2.1" vType="type1" speedFactor="1.06" vaporized=""/>
    <tripinfo id="f_0_0.0" depart="0.00" departLane="np13_nt13_0" departPos="32.26" departSpeed="0.00" departDelay="0.00" arrival="168.00" arrivalLane="nt4_np5_0" arrivalPos="75.00" arrivalSpeed="19.83" duration="168.00" routeLength="1315.63" waitingTime="41.00" waitingCount="5" stopTime="0.00" timeLoss="76.08" rerouteNo="0" devices="tripinfo_f_0_0.0" vType="type1" speedFactor="0.99" vaporized=""/>
    <tripinfo id="f_0_0.1" depart="14.00" departLane="np13_nt13_0" departPos="25.30" departSpeed="0.00" departDelay="0.36" arrival="170.00" arrivalLane="nt4_np5_0" arrivalPos="75.00" arrivalSpeed="21.20" duration="156.00" routeLength="1322.59" waitingTime="31.00" waitingCount="5" stopTime="0.00" timeLoss="70.96" rerouteNo="0" devices="tripinfo_f_0_0.1" vType="type1" speedFactor="1.09" vaporized=""/>
    <tripinfo id="f_0_2.2" depart="17.00" departLane="np2_nt2_0" departPos="23.90" departSpeed="0.00" departDelay="0.64" arrival="170.00" arrivalLane="nt15_np10_0" arrivalPos="75.00" arrivalSpeed="7.99" duration="153.00" routeLength="927.18" waitingTime="35.00" waitingCount="6" stopTime="0.00" timeLoss="66.90" rerouteNo="0" devices="tripinfo_f_0_2.2" vType="type1" speedFactor="0.90" vaporized=""/>
    <tripinfo id="f_0_3.1" depart="9.00" departLane="np3_nt3_0" departPos="9.79" departSpeed="0.00" departDelay="0.82" arrival="176.00" arrivalLane="nt14_np11_0" arrivalPos="75.00" arrivalSpeed="9.84" duration="167.00" routeLength="941.30" waitingTime="51.00" waitingCount="5" stopTime="0.00" timeLoss="92.86" rerouteNo="0" devices="tripinfo_f_0_3.1" vType="type1" speedFactor="1.06" vaporized=""/>
    <tripinfo id="f_0_3.2" depart="17.00" departLane="np3_nt3_0" departPos="24.26" departSpeed="0.00" departDelay="0.64" arrival="178.00" arrivalLane="nt14_np11_0" arrivalPos="75.00" arrivalSpeed="9.98" duration="161.00" routeLength="926.83" waitingTime="58.00" waitingCount="4" stopTime="0.00" timeLoss="90.15" rerouteNo="0" devices="tripinfo_f_0_3.2" vType="type1" speedFactor="1.11" vaporized=""/>
    <tripinfo id="f_0_2.3" depart="25.00" departLane="np2_nt2_0" departPos="38.14" departSpeed="0.00" departDelay="0.45" arrival="178.00" arrivalLane="nt15_np10_0" arrivalPos="75.00" arrivalSpeed="8.28" duration="153.00" routeLength="912.94" waitingTime="27.00" waitingCount="6" stopTime="0.00" timeLoss="72.98" rerouteNo="0" devices="tripinfo_f_0_2.3" vType="type1" speedFactor="0.95" vaporized=""/>
    <tripinfo id="f_0_2.4" depart="33.00" departLane="np2_nt2_0" departPos="53.22" departSpeed="0.00" departDelay="0.27" arrival="186.00" arrivalLane="nt15_np10_0" arrivalPos="75.00" arrivalSpeed="11.67" duration="153.00" routeLength="897.86" waitingTime="38.00" waitingCount="8" stopTime="0.00" timeLoss="87.29" rerouteNo="0" devices="tripinfo_f_0_2.4" vType="type1" speedFactor="1.14" vaporized=""/>
    <tripinfo id="f_0_1.1" depart="14.00" departLane="np16_nt1_0" departPos="14.97" departSpeed="0.00" departDelay="0.36" arrival="197.00" arrivalLane="nt16_np8_0" arrivalPos="75.00" arrivalSpeed="17.97" duration="183.00" routeLength="1332.91" waitingTime="50.00" waitingCount="6" stopTime="0.00" timeLoss="91.34" rerouteNo="0" devices="tripinfo_f_0_1.1" vType="type1" speedFactor="1.01" vaporized=""/>
    <tripinfo id="f_0_2.5" depart="41.00" departLane="np2_nt2_0" departPos="60.54" departSpeed="0.00" departDelay="0.09" arrival="197.00" arrivalLane="nt15_np10_0" arrivalPos="75.00" arrivalSpeed="10.77" duration="156.00" routeLength="890.54" waitingTime="39.00" waitingCount="7" stopTime="0.00" timeLoss="82.02" rerouteNo="0" devices="tripinfo_f_0_2.5" vType="type1" speedFactor="1.00" vaporized=""/>
    <tripinfo id="f_0_2.6" depart="50.00" departLane="np2_nt2_0" departPos="25.18" departSpeed="0.00" departDelay="0.91" arrival="203.00" arrivalLane="nt15_np10_0" arrivalPos="75.00" arrivalSpeed="8.88" duration="153.00" routeLength="925.90" waitingTime="29.00" waitingCount="6" stopTime="0.00" timeLoss="76.24" rerouteNo="0" devices="tripinfo_f_0_2.6" vType="type1" speedFactor="1.01" vaporized=""/>
    <tripinfo id="f_0_3.3" depart="25.00" departLane="np3_nt3_0" departPos="16.72" departSpeed="0.00" departDelay="0.45" arrival="207.00" arrivalLane="nt14_np11_0" arrivalPos="75.00" arrivalSpeed="9.74" duration="182.00" routeLength="934.37" waitingTime="76.00" waitingCount="4" stopTime="0.00" timeLoss="100.67" rerouteNo="0" devices="tripinfo_f_0_3.3" vType="type1" speedFactor="0.97" vaporized=""/>
    <tripinfo id="f_0_0.2" depart="28.00" departLane="np13_nt13_0" departPos="62.27" departSpeed="0.00" departDelay="0.73" arrival="208.00" arrivalLane="nt4_np5_0" arrivalPos="75.00" arrivalSpeed="20.31" duration="180.00" routeLength="1285.62" waitingTime="67.00" waitingCount="4" stopTime="0.00" timeLoss="91.98" rerouteNo="0" devices="tripinfo_f_0_0.2" vType="type1" speedFactor="1.03" vaporized=""/>
    <tripinfo id="f_0_0.3" depart="41.00" departLane="np13_nt13_0" departPos="48.42" departSpeed="0.00" departDelay="0.09" arrival="209.00" arrivalLane="nt4_np5_0" arrivalPos="75.00" arrivalSpeed="20.67" duration="168.00" routeLength="1299.47" waitingTime="54.00" waitingCount="4" stopTime="0.00" timeLoss="87.46" rerouteNo="0" devices="tripinfo_f_0_0.3" vType="type1" speedFactor="1.13" vaporized=""/>
    <tripinfo id="f_0_3.4" depart="33.00" departLane="np3_nt3_0" departPos="49.95" departSpeed="0.00" departDelay="0.27" arrival="210.00" arrivalLane="nt14_np11_0" arrivalPos="75.00" arrivalSpeed="10.23" duration="177.00" routeLength="901.14" waitingTime="68.00" waitingCount="6" stopTime="0.00" timeLoss="97.59" rerouteNo="0" devices="tripinfo_f_0_3.4" vType="type1" speedFactor="0.96" vaporized=""/>
    <tripinfo id="f_0_2.7" depart="58.00" departLane="np2_nt2_0" departPos="4.72" departSpeed="0.00" departDelay="0.73" arrival="210.00" arrivalLane="nt15_np10_0" arrivalPos="75.00" arrivalSpeed="9.66" duration="152.00" routeLength="946.36" waitingTime="25.00" waitingCount="6" stopTime="0.00" timeLoss="67.82" rerouteNo="0" devices="tripinfo_f_0_2.7" vType="type1" speedFactor="0.95" vaporized=""/>
    <tripinfo id="f_0_1.2" depart="28.00" departLane="np16_nt1_0" departPos="7.18" departSpeed="0.00" departDelay="0.73" arrival="214.00" arrivalLane="nt16_np8_0" arrivalPos="75.00" arrivalSpeed="16.12" duration="186.00" routeLength="1340.70" waitingTime="32.00" waitingCount="4" stopTime="0.00" timeLoss="76.30" rerouteNo="0" devices="tripinfo_f_0_1.2" vType="type1" speedFactor="0.85" vaporized=""/>
    <tripinfo id="f_0_3.5" depart="41.00" departLane="np3_nt3_0" departPos="47.60" departSpeed="0.00" departDelay="0.09" arrival="217.00" arrivalLane="nt14_np11_0" arrivalPos="75.00" arrivalSpeed="9.72" duration="176.00" routeLength="903.49" waitingTime="58.00" waitingCount="8" stopTime="0.00" timeLoss="98.91" rerouteNo="0" devices="tripinfo_f_0_3.5" vType="type1" speedFactor="0.98" vaporized=""/>
    <tripinfo id="f_0_3.6" depart="50.00" departLane="np3_nt3_0" departPos="20.62" departSpeed="0.00" departDelay="0.91" arrival="219.00" arrivalLane="nt14_np11_0" arrivalPos="75.00" arrivalSpeed="9.40" duration="169.00" routeLength="930.47" waitingTime="54.00" waitingCount="8" stopTime="0.00" timeLoss="96.55" rerouteNo="0" devices="tripinfo_f_0_3.6" vType="type1" speedFactor="1.07" vaporized=""/>
    <tripinfo id="f_0_3.7" depart="58.00" departLane="np3_nt3_0" departPos="54.02" departSpeed="0.00" departDelay="0.73" arrival="227.00" arrivalLane="nt14_np11_0" arrivalPos="75.00" arrivalSpeed="10.12" duration="169.00" routeLength="897.07" waitingTime="51.00" waitingCount="10" stopTime="0.00" timeLoss="101.72" rerouteNo="0" devices="tripinfo_f_0_3.7" vType="type1" speedFactor="1.12" vaporized=""/>
    <tripinfo id="f_0_3.8" depart="66.00" departLane="np3_nt3_0" departPos="17.68" departSpeed="0.00" departDelay="0.54" arrival="229.00" arrivalLane="nt14_np11_0" arrivalPos="75.00" arrivalSpeed="9.68" duration="163.00" routeLength="933.41" waitingTime="40.00" waitingCount="9" stopTime="0.00" timeLoss="89.74" rerouteNo="0" devices="tripinfo_f_0_3.8" vType="type1" speedFactor="1.07" vaporized=""/>
    <tripinfo id="f_0_3.9" depart="74.00" departLane="np3_nt3_0" departPos="22.12" departSpeed="0.00" departDelay="0.36" arrival="237.00" arrivalLane="nt14_np11_0" arrivalPos="75.00" arrivalSpeed="9.73" duration="163.00" routeLength="928.97" waitingTime="51.00" waitingCount="6" stopTime="0.00" timeLoss="88.06" rerouteNo="0" devices="tripinfo_f_0_3.9" vType="type1" speedFactor="1.04" vaporized=""/>
    <tripinfo id="f_0_0.4" depart="55.00" departLane="np13_nt13_0" departPos="59.16" departSpeed="0.00" departDelay="0.46" arrival="239.00" arrivalLane="nt4_np5_0" arrivalPos="75.00" arrivalSpeed="19.02" duration="184.00" routeLength="1288.73" waitingTime="60.00" waitingCount="7" stopTime="0.00" timeLoss="92.85" rerouteNo="0" devices="tripinfo_f_0_0.4" vType="type1" speedFactor="1.00" vaporized=""/>
    <tripinfo id="f_0_3.10" depart="82.00" departLane="np3_nt3_0" departPos="39.82" departSpeed="0.00" departDelay="0.18" arrival="239.00" arrivalLane="nt14_np11_0" arrivalPos="75.00" arrivalSpeed="12.02" duration="157.00" routeLength="911.27" waitingTime="44.00" waitingCount="6" stopTime="0.00" timeLoss="88.48" rerouteNo="0" devices="tripinfo_f_0_3.10" vType="type1" speedFactor="1.13" vaporized=""/>
    <tripinfo id="f_0_3.11" depart="90.00" departLane="np3_nt3_0" departPos="9.60" departSpeed="0.00" departDelay="0.00" arrival="246.00" arrivalLane="nt14_np11_0" arrivalPos="75.00" arrivalSpeed="12.11" duration="156.00" routeLength="941.49" waitingTime="38.00" waitingCount="7" stopTime="0.00" timeLoss="88.08" rerouteNo="0" devices="tripinfo_f_0_3.11" vType="type1" speedFactor="1.17" vaporized=""/>
    <tripinfo id="f_0_1.3" depart="41.00" departLane="np16_nt1_0" departPos="50.27" departSpeed="0.00" departDelay="0.09" arrival="248.00" arrivalLane="nt16_np8_0" arrivalPos="75.00" arrivalSpeed="21.52" duration="207.00" routeLength="1297.61" waitingTime="66.00" waitingCount="8" stopTime="0.00" timeLoss="123.16" rerouteNo="0" devices="tripinfo_f_0_1.3" vType="type1" speedFactor="1.09" vaporized=""/>
    <tripinfo id="f_0_0.5" depart="69.00" departLane="np13_nt13_0" departPos="10.45" departSpeed="0.00" departDelay="0.82" arrival="252.00" arrivalLane="nt4_np5_0" arrivalPos="75.00" arrivalSpeed="16.74" duration="183.00" routeLength="1337.44" waitingTime="56.00" waitingCount="4" stopTime="0.00" timeLoss="84.21" rerouteNo="0" devices="tripinfo_f_0_0.5" vType="type1" speedFactor="0.94" vaporized=""/>
    <tripinfo id="f_0_0.6" depart="82.00" departLane="np13_nt13_0" departPos="24.41" departSpeed="0.00" departDelay="0.18" arrival="254.00" arrivalLane="nt4_np5_0" arrivalPos="75.00" arrivalSpeed="18.13" duration="172.00" routeLength="1323.48" waitingTime="46.00" waitingCount="4" stopTime="0.00" timeLoss="74.08" rerouteNo="0" devices="tripinfo_f_0_0.6" vType="type1" speedFactor="0.94" vaporized=""/>
    <tripinfo id="f_0_0.7" depart="96.00" departLane="np13_nt13_0" departPos="8.79" departSpeed="0.00" departDelay="0.55" arrival="263.00" arrivalLane="nt4_np5_0" arrivalPos="75.00" arrivalSpeed="21.60" duration="167.00" routeLength="1339.10" waitingTime="32.00" waitingCount="4" stopTime="0.00" timeLoss="84.20" rerouteNo="0" devices="tripinfo_f_0_0.7" vType="type1" speedFactor="1.12" vaporized=""/>
    <tripinfo id="f_0_3.12" depart="99.00" departLane="np3_nt3_0" departPos="3.67" departSpeed="0.00" departDelay="0.82" arrival="265.00" arrivalLane="nt14_np11_0" arrivalPos="75.00" arrivalSpeed="6.12" duration="166.00" routeLength="947.42" waitingTime="33.00" waitingCount="5" stopTime="0.00" timeLoss="64.27" rerouteNo="0" devices="tripinfo_f_0_3.12" vType="type1" speedFactor="0.78" vaporized=""/>
    <tripinfo id="f_0_0.8" depart="110.00" departLane="np13_nt13_0" departPos="57.39" departSpeed="0.00" departDelay="0.91" arrival="265.00" arrivalLane="nt4_np5_0" arrivalPos="75.00" arrivalSpeed="17.06" duration="155.00" routeLength="1290.50" waitingTime="31.00" waitingCount="4" stopTime="0.00" timeLoss="58.12" rerouteNo="0" devices="tripinfo_f_0_0.8" vType="type1" speedFactor="0.93" vaporized=""/>
    <tripinfo id="f_0_2.8" depart="66.00" departLane="np2_nt2_0" departPos="11.81" departSpeed="0.00" departDelay="0.54" arrival="266.00" arrivalLane="nt15_np10_0" arrivalPos="75.00" arrivalSpeed="10.84" duration="200.00" routeLength="939.27" waitingTime="73.00" waitingCount="8" stopTime="0.00" timeLoss="128.57" rerouteNo="0" devices="tripinfo_f_0_2.8" vType="type1" speedFactor="1.10" vaporized=""/>
    <tripinfo id="f_0_0.9" depart="123.00" departLane="np13_nt13_0" departPos="59.59" departSpeed="0.00" departDelay="0.28" arrival="267.00" arrivalLane="nt4_np5_0" arrivalPos="75.00" arrivalSpeed="21.80" duration="144.00" routeLength="1288.30" waitingTime="25.00" waitingCount="3" stopTime="0.00" timeLoss="62.14" rerouteNo="0" devices="tripinfo_f_0_0.9" vType="type1" speedFactor="1.11" vaporized=""/>
    <tripinfo id="f_0_2.9" depart="74.00" departLane="np2_nt2_0" departPos="10.40" departSpeed="0.00" departDelay="0.36" arrival="268.00" arrivalLane="nt15_np10_0" arrivalPos="75.00" arrivalSpeed="11.45" duration="194.00" routeLength="940.68" waitingTime="80.00" waitingCount="6" stopTime="0.00" timeLoss="125.91" rerouteNo="0" devices="tripinfo_f_0_2.9" vType="type1" speedFactor="1.16" vaporized=""/>
    <tripinfo id="f_0_1.4" depart="55.00" departLane="np16_nt1_0" departPos="30.28" departSpeed="0.00" departDelay="0.46" arrival="288.00" arrivalLane="nt16_np8_0" arrivalPos="75.00" arrivalSpeed="15.07" duration="233.00" routeLength="1317.60" waitingTime="78.00" waitingCount="8" stopTime="0.00" timeLoss="128.32" rerouteNo="0" devices="tripinfo_f_0_1.4" vType="type1" speedFactor="0.88" vaporized=""/>
    <tripinfo id="f_0_2.10" depart="82.00" departLane="np2_nt2_0" departPos="49.47" departSpeed="0.00" departDelay="0.18" arrival="289.00" arrivalLane="nt15_np10_0" arrivalPos="75.00" arrivalSpeed="7.47" duration="207.00" routeLength="901.61" waitingTime="79.00" waitingCount="6" stopTime="0.00" timeLoss="119.08" rerouteNo="0" devices="tripinfo_f_0_2.10" vType="type1" speedFactor="0.86" vaporized=""/>
    <tripinfo id="f_0_2.11" depart="90.00" departLane="np2_nt2_0" departPos="7.53" departSpeed="0.00" departDelay="0.00" arrival="300.00" arrivalLane="nt15_np10_0" arrivalPos="75.00" arrivalSpeed="7.89" duration="210.00" routeLength="943.55" waitingTime="69.00" waitingCount="6" stopTime="0.00" timeLoss="107.49" rerouteNo="0" devices="tripinfo_f_0_2.11" vType="type1" speedFactor="0.77" vaporized=""/>
    <tripinfo id="f_0_1.5" depart="69.00" departLane="np16_nt1_0" departPos="11.53" departSpeed="0.00" departDelay="0.82" arrival="310.00" arrivalLane="nt16_np8_0" arrivalPos="75.00" arrivalSpeed="20.79" duration="241.00" routeLength="1336.35" waitingTime="86.00" waitingCount="9" stopTime="0.00" timeLoss="151.12" rerouteNo="0" devices="tripinfo_f_0_1.5" vType="type1" speedFactor="1.04" vaporized=""/>
    <tripinfo id="f_0_3.13" depart="107.00" departLane="np3_nt3_0" departPos="24.89" departSpeed="0.00" departDelay="0.63" arrival="319.00" arrivalLane="nt14_np11_0" arrivalPos="75.00" arrivalSpeed="9.34" duration="212.00" routeLength="926.20" waitingTime="88.00" waitingCount="5" stopTime="0.00" timeLoss="123.78" rerouteNo="0" devices="tripinfo_f_0_3.13" vType="type1" speedFactor="0.88" vaporized=""/>
    <tripinfo id="f_0_0.10" depart="137.00" departLane="np13_nt13_0" departPos="46.05" departSpeed="0.00" departDelay="0.64" arrival="319.00" arrivalLane="nt4_np5_0" arrivalPos="75.00" arrivalSpeed="17.80" duration="182.00" routeLength="1301.84" waitingTime="43.00" waitingCount="6" stopTime="0.00" timeLoss="83.74" rerouteNo="0" devices="tripinfo_f_0_0.10" vType="type1" speedFactor="0.93" vaporized=""/>
    <tripinfo id="f_0_3.14" depart="115.00" departLane="np3_nt3_0" departPos="27.08" departSpeed="0.00" departDelay="0.45" arrival="321.00" arrivalLane="nt14_np11_0" arrivalPos="75.00" arrivalSpeed="9.06" duration="206.00" routeLength="924.01" waitingTime="75.00" waitingCount="5" stopTime="0.00" timeLoss="122.64" rerouteNo="0" devices="tripinfo_f_0_3.14" vType="type1" speedFactor="0.94" vaporized=""/>
    <tripinfo id="f_0_0.11" depart="150.00" departLane="np13_nt13_0" departPos="17.56" departSpeed="0.00" departDelay="0.00" arrival="321.00" arrivalLane="nt4_np5_0" arrivalPos="75.00" arrivalSpeed="16.76" duration="171.00" routeLength="1330.33" waitingTime="26.00" waitingCount="5" stopTime="0.00" timeLoss="66.90" rerouteNo="0" devices="tripinfo_f_0_0.11" vType="type1" speedFactor="0.89" vaporized=""/>
    <tripinfo id="f_0_1.6" depart="82.00" departLane="np16_nt1_0" departPos="25.53" departSpeed="0.00" departDelay="0.18" arrival="323.00" arrivalLane="nt16_np8_0" arrivalPos="75.00" arrivalSpeed="19.63" duration="241.00" routeLength="1322.35" waitingTime="77.00" waitingCount="12" stopTime="0.00" timeLoss="152.52" rerouteNo="0" devices="tripinfo_f_0_1.6" vType="type1" speedFactor="1.04" vaporized=""/>
    <tripinfo id="f_0_3.15" depart="123.00" departLane="np3_nt3_0" departPos="13.74" departSpeed="0.00" departDelay="0.27" arrival="326.00" arrivalLane="nt14_np11_0" arrivalPos="75.00" arrivalSpeed="11.87" duration="203.00" routeLength="937.35" waitingTime="89.00" waitingCount="6" stopTime="0.00" timeLoss="133.72" rerouteNo="0" devices="tripinfo_f_0_3.15" vType="type1" speedFactor="1.13" vaporized=""/>
    <tripinfo id="f_0_0.12" depart="164.00" departLane="np13_nt13_0" departPos="47.37" departSpeed="0.00" departDelay="0.37" arrival="329.00" arrivalLane="nt4_np5_0" arrivalPos="75.00" arrivalSpeed="16.01" duration="165.00" routeLength="1300.52" waitingTime="19.00" waitingCount="4" stopTime="0.00" timeLoss="55.34" rerouteNo="0" devices="tripinfo_f_0_0.12" vType="type1" speedFactor="0.83" vaporized=""/>
    <tripinfo id="f_0_3.16" depart="131.00" departLane="np3_nt3_0" departPos="21.10" departSpeed="0.00" departDelay="0.09" arrival="330.00" arrivalLane="nt14_np11_0" arrivalPos="75.00" arrivalSpeed="9.38" duration="199.00" routeLength="929.99" waitingTime="75.00" waitingCount="6" stopTime="0.00" timeLoss="117.55" rerouteNo="0" devices="tripinfo_f_0_3.16" vType="type1" speedFactor="0.96" vaporized=""/>
    <tripinfo id="f_0_2.12" depart="99.00" departLane="np2_nt2_0" departPos="55.00" departSpeed="0.00" departDelay="0.82" arrival="332.00" arrivalLane="nt15_np10_0" arrivalPos="75.00" arrivalSpeed="11.54" duration="233.00" routeLength="896.08" waitingTime="89.00" waitingCount="11" stopTime="0.00" timeLoss="162.37" rerouteNo="0" devices="tripinfo_f_0_2.12" vType="type1" speedFactor="1.07" vaporized=""/>
    <tripinfo id="f_0_3.17" depart="140.00" departLane="np3_nt3_0" departPos="13.01" departSpeed="0.00" departDelay="0.91" arrival="332.00" arrivalLane="nt14_np11_0" arrivalPos="75.00" arrivalSpeed="9.13" duration="192.00" routeLength="938.08" waitingTime="66.00" waitingCount="9" stopTime="0.00" timeLoss="110.37" rerouteNo="0" devices="tripinfo_f_0_3.17" vType="type1" speedFactor="0.97" vaporized=""/>
    <tripinfo id="f_0_3.18" depart="148.00" departLane="np3_nt3_0" departPos="6.95" departSpeed="0.00" departDelay="0.72" arrival="333.00" arrivalLane="nt14_np11_0" arrivalPos="75.00" arrivalSpeed="13.18" duration="185.00" routeLength="944.14" waitingTime="56.00" waitingCount="8" stopTime="0.00" timeLoss="120.16" rerouteNo="0" devices="tripinfo_f_0_3.18" vType="type1" speedFactor="1.21" vaporized=""/>
    <tripinfo id="f_0_0.13" depart="178.00" departLane="np13_nt13_0" departPos="51.80" departSpeed="0.00" departDelay="0.73" arrival="338.00" arrivalLane="nt4_np5_0" arrivalPos="75.00" arrivalSpeed="20.47" duration="160.00" routeLength="1296.09" waitingTime="29.00" waitingCount="3" stopTime="0.00" timeLoss="76.57" rerouteNo="0" devices="tripinfo_f_0_0.13" vType="type1" speedFactor="1.09" vaporized=""/>
    <tripinfo id="f_0_0.14" depart="191.00" departLane="np13_nt13_0" departPos="37.06" departSpeed="0.00" departDelay="0.10" arrival="340.00" arrivalLane="nt4_np5_0" arrivalPos="75.00" arrivalSpeed="21.23" duration="149.00" routeLength="1310.83" waitingTime="32.00" waitingCount="4" stopTime="0.00" timeLoss="66.22" rerouteNo="0" devices="tripinfo_f_0_0.14" vType="type1" speedFactor="1.11" vaporized=""/>
    <tripinfo id="f_0_3.19" depart="156.00" departLane="np3_nt3_0" departPos="28.05" departSpeed="0.00" departDelay="0.54" arrival="353.00" arrivalLane="nt14_np11_0" arrivalPos="75.00" arrivalSpeed="6.86" duration="197.00" routeLength="923.04" waitingTime="44.00" waitingCount="5" stopTime="0.00" timeLoss="83.77" rerouteNo="0" devices="tripinfo_f_0_3.19" vType="type1" speedFactor="0.68" vaporized=""/>
    <tripinfo id="f_0_3.20" depart="164.00" departLane="np3_nt3_0" departPos="5.99" departSpeed="0.00" departDelay="0.36" arrival="355.00" arrivalLane="nt14_np11_0" arrivalPos="75.00" arrivalSpeed="8.65" duration="191.00" routeLength="945.10" waitingTime="46.00" waitingCount="4" stopTime="0.00" timeLoss="103.26" rerouteNo="0" devices="tripinfo_f_0_3.20" vType="type1" speedFactor="0.91" vaporized=""/>
    <tripinfo id="f_0_3.21" depart="172.00" departLane="np3_nt3_0" departPos="39.43" departSpeed="0.00" departDelay="0.18" arrival="357.00" arrivalLane="nt14_np11_0" arrivalPos="75.00" arrivalSpeed="10.74" duration="185.00" routeLength="911.66" waitingTime="42.00" waitingCount="5" stopTime="0.00" timeLoss="110.41" rerouteNo="0" devices="tripinfo_f_0_3.21" vType="type1" speedFactor="1.04" vaporized=""/>
    <tripinfo id="f_0_3.22" depart="180.00" departLane="np3_nt3_0" departPos="23.68" departSpeed="0.00" departDelay="0.00" arrival="361.00" arrivalLane="nt14_np11_0" arrivalPos="75.00" arrivalSpeed="11.56" duration="181.00" routeLength="927.41" waitingTime="50.00" waitingCount="7" stopTime="0.00" timeLoss="109.48" rerouteNo="0" devices="tripinfo_f_0_3.22" vType="type1" speedFactor="1.09" vaporized=""/>
    <tripinfo id="f_0_2.13" depart="107.00" departLane="np2_nt2_0" departPos="37.55" departSpeed="0.00" departDelay="0.63" arrival="372.00" arrivalLane="nt15_np10_0" arrivalPos="75.00" arrivalSpeed="8.84" duration="265.00" routeLength="913.53" waitingTime="108.00" waitingCount="10" stopTime="0.00" timeLoss="188.24" rerouteNo="0" devices="tripinfo_f_0_2.13" vType="type1" speedFactor="1.00" vaporized=""/>
    <tripinfo id="f_0_2.14" depart="115.00" departLane="np2_nt2_0" departPos="37.17" departSpeed="0.00" departDelay="0.45" arrival="374.00" arrivalLane="nt15_np10_0" arrivalPos="75.00" arrivalSpeed="11.15" duration="259.00" routeLength="913.91" waitingTime="114.00" waitingCount="8" stopTime="0.00" timeLoss="194.21" rerouteNo="0" devices="tripinfo_f_0_2.14" vType="type1" speedFactor="1.18" vaporized=""/>
    <tripinfo id="f_0_0.15" depart="205.00" departLane="np13_nt13_0" departPos="54.25" departSpeed="0.00" departDelay="0.46" arrival="374.00" arrivalLane="nt4_np5_0" arrivalPos="75.00" arrivalSpeed="15.16" duration="169.00" routeLength="1293.64" waitingTime="35.00" waitingCount="3" stopTime="0.00" timeLoss="63.93" rerouteNo="0" devices="tripinfo_f_0_0.15" vType="type1" speedFactor="0.86" vaporized=""/>
    <tripinfo id="f_0_2.15" depart="123.00" departLane="np2_nt2_0" departPos="61.36" departSpeed="0.00" departDelay="0.27" arrival="377.00" arrivalLane="nt15_np10_0" arrivalPos="75.00" arrivalSpeed="10.17" duration="254.00" routeLength="889.72" waitingTime="113.00" waitingCount="8" stopTime="0.00" timeLoss="185.08" rerouteNo="0" devices="tripinfo_f_0_2.15" vType="type1" speedFactor="1.09" vaporized=""/>
    <tripinfo id="f_0_2.16" depart="131.00" departLane="np2_nt2_0" departPos="0.13" departSpeed="0.00" departDelay="0.09" arrival="380.00" arrivalLane="nt15_np10_0" arrivalPos="75.00" arrivalSpeed="10.09" duration="249.00" routeLength="950.95" waitingTime="103.00" waitingCount="9" stopTime="0.00" timeLoss="164.56" rerouteNo="0" devices="tripinfo_f_0_2.16" vType="type1" speedFactor="0.94" vaporized=""/>
    <tripinfo id="f_0_1.7" depart="96.00" departLane="np16_nt1_0" departPos="52.81" departSpeed="0.00" departDelay="0.55" arrival="387.00" arrivalLane="nt16_np8_0" arrivalPos="75.00" arrivalSpeed="22.12" duration="291.00" routeLength="1295.07" waitingTime="129.00" waitingCount="11" stopTime="0.00" timeLoss="211.46" rerouteNo="0" devices="tripinfo_f_0_1.7" vType="type1" speedFactor="1.14" vaporized=""/>
    <tripinfo id="f_0_3.23" depart="189.00" departLane="np3_nt3_0" departPos="0.02" departSpeed="0.00" departDelay="0.81" arrival="388.00" arrivalLane="nt14_np11_0" arrivalPos="75.00" arrivalSpeed="8.11" duration="199.00" routeLength="951.07" waitingTime="63.00" waitingCount="7" stopTime="0.00" timeLoss="112.02" rerouteNo="0" devices="tripinfo_f_0_3.23" vType="type1" speedFactor="0.91" vaporized=""/>
    <tripinfo id="f_0_3.24" depart="197.00" departLane="np3_nt3_0" departPos="27.96" departSpeed="0.00" departDelay="0.63" arrival="390.00" arrivalLane="nt14_np11_0" arrivalPos="75.00" arrivalSpeed="9.37" duration="193.00" routeLength="923.13" waitingTime="59.00" waitingCount="7" stopTime="0.00" timeLoss="118.50" rerouteNo="0" devices="tripinfo_f_0_3.24" vType="type1" speedFactor="1.03" vaporized=""/>
    <tripinfo id="f_0_1.8" depart="110.00" departLane="np16_nt1_0" departPos="22.17" departSpeed="0.00" departDelay="0.91" arrival="392.00" arrivalLane="nt16_np8_0" arrivalPos="75.00" arrivalSpeed="20.30" duration="282.00" routeLength="1325.71" waitingTime="103.00" waitingCount="11" stopTime="0.00" timeLoss="191.08" rerouteNo="0" devices="tripinfo_f_0_1.8" vType="type1" speedFactor="1.02" vaporized=""/>
    <tripinfo id="f_0_2.17" depart="140.00" departLane="np2_nt2_0" departPos="3.88" departSpeed="0.00" departDelay="0.91" arrival="394.00" arrivalLane="nt15_np10_0" arrivalPos="75.00" arrivalSpeed="11.48" duration="254.00" routeLength="947.20" waitingTime="102.00" waitingCount="8" stopTime="0.00" timeLoss="185.53" rerouteNo="0" devices="tripinfo_f_0_2.17" vType="type1" speedFactor="1.16" vaporized=""/>
    <tripinfo id="f_0_2.18" depart="148.00" departLane="np2_nt2_0" departPos="24.54" departSpeed="0.00" departDelay="0.72" arrival="396.00" arrivalLane="nt15_np10_0" arrivalPos="75.00" arrivalSpeed="12.24" duration="248.00" routeLength="926.54" waitingTime="97.00" waitingCount="11" stopTime="0.00" timeLoss="179.09" rerouteNo="0" devices="tripinfo_f_0_2.18" vType="type1" speedFactor="1.12" vaporized=""/>
    <tripinfo id="f_0_1.9" depart="123.00" departLane="np16_nt1_0" departPos="38.60" departSpeed="0.00" departDelay="0.28" arrival="397.00" arrivalLane="nt16_np8_0" arrivalPos="75.00" arrivalSpeed="18.02" duration="274.00" routeLength="1309.28" waitingTime="91.00" waitingCount="12" stopTime="0.00" timeLoss="179.05" rerouteNo="0" devices="tripinfo_f_0_1.9" vType="type1" speedFactor="0.96" vaporized=""/>
    <tripinfo id="f_0_2.19" depart="156.00" departLane="np2_nt2_0" departPos="35.78" departSpeed="0.00" departDelay="0.54" arrival="398.00" arrivalLane="nt15_np10_0" arrivalPos="75.00" arrivalSpeed="11.91" duration="242.00" routeLength="915.30" waitingTime="84.00" waitingCount="10" stopTime="0.00" timeLoss="172.81" rerouteNo="0" devices="tripinfo_f_0_2.19" vType="type1" speedFactor="1.10" vaporized=""/>