<?xml version="1.0" encoding="UTF-8"?>

<!-- generated on 2023-08-23 16:44:12 by Eclipse SUMO libsumo Version 1.18.0
<configuration xmlns:xsi="http://www.w3.org/2001/XMLSchema-instance" xsi:noNamespaceSchemaLocation="http://sumo.dlr.de/xsd/libsumoConfiguration.xsd">

    <input>
        <net-file value="/home/stefan/RESCO/./environments/arterial4x4/arterial4x4.net.xml"/>
        <route-files value="/home/stefan/RESCO/./environments/arterial4x4/arterial4x4_66.rou.xml"/>
    </input>

    <output>
        <tripinfo-output value="/home/stefan/results/IDDQN-tr0-arterial4x4-0-drq_norm-wait_norm/tripinfo_66.xml"/>
        <tripinfo-output.write-unfinished value="true"/>
    </output>

    <processing>
        <time-to-teleport value="-1"/>
    </processing>

    <report>
        <no-warnings value="True"/>
        <no-step-log value="True"/>
    </report>

    <random_number>
        <random value="true"/>
    </random_number>

</configuration>
-->

<tripinfos xmlns:xsi="http://www.w3.org/2001/XMLSchema-instance" xsi:noNamespaceSchemaLocation="http://sumo.dlr.de/xsd/tripinfo_file.xsd">
    <tripinfo id="f_0_3.0" depart="0.00" departLane="np3_nt3_0" departPos="63.00" departSpeed="0.00" departDelay="0.00" arrival="106.00" arrivalLane="nt14_np11_0" arrivalPos="75.00" arrivalSpeed="12.28" duration="106.00" routeLength="888.09" waitingTime="26.00" waitingCount="2" stopTime="0.00" timeLoss="42.22" rerouteNo="0" devices="tripinfo_f_0_3.0" vType="type1" speedFactor="1.16" vaporized=""/>
    <tripinfo id="f_0_3.1" depart="9.00" departLane="np3_nt3_0" departPos="12.97" departSpeed="0.00" departDelay="0.82" arrival="112.00" arrivalLane="nt14_np11_0" arrivalPos="75.00" arrivalSpeed="9.53" duration="103.00" routeLength="938.12" waitingTime="10.00" waitingCount="1" stopTime="0.00" timeLoss="26.28" rerouteNo="0" devices="tripinfo_f_0_3.1" vType="type1" speedFactor="1.03" vaporized=""/>
    <tripinfo id="f_0_3.2" depart="17.00" departLane="np3_nt3_0" departPos="3.08" departSpeed="0.00" departDelay="0.64" arrival="126.00" arrivalLane="nt14_np11_0" arrivalPos="75.00" arrivalSpeed="10.92" duration="109.00" routeLength="948.01" waitingTime="22.00" waitingCount="3" stopTime="0.00" timeLoss="41.37" rerouteNo="0" devices="tripinfo_f_0_3.2" vType="type1" speedFactor="1.18" vaporized=""/>
    <tripinfo id="f_0_1.0" depart="0.00" departLane="np16_nt1_0" departPos="58.90" departSpeed="0.00" departDelay="0.00" arrival="127.00" arrivalLane="nt16_np8_0" arrivalPos="75.00" arrivalSpeed="16.83" duration="127.00" routeLength="1288.98" waitingTime="13.00" waitingCount="2" stopTime="0.00" timeLoss="32.27" rerouteNo="0" devices="tripinfo_f_0_1.0" vType="type1" speedFactor="0.95" vaporized=""/>
    <tripinfo id="f_0_0.0" depart="0.00" departLane="np13_nt13_0" departPos="10.26" departSpeed="0.00" departDelay="0.00" arrival="128.00" arrivalLane="nt4_np5_0" arrivalPos="75.00" arrivalSpeed="18.42" duration="128.00" routeLength="1337.63" waitingTime="12.00" waitingCount="3" stopTime="0.00" timeLoss="38.94" rerouteNo="0" devices="tripinfo_f_0_0.0" vType="type1" speedFactor="1.04" vaporized=""/>
    <tripinfo id="f_0_3.3" depart="25.00" departLane="np3_nt3_0" departPos="45.74" departSpeed="0.00" departDelay="0.45" arrival="129.00" arrivalLane="nt14_np11_0" arrivalPos="75.00" arrivalSpeed="10.61" duration="104.00" routeLength="905.35" waitingTime="8.00" waitingCount="3" stopTime="0.00" timeLoss="31.33" rerouteNo="0" devices="tripinfo_f_0_3.3" vType="type1" speedFactor="1.05" vaporized=""/>
    <tripinfo id="f_0_2.0" depart="0.00" departLane="np2_nt2_0" departPos="45.14" departSpeed="0.00" departDelay="0.00" arrival="152.00" arrivalLane="nt15_np10_0" arrivalPos="75.00" arrivalSpeed="10.29" duration="152.00" routeLength="905.94" waitingTime="52.00" waitingCount="4" stopTime="0.00" timeLoss="75.52" rerouteNo="0" devices="tripinfo_f_0_2.0" vType="type1" speedFactor="0.99" vaporized=""/>
    <tripinfo id="f_0_2.1" depart="9.00" departLane="np2_nt2_0" departPos="55.00" departSpeed="0.00" departDelay="0.82" arrival="154.00" arrivalLane="nt15_np10_0" arrivalPos="75.00" arrivalSpeed="10.93" duration="145.00" routeLength="896.08" waitingTime="47.00" waitingCount="4" stopTime="0.00" timeLoss="72.31" rerouteNo="0" devices="tripinfo_f_0_2.1" vType="type1" speedFactor="1.03" vaporized=""/>
    <tripinfo id="f_0_3.4" depart="33.00" departLane="np3_nt3_0" departPos="36.13" departSpeed="0.00" departDelay="0.27" arrival="160.00" arrivalLane="nt14_np11_0" arrivalPos="75.00" arrivalSpeed="8.03" duration="127.00" routeLength="914.96" waitingTime="13.00" waitingCount="1" stopTime="0.00" timeLoss="31.73" rerouteNo="0" devices="tripinfo_f_0_3.4" vType="type1" speedFactor="0.81" vaporized=""/>
    <tripinfo id="f_0_3.5" depart="41.00" departLane="np3_nt3_0" departPos="43.62" departSpeed="0.00" departDelay="0.09" arrival="163.00" arrivalLane="nt14_np11_0" arrivalPos="75.00" arrivalSpeed="10.78" duration="122.00" routeLength="907.47" waitingTime="19.00" waitingCount="2" stopTime="0.00" timeLoss="45.22" rerouteNo="0" devices="tripinfo_f_0_3.5" vType="type1" speedFactor="0.99" vaporized=""/>
    <tripinfo id="f_0_1.1" depart="14.00" departLane="np16_nt1_0" departPos="14.61" departSpeed="0.00" departDelay="0.36" arrival="168.00" arrivalLane="nt16_np8_0" arrivalPos="75.00" arrivalSpeed="19.56" duration="154.00" routeLength="1333.27" waitingTime="36.00" waitingCount="6" stopTime="0.00" timeLoss="66.83" rerouteNo="0" devices="tripinfo_f_0_1.1" vType="type1" speedFactor="1.06" vaporized=""/>
    <tripinfo id="f_0_3.6" depart="50.00" departLane="np3_nt3_0" departPos="0.32" departSpeed="0.00" departDelay="0.91" arrival="171.00" arrivalLane="nt14_np11_0" arrivalPos="75.00" arrivalSpeed="9.69" duration="121.00" routeLength="950.77" waitingTime="22.00" waitingCount="4" stopTime="0.00" timeLoss="44.53" rerouteNo="0" devices="tripinfo_f_0_3.6" vType="type1" speedFactor="1.04" vaporized=""/>
    <tripinfo id="f_0_0.1" depart="14.00" departLane="np13_nt13_0" departPos="27.38" departSpeed="0.00" departDelay="0.36" arrival="174.00" arrivalLane="nt4_np5_0" arrivalPos="75.00" arrivalSpeed="15.58" duration="160.00" routeLength="1320.51" waitingTime="21.00" waitingCount="3" stopTime="0.00" timeLoss="47.55" rerouteNo="0" devices="tripinfo_f_0_0.1" vType="type1" speedFactor="0.82" vaporized=""/>
    <tripinfo id="f_0_0.2" depart="28.00" departLane="np13_nt13_0" departPos="27.67" departSpeed="0.00" departDelay="0.73" arrival="176.00" arrivalLane="nt4_np5_0" arrivalPos="75.00" arrivalSpeed="17.62" duration="148.00" routeLength="1320.22" waitingTime="19.00" waitingCount="3" stopTime="0.00" timeLoss="51.79" rerouteNo="0" devices="tripinfo_f_0_0.2" vType="type1" speedFactor="0.96" vaporized=""/>
    <tripinfo id="f_0_0.3" depart="41.00" departLane="np13_nt13_0" departPos="13.75" departSpeed="0.00" departDelay="0.09" arrival="183.00" arrivalLane="nt4_np5_0" arrivalPos="75.00" arrivalSpeed="23.39" duration="142.00" routeLength="1334.14" waitingTime="24.00" waitingCount="4" stopTime="0.00" timeLoss="64.09" rerouteNo="0" devices="tripinfo_f_0_0.3" vType="type1" speedFactor="1.19" vaporized=""/>
    <tripinfo id="f_0_0.4" depart="55.00" departLane="np13_nt13_0" departPos="29.95" departSpeed="0.00" departDelay="0.46" arrival="193.00" arrivalLane="nt4_np5_0" arrivalPos="75.00" arrivalSpeed="19.49" duration="138.00" routeLength="1317.94" waitingTime="22.00" waitingCount="5" stopTime="0.00" timeLoss="49.55" rerouteNo="0" devices="tripinfo_f_0_0.4" vType="type1" speedFactor="1.04" vaporized=""/>
    <tripinfo id="f_0_0.5" depart="69.00" departLane="np13_nt13_0" departPos="46.23" departSpeed="0.00" departDelay="0.82" arrival="207.00" arrivalLane="nt4_np5_0" arrivalPos="75.00" arrivalSpeed="24.46" duration="138.00" routeLength="1301.66" waitingTime="29.00" waitingCount="4" stopTime="0.00" timeLoss="63.98" rerouteNo="0" devices="tripinfo_f_0_0.5" vType="type1" speedFactor="1.22" vaporized=""/>
    <tripinfo id="f_0_2.2" depart="17.00" departLane="np2_nt2_0" departPos="20.05" departSpeed="0.00" departDelay="0.64" arrival="213.00" arrivalLane="nt15_np10_0" arrivalPos="75.00" arrivalSpeed="8.07" duration="196.00" routeLength="931.03" waitingTime="82.00" waitingCount="6" stopTime="0.00" timeLoss="110.67" rerouteNo="0" devices="tripinfo_f_0_2.2" vType="type1" speedFactor="0.91" vaporized=""/>
    <tripinfo id="f_0_2.3" depart="25.00" departLane="np2_nt2_0" departPos="40.89" departSpeed="0.00" departDelay="0.45" arrival="215.00" arrivalLane="nt15_np10_0" arrivalPos="75.00" arrivalSpeed="8.88" duration="190.00" routeLength="910.19" waitingTime="73.00" waitingCount="6" stopTime="0.00" timeLoss="111.93" rerouteNo="0" devices="tripinfo_f_0_2.3" vType="type1" speedFactor="0.98" vaporized=""/>
    <tripinfo id="f_0_2.4" depart="33.00" departLane="np2_nt2_0" departPos="8.43" departSpeed="0.00" departDelay="0.27" arrival="219.00" arrivalLane="nt15_np10_0" arrivalPos="75.00" arrivalSpeed="10.34" duration="186.00" routeLength="942.65" waitingTime="72.00" waitingCount="7" stopTime="0.00" timeLoss="109.64" rerouteNo="0" devices="tripinfo_f_0_2.4" vType="type1" speedFactor="1.03" vaporized=""/>
    <tripinfo id="f_0_2.5" depart="41.00" departLane="np2_nt2_0" departPos="33.59" departSpeed="0.00" departDelay="0.09" arrival="221.00" arrivalLane="nt15_np10_0" arrivalPos="75.00" arrivalSpeed="11.39" duration="180.00" routeLength="917.49" waitingTime="60.00" waitingCount="8" stopTime="0.00" timeLoss="106.27" rerouteNo="0" devices="tripinfo_f_0_2.5" vType="type1" speedFactor="1.05" vaporized=""/>
    <tripinfo id="f_0_1.2" depart="28.00" departLane="np16_nt1_0" departPos="41.56" departSpeed="0.00" departDelay="0.73" arrival="224.00" arrivalLane="nt16_np8_0" arrivalPos="75.00" arrivalSpeed="19.40" duration="196.00" routeLength="1306.32" waitingTime="57.00" waitingCount="7" stopTime="0.00" timeLoss="104.91" rerouteNo="0" devices="tripinfo_f_0_1.2" vType="type1" speedFactor="1.00" vaporized=""/>
    <tripinfo id="f_0_2.6" depart="50.00" departLane="np2_nt2_0" departPos="2.63" departSpeed="0.00" departDelay="0.91" arrival="224.00" arrivalLane="nt15_np10_0" arrivalPos="75.00" arrivalSpeed="10.43" duration="174.00" routeLength="948.45" waitingTime="43.00" waitingCount="6" stopTime="0.00" timeLoss="90.20" rerouteNo="0" devices="tripinfo_f_0_2.6" vType="type1" speedFactor="0.96" vaporized=""/>
    <tripinfo id="f_0_3.7" depart="58.00" departLane="np3_nt3_0" departPos="37.84" departSpeed="0.00" departDelay="0.73" arrival="230.00" arrivalLane="nt14_np11_0" arrivalPos="75.00" arrivalSpeed="7.08" duration="172.00" routeLength="913.25" waitingTime="50.00" waitingCount="3" stopTime="0.00" timeLoss="74.60" rerouteNo="0" devices="tripinfo_f_0_3.7" vType="type1" speedFactor="0.79" vaporized=""/>
    <tripinfo id="f_0_3.8" depart="66.00" departLane="np3_nt3_0" departPos="6.07" departSpeed="0.00" departDelay="0.54" arrival="231.00" arrivalLane="nt14_np11_0" arrivalPos="75.00" arrivalSpeed="10.09" duration="165.00" routeLength="945.02" waitingTime="64.00" waitingCount="3" stopTime="0.00" timeLoss="88.07" rerouteNo="0" devices="tripinfo_f_0_3.8" vType="type1" speedFactor="1.03" vaporized=""/>
    <tripinfo id="f_0_0.6" depart="82.00" departLane="np13_nt13_0" departPos="33.89" departSpeed="0.00" departDelay="0.18" arrival="231.00" arrivalLane="nt4_np5_0" arrivalPos="75.00" arrivalSpeed="18.36" duration="149.00" routeLength="1314.00" waitingTime="26.00" waitingCount="3" stopTime="0.00" timeLoss="50.58" rerouteNo="0" devices="tripinfo_f_0_0.6" vType="type1" speedFactor="0.93" vaporized=""/>
    <tripinfo id="f_0_0.7" depart="96.00" departLane="np13_nt13_0" departPos="3.20" departSpeed="0.00" departDelay="0.55" arrival="233.00" arrivalLane="nt4_np5_0" arrivalPos="75.00" arrivalSpeed="20.72" duration="137.00" routeLength="1344.69" waitingTime="14.00" waitingCount="2" stopTime="0.00" timeLoss="51.76" rerouteNo="0" devices="tripinfo_f_0_0.7" vType="type1" speedFactor="1.10" vaporized=""/>
    <tripinfo id="f_0_0.8" depart="110.00" departLane="np13_nt13_0" departPos="2.19" departSpeed="0.00" departDelay="0.91" arrival="234.00" arrivalLane="nt4_np5_0" arrivalPos="75.00" arrivalSpeed="21.79" duration="124.00" routeLength="1345.70" waitingTime="18.00" waitingCount="3" stopTime="0.00" timeLoss="45.26" rerouteNo="0" devices="tripinfo_f_0_0.8" vType="type1" speedFactor="1.19" vaporized=""/>
    <tripinfo id="f_0_3.9" depart="74.00" departLane="np3_nt3_0" departPos="40.04" departSpeed="0.00" departDelay="0.36" arrival="237.00" arrivalLane="nt14_np11_0" arrivalPos="75.00" arrivalSpeed="10.33" duration="163.00" routeLength="911.05" waitingTime="64.00" waitingCount="4" stopTime="0.00" timeLoss="88.71" rerouteNo="0" devices="tripinfo_f_0_3.9" vType="type1" speedFactor="1.03" vaporized=""/>
    <tripinfo id="f_0_1.3" depart="41.00" departLane="np16_nt1_0" departPos="19.28" departSpeed="0.00" departDelay="0.09" arrival="239.00" arrivalLane="nt16_np8_0" arrivalPos="75.00" arrivalSpeed="17.22" duration="198.00" routeLength="1328.60" waitingTime="41.00" waitingCount="9" stopTime="0.00" timeLoss="98.78" rerouteNo="0" devices="tripinfo_f_0_1.3" vType="type1" speedFactor="0.94" vaporized=""/>
    <tripinfo id="f_0_1.4" depart="55.00" departLane="np16_nt1_0" departPos="24.66" departSpeed="0.00" departDelay="0.46" arrival="247.00" arrivalLane="nt16_np8_0" arrivalPos="75.00" arrivalSpeed="16.62" duration="192.00" routeLength="1323.22" waitingTime="24.00" waitingCount="6" stopTime="0.00" timeLoss="86.73" rerouteNo="0" devices="tripinfo_f_0_1.4" vType="type1" speedFactor="0.87" vaporized=""/>
    <tripinfo id="f_0_3.10" depart="82.00" departLane="np3_nt3_0" departPos="22.35" departSpeed="0.00" departDelay="0.18" arrival="247.00" arrivalLane="nt14_np11_0" arrivalPos="75.00" arrivalSpeed="9.43" duration="165.00" routeLength="928.74" waitingTime="58.00" waitingCount="5" stopTime="0.00" timeLoss="87.14" rerouteNo="0" devices="tripinfo_f_0_3.10" vType="type1" speedFactor="1.00" vaporized=""/>
    <tripinfo id="f_0_3.11" depart="90.00" departLane="np3_nt3_0" departPos="8.85" departSpeed="0.00" departDelay="0.00" arrival="249.00" arrivalLane="nt14_np11_0" arrivalPos="75.00" arrivalSpeed="11.90" duration="159.00" routeLength="942.24" waitingTime="47.00" waitingCount="5" stopTime="0.00" timeLoss="88.99" rerouteNo="0" devices="tripinfo_f_0_3.11" vType="type1" speedFactor="1.14" vaporized=""/>
    <tripinfo id="f_0_3.12" depart="99.00" departLane="np3_nt3_0" departPos="16.47" departSpeed="0.00" departDelay="0.82" arrival="252.00" arrivalLane="nt14_np11_0" arrivalPos="75.00" arrivalSpeed="7.93" duration="153.00" routeLength="934.62" waitingTime="33.00" waitingCount="5" stopTime="0.00" timeLoss="69.03" rerouteNo="0" devices="tripinfo_f_0_3.12" vType="type1" speedFactor="0.94" vaporized=""/>
    <tripinfo id="f_0_3.13" depart="107.00" departLane="np3_nt3_0" departPos="25.43" departSpeed="0.00" departDelay="0.63" arrival="254.00" arrivalLane="nt14_np11_0" arrivalPos="75.00" arrivalSpeed="10.72" duration="147.00" routeLength="925.66" waitingTime="25.00" waitingCount="4" stopTime="0.00" timeLoss="70.04" rerouteNo="0" devices="tripinfo_f_0_3.13" vType="type1" speedFactor="1.01" vaporized=""/>
    <tripinfo id="f_0_0.9" depart="123.00" departLane="np13_nt13_0" departPos="65.18" departSpeed="0.00" departDelay="0.28" arrival="260.00" arrivalLane="nt4_np5_0" arrivalPos="75.00" arrivalSpeed="16.89" duration="137.00" routeLength="1282.71" waitingTime="13.00" waitingCount="4" stopTime="0.00" timeLoss="42.93" rerouteNo="0" devices="tripinfo_f_0_0.9" vType="type1" speedFactor="0.95" vaporized=""/>
    <tripinfo id="f_0_3.14" depart="115.00" departLane="np3_nt3_0" departPos="9.01" departSpeed="0.00" departDelay="0.45" arrival="262.00" arrivalLane="nt14_np11_0" arrivalPos="75.00" arrivalSpeed="11.11" duration="147.00" routeLength="942.08" waitingTime="22.00" waitingCount="6" stopTime="0.00" timeLoss="71.15" rerouteNo="0" devices="tripinfo_f_0_3.14" vType="type1" speedFactor="1.05" vaporized=""/>
    <tripinfo id="f_0_3.15" depart="123.00" departLane="np3_nt3_0" departPos="7.65" departSpeed="0.00" departDelay="0.27" arrival="266.00" arrivalLane="nt14_np11_0" arrivalPos="75.00" arrivalSpeed="7.60" duration="143.00" routeLength="943.44" waitingTime="24.00" waitingCount="3" stopTime="0.00" timeLoss="50.99" rerouteNo="0" devices="tripinfo_f_0_3.15" vType="type1" speedFactor="0.86" vaporized=""/>
    <tripinfo id="f_0_3.16" depart="131.00" departLane="np3_nt3_0" departPos="31.79" departSpeed="0.00" departDelay="0.09" arrival="271.00" arrivalLane="nt14_np11_0" arrivalPos="75.00" arrivalSpeed="10.55" duration="140.00" routeLength="919.30" waitingTime="24.00" waitingCount="5" stopTime="0.00" timeLoss="72.00" rerouteNo="0" devices="tripinfo_f_0_3.16" vType="type1" speedFactor="1.13" vaporized=""/>
    <tripinfo id="f_0_3.17" depart="140.00" departLane="np3_nt3_0" departPos="45.53" departSpeed="0.00" departDelay="0.91" arrival="276.00" arrivalLane="nt14_np11_0" arrivalPos="75.00" arrivalSpeed="11.44" duration="136.00" routeLength="905.56" waitingTime="31.00" waitingCount="6" stopTime="0.00" timeLoss="63.31" rerouteNo="0" devices="tripinfo_f_0_3.17" vType="type1" speedFactor="1.05" vaporized=""/>
    <tripinfo id="f_0_2.7" depart="58.00" departLane="np2_nt2_0" departPos="42.69" departSpeed="0.00" departDelay="0.73" arrival="282.00" arrivalLane="nt15_np10_0" arrivalPos="75.00" arrivalSpeed="9.68" duration="224.00" routeLength="908.39" waitingTime="70.00" waitingCount="8" stopTime="0.00" timeLoss="150.34" rerouteNo="0" devices="tripinfo_f_0_2.7" vType="type1" speedFactor="1.04" vaporized=""/>
    <tripinfo id="f_0_2.8" depart="66.00" departLane="np2_nt2_0" departPos="15.23" departSpeed="0.00" departDelay="0.54" arrival="285.00" arrivalLane="nt15_np10_0" arrivalPos="75.00" arrivalSpeed="9.50" duration="219.00" routeLength="935.85" waitingTime="73.00" waitingCount="6" stopTime="0.00" timeLoss="134.48" rerouteNo="0" devices="tripinfo_f_0_2.8" vType="type1" speedFactor="0.93" vaporized=""/>
    <tripinfo id="f_0_2.9" depart="74.00" departLane="np2_nt2_0" departPos="2.33" departSpeed="0.00" departDelay="0.36" arrival="287.00" arrivalLane="nt15_np10_0" arrivalPos="75.00" arrivalSpeed="8.30" duration="213.00" routeLength="948.75" waitingTime="65.00" waitingCount="6" stopTime="0.00" timeLoss="130.85" rerouteNo="0" devices="tripinfo_f_0_2.9" vType="type1" speedFactor="0.97" vaporized=""/>
    <tripinfo id="f_0_2.10" depart="82.00" departLane="np2_nt2_0" departPos="8.17" departSpeed="0.00" departDelay="0.18" arrival="291.00" arrivalLane="nt15_np10_0" arrivalPos="75.00" arrivalSpeed="7.64" duration="209.00" routeLength="942.91" waitingTime="54.00" waitingCount="5" stopTime="0.00" timeLoss="110.05" rerouteNo="0" devices="tripinfo_f_0_2.10" vType="type1" speedFactor="0.80" vaporized=""/>
    <tripinfo id="f_0_0.10" depart="137.00" departLane="np13_nt13_0" departPos="29.36" departSpeed="0.00" departDelay="0.64" arrival="293.00" arrivalLane="nt4_np5_0" arrivalPos="75.00" arrivalSpeed="19.86" duration="156.00" routeLength="1318.53" waitingTime="35.00" waitingCount="5" stopTime="0.00" timeLoss="69.51" rerouteNo="0" devices="tripinfo_f_0_0.10" vType="type1" speedFactor="1.07" vaporized=""/>
    <tripinfo id="f_0_0.11" depart="150.00" departLane="np13_nt13_0" departPos="49.31" departSpeed="0.00" departDelay="0.00" arrival="295.00" arrivalLane="nt4_np5_0" arrivalPos="75.00" arrivalSpeed="17.32" duration="145.00" routeLength="1298.58" waitingTime="13.00" waitingCount="4" stopTime="0.00" timeLoss="49.64" rerouteNo="0" devices="tripinfo_f_0_0.11" vType="type1" speedFactor="0.95" vaporized=""/>
    <tripinfo id="f_0_2.11" depart="90.00" departLane="np2_nt2_0" departPos="27.93" departSpeed="0.00" departDelay="0.00" arrival="297.00" arrivalLane="nt15_np10_0" arrivalPos="75.00" arrivalSpeed="9.27" duration="207.00" routeLength="923.15" waitingTime="49.00" waitingCount="4" stopTime="0.00" timeLoss="126.99" rerouteNo="0" devices="tripinfo_f_0_2.11" vType="type1" speedFactor="0.96" vaporized=""/>
    <tripinfo id="f_0_0.12" depart="164.00" departLane="np13_nt13_0" departPos="3.67" departSpeed="0.00" departDelay="0.37" arrival="297.00" arrivalLane="nt4_np5_0" arrivalPos="75.00" arrivalSpeed="18.74" duration="133.00" routeLength="1344.22" waitingTime="4.00" waitingCount="1" stopTime="0.00" timeLoss="36.87" rerouteNo="0" devices="tripinfo_f_0_0.12" vType="type1" speedFactor="0.97" vaporized=""/>
    <tripinfo id="f_0_3.18" depart="148.00" departLane="np3_nt3_0" departPos="25.44" departSpeed="0.00" departDelay="0.72" arrival="298.00" arrivalLane="nt14_np11_0" arrivalPos="75.00" arrivalSpeed="8.91" duration="150.00" routeLength="925.65" waitingTime="42.00" waitingCount="4" stopTime="0.00" timeLoss="69.84" rerouteNo="0" devices="tripinfo_f_0_3.18" vType="type1" speedFactor="0.97" vaporized=""/>
    <tripinfo id="f_0_3.19" depart="156.00" departLane="np3_nt3_0" departPos="49.84" departSpeed="0.00" departDelay="0.54" arrival="299.00" arrivalLane="nt14_np11_0" arrivalPos="75.00" arrivalSpeed="12.35" duration="143.00" routeLength="901.25" waitingTime="39.00" waitingCount="5" stopTime="0.00" timeLoss="82.81" rerouteNo="0" devices="tripinfo_f_0_3.19" vType="type1" speedFactor="1.25" vaporized=""/>
    <tripinfo id="f_0_2.12" depart="99.00" departLane="np2_nt2_0" departPos="41.95" departSpeed="0.00" departDelay="0.82" arrival="300.00" arrivalLane="nt15_np10_0" arrivalPos="75.00" arrivalSpeed="8.81" duration="201.00" routeLength="909.13" waitingTime="72.00" waitingCount="7" stopTime="0.00" timeLoss="119.61" rerouteNo="0" devices="tripinfo_f_0_2.12" vType="type1" speedFactor="0.94" vaporized=""/>
    <tripinfo id="f_0_1.5" depart="69.00" departLane="np16_nt1_0" departPos="10.73" departSpeed="0.00" departDelay="0.82" arrival="301.00" arrivalLane="nt16_np8_0" arrivalPos="75.00" arrivalSpeed="16.73" duration="232.00" routeLength="1337.15" waitingTime="60.00" waitingCount="4" stopTime="0.00" timeLoss="127.56" rerouteNo="0" devices="tripinfo_f_0_1.5" vType="type1" speedFactor="0.89" vaporized=""/>
    <tripinfo id="f_0_3.20" depart="164.00" departLane="np3_nt3_0" departPos="33.33" departSpeed="0.00" departDelay="0.36" arrival="301.00" arrivalLane="nt14_np11_0" arrivalPos="75.00" arrivalSpeed="11.93" duration="137.00" routeLength="917.76" waitingTime="32.00" waitingCount="6" stopTime="0.00" timeLoss="67.78" rerouteNo="0" devices="tripinfo_f_0_3.20" vType="type1" speedFactor="1.11" vaporized=""/>
    <tripinfo id="f_0_2.13" depart="107.00" departLane="np2_nt2_0" departPos="12.54" departSpeed="0.00" departDelay="0.63" arrival="303.00" arrivalLane="nt15_np10_0" arrivalPos="75.00" arrivalSpeed="8.80" duration="196.00" routeLength="938.54" waitingTime="58.00" waitingCount="5" stopTime="0.00" timeLoss="106.53" rerouteNo="0" devices="tripinfo_f_0_2.13" vType="type1" speedFactor="0.89" vaporized=""/>
    <tripinfo id="f_0_2.14" depart="115.00" departLane="np2_nt2_0" departPos="8.60" departSpeed="0.00" departDelay="0.45" arrival="305.00" arrivalLane="nt15_np10_0" arrivalPos="75.00" arrivalSpeed="9.15" duration="190.00" routeLength="942.48" waitingTime="51.00" waitingCount="4" stopTime="0.00" timeLoss="100.52" rerouteNo="0" devices="tripinfo_f_0_2.14" vType="type1" speedFactor="0.88" vaporized=""/>
    <tripinfo id="f_0_3.21" depart="172.00" departLane="np3_nt3_0" departPos="3.27" departSpeed="0.00" departDelay="0.18" arrival="314.00" arrivalLane="nt14_np11_0" arrivalPos="75.00" arrivalSpeed="9.54" duration="142.00" routeLength="947.82" waitingTime="31.00" waitingCount="5" stopTime="0.00" timeLoss="62.38" rerouteNo="0" devices="tripinfo_f_0_3.21" vType="type1" speedFactor="0.99" vaporized=""/>
    <tripinfo id="f_0_1.6" depart="82.00" departLane="np16_nt1_0" departPos="28.47" departSpeed="0.00" departDelay="0.18" arrival="315.00" arrivalLane="nt16_np8_0" arrivalPos="75.00" arrivalSpeed="14.77" duration="233.00" routeLength="1319.41" waitingTime="54.00" waitingCount="5" stopTime="0.00" timeLoss="116.04" rerouteNo="0" devices="tripinfo_f_0_1.6" vType="type1" speedFactor="0.79" vaporized=""/>
    <tripinfo id="f_0_2.15" depart="123.00" departLane="np2_nt2_0" departPos="12.07" departSpeed="0.00" departDelay="0.27" arrival="318.00" arrivalLane="nt15_np10_0" arrivalPos="75.00" arrivalSpeed="10.39" duration="195.00" routeLength="939.01" waitingTime="55.00" waitingCount="5" stopTime="0.00" timeLoss="113.49" rerouteNo="0" devices="tripinfo_f_0_2.15" vType="type1" speedFactor="0.97" vaporized=""/>
    <tripinfo id="f_0_0.13" depart="178.00" departLane="np13_nt13_0" departPos="45.56" departSpeed="0.00" departDelay="0.73" arrival="324.00" arrivalLane="nt4_np5_0" arrivalPos="75.00" arrivalSpeed="21.55" duration="146.00" routeLength="1302.33" waitingTime="37.00" waitingCount="4" stopTime="0.00" timeLoss="63.07" rerouteNo="0" devices="tripinfo_f_0_0.13" vType="type1" speedFactor="1.10" vaporized=""/>
    <tripinfo id="f_0_2.16" depart="131.00" departLane="np2_nt2_0" departPos="41.50" departSpeed="0.00" departDelay="0.09" arrival="325.00" arrivalLane="nt15_np10_0" arrivalPos="75.00" arrivalSpeed="10.90" duration="194.00" routeLength="909.58" waitingTime="52.00" waitingCount="7" stopTime="0.00" timeLoss="120.79" rerouteNo="0" devices="tripinfo_f_0_2.16" vType="type1" speedFactor="1.04" vaporized=""/>
    <tripinfo id="f_0_3.22" depart="180.00" departLane="np3_nt3_0" departPos="44.57" departSpeed="0.00" departDelay="0.00" arrival="326.00" arrivalLane="nt14_np11_0" arrivalPos="75.00" arrivalSpeed="12.23" duration="146.00" routeLength="906.52" waitingTime="34.00" waitingCount="5" stopTime="0.00" timeLoss="78.48" rerouteNo="0" devices="tripinfo_f_0_3.22" vType="type1" speedFactor="1.12" vaporized=""/>
    <tripinfo id="f_0_3.23" depart="189.00" departLane="np3_nt3_0" departPos="23.24" departSpeed="0.00" departDelay="0.81" arrival="329.00" arrivalLane="nt14_np11_0" arrivalPos="75.00" arrivalSpeed="9.32" duration="140.00" routeLength="927.85" waitingTime="34.00" waitingCount="5" stopTime="0.00" timeLoss="64.43" rerouteNo="0" devices="tripinfo_f_0_3.23" vType="type1" speedFactor="1.03" vaporized=""/>
    <tripinfo id="f_0_1.7" depart="96.00" departLane="np16_nt1_0" departPos="0.79" departSpeed="0.00" departDelay="0.55" arrival="330.00" arrivalLane="nt16_np8_0" arrivalPos="75.00" arrivalSpeed="18.08" duration="234.00" routeLength="1347.09" waitingTime="71.00" waitingCount="8" stopTime="0.00" timeLoss="130.63" rerouteNo="0" devices="tripinfo_f_0_1.7" vType="type1" speedFactor="0.91" vaporized=""/>
    <tripinfo id="f_0_2.17" depart="140.00" departLane="np2_nt2_0" departPos="25.74" departSpeed="0.00" departDelay="0.91" arrival="330.00" arrivalLane="nt15_np10_0" arrivalPos="75.00" arrivalSpeed="10.46" duration="190.00" routeLength="925.34" waitingTime="48.00" waitingCount="8" stopTime="0.00" timeLoss="110.77" rerouteNo="0" devices="tripinfo_f_0_2.17" vType="type1" speedFactor="0.97" vaporized=""/>
    <tripinfo id="f_0_1.8" depart="110.00" departLane="np16_nt1_0" departPos="19.88" departSpeed="0.00" departDelay="0.91" arrival="331.00" arrivalLane="nt16_np8_0" arrivalPos="75.00" arrivalSpeed="17.74" duration="221.00" routeLength="1328.00" waitingTime="56.00" waitingCount="7" stopTime="0.00" timeLoss="125.34" rerouteNo="0" devices="tripinfo_f_0_1.8" vType="type1" speedFactor="0.97" vaporized=""/>
    <tripinfo id="f_0_3.24" depart="197.00" departLane="np3_nt3_0" departPos="12.55" departSpeed="0.00" departDelay="0.63" arrival="332.00" arrivalLane="nt14_np11_0" arrivalPos="75.00" arrivalSpeed="10.09" duration="135.00" routeLength="938.54" waitingTime="20.00" waitingCount="5" stopTime="0.00" timeLoss="54.96" rerouteNo="0" devices="tripinfo_f_0_3.24" vType="type1" speedFactor="0.98" vaporized=""/>
    <tripinfo id="f_0_0.14" depart="191.00" departLane="np13_nt13_0" departPos="4.74" departSpeed="0.00" departDelay="0.10" arrival="334.00" arrivalLane="nt4_np5_0" arrivalPos="75.00" arrivalSpeed="21.33" duration="143.00" routeLength="1343.15" waitingTime="32.00" waitingCount="4" stopTime="0.00" timeLoss="57.71" rerouteNo="0" devices="tripinfo_f_0_0.14" vType="type1" speedFactor="1.09" vaporized=""/>
    <tripinfo id="f_0_3.25" depart="205.00" departLane="np3_nt3_0" departPos="8.30" departSpeed="0.00" departDelay="0.45" arrival="334.00" arrivalLane="nt14_np11_0" arrivalPos="75.00" arrivalSpeed="8.86" duration="129.00" routeLength="942.79" waitingTime="10.00" waitingCount="5" stopTime="0.00" timeLoss="50.30" rerouteNo="0" devices="tripinfo_f_0_3.25" vType="type1" speedFactor="1.00" vaporized=""/>
    <tripinfo id="f_0_2.18" depart="148.00" departLane="np2_nt2_0" departPos="6.24" departSpeed="0.00" departDelay="0.72" arrival="335.00" arrivalLane="nt15_np10_0" arrivalPos="75.00" arrivalSpeed="10.48" duration="187.00" routeLength="944.84" waitingTime="49.00" waitingCount="6" stopTime="0.00" timeLoss="111.62" rerouteNo="0" devices="tripinfo_f_0_2.18" vType="type1" speedFactor="1.05" vaporized=""/>
    <tripinfo id="f_0_2.19" depart="156.00" departLane="np2_nt2_0" departPos="33.70" departSpeed="0.00" departDelay="0.54" arrival="337.00" arrivalLane="nt15_np10_0" arrivalPos="75.00" arrivalSpeed="10.61" duration="181.00" routeLength="917.38" waitingTime="50.00" waitingCount="7" stopTime="0.00" timeLoss="110.45" rerouteNo="0" devices="tripinfo_f_0_2.19" vType="type1" speedFactor="1.09" vaporized=""/>
    <tripinfo id="f_0_2.20" depart="164.00" departLane="np2_nt2_0" departPos="28.02" departSpeed="0.00" departDelay="0.36" arrival="338.00" arrivalLane="nt15_np10_0" arrivalPos="75.00" arrivalSpeed="13.04" duration="174.00" routeLength="923.06" waitingTime="43.00" waitingCount="8" stopTime="0.00" timeLoss="109.72" rerouteNo="0" devices="tripinfo_f_0_2.20" vType="type1" speedFactor="1.20" vaporized=""/>