<?xml version="1.0" encoding="UTF-8"?>

<!-- generated on 2023-08-23 16:00:00 by Eclipse SUMO libsumo Version 1.18.0
<configuration xmlns:xsi="http://www.w3.org/2001/XMLSchema-instance" xsi:noNamespaceSchemaLocation="http://sumo.dlr.de/xsd/libsumoConfiguration.xsd">

    <input>
        <net-file value="/home/stefan/RESCO/./environments/arterial4x4/arterial4x4.net.xml"/>
        <route-files value="/home/stefan/RESCO/./environments/arterial4x4/arterial4x4_13.rou.xml"/>
    </input>

    <output>
        <tripinfo-output value="/home/stefan/results/IDDQN-tr0-arterial4x4-0-drq_norm-wait_norm/tripinfo_13.xml"/>
        <tripinfo-output.write-unfinished value="true"/>
    </output>

    <processing>
        <time-to-teleport value="-1"/>
    </processing>

    <report>
        <no-warnings value="True"/>
        <no-step-log value="True"/>
    </report>

    <random_number>
        <random value="true"/>
    </random_number>

</configuration>
-->

<tripinfos xmlns:xsi="http://www.w3.org/2001/XMLSchema-instance" xsi:noNamespaceSchemaLocation="http://sumo.dlr.de/xsd/tripinfo_file.xsd">
    <tripinfo id="f_0_3.0" depart="0.00" departLane="np3_nt3_0" departPos="61.32" departSpeed="0.00" departDelay="0.00" arrival="134.00" arrivalLane="nt14_np11_0" arrivalPos="75.00" arrivalSpeed="9.04" duration="134.00" routeLength="889.77" waitingTime="24.00" waitingCount="2" stopTime="0.00" timeLoss="47.76" rerouteNo="0" devices="tripinfo_f_0_3.0" vType="type1" speedFactor="0.86" vaporized=""/>
    <tripinfo id="f_0_3.1" depart="9.00" departLane="np3_nt3_0" departPos="54.23" departSpeed="0.00" departDelay="0.82" arrival="136.00" arrivalLane="nt14_np11_0" arrivalPos="75.00" arrivalSpeed="10.16" duration="127.00" routeLength="896.86" waitingTime="16.00" waitingCount="3" stopTime="0.00" timeLoss="53.77" rerouteNo="0" devices="tripinfo_f_0_3.1" vType="type1" speedFactor="1.03" vaporized=""/>
    <tripinfo id="f_0_3.2" depart="17.00" departLane="np3_nt3_0" departPos="42.56" departSpeed="0.00" departDelay="0.64" arrival="138.00" arrivalLane="nt14_np11_0" arrivalPos="75.00" arrivalSpeed="10.63" duration="121.00" routeLength="908.53" waitingTime="11.00" waitingCount="3" stopTime="0.00" timeLoss="48.24" rerouteNo="0" devices="tripinfo_f_0_3.2" vType="type1" speedFactor="1.05" vaporized=""/>
    <tripinfo id="f_0_2.0" depart="0.00" departLane="np2_nt2_0" departPos="29.56" departSpeed="0.00" departDelay="0.00" arrival="163.00" arrivalLane="nt15_np10_0" arrivalPos="75.00" arrivalSpeed="9.95" duration="163.00" routeLength="921.52" waitingTime="54.00" waitingCount="3" stopTime="0.00" timeLoss="84.14" rerouteNo="0" devices="tripinfo_f_0_2.0" vType="type1" speedFactor="0.99" vaporized=""/>
    <tripinfo id="f_0_1.0" depart="0.00" departLane="np16_nt1_0" departPos="47.98" departSpeed="0.00" departDelay="0.00" arrival="176.00" arrivalLane="nt16_np8_0" arrivalPos="75.00" arrivalSpeed="18.43" duration="176.00" routeLength="1299.90" waitingTime="50.00" waitingCount="5" stopTime="0.00" timeLoss="83.66" rerouteNo="0" devices="tripinfo_f_0_1.0" vType="type1" speedFactor="0.99" vaporized=""/>
    <tripinfo id="f_0_3.3" depart="25.00" departLane="np3_nt3_0" departPos="13.77" departSpeed="0.00" departDelay="0.45" arrival="186.00" arrivalLane="nt14_np11_0" arrivalPos="75.00" arrivalSpeed="12.22" duration="161.00" routeLength="937.32" waitingTime="53.00" waitingCount="5" stopTime="0.00" timeLoss="92.86" rerouteNo="0" devices="tripinfo_f_0_3.3" vType="type1" speedFactor="1.15" vaporized=""/>
    <tripinfo id="f_0_0.0" depart="0.00" departLane="np13_nt13_0" departPos="55.57" departSpeed="0.00" departDelay="0.00" arrival="187.00" arrivalLane="nt4_np5_0" arrivalPos="75.00" arrivalSpeed="20.57" duration="187.00" routeLength="1292.32" waitingTime="71.00" waitingCount="4" stopTime="0.00" timeLoss="103.86" rerouteNo="0" devices="tripinfo_f_0_0.0" vType="type1" speedFactor="1.09" vaporized=""/>
    <tripinfo id="f_0_0.1" depart="14.00" departLane="np13_nt13_0" departPos="30.52" departSpeed="0.00" departDelay="0.36" arrival="189.00" arrivalLane="nt4_np5_0" arrivalPos="75.00" arrivalSpeed="21.87" duration="175.00" routeLength="1317.37" waitingTime="48.00" waitingCount="6" stopTime="0.00" timeLoss="93.98" rerouteNo="0" devices="tripinfo_f_0_0.1" vType="type1" speedFactor="1.14" vaporized=""/>
    <tripinfo id="f_0_0.2" depart="28.00" departLane="np13_nt13_0" departPos="18.79" departSpeed="0.00" departDelay="0.73" arrival="191.00" arrivalLane="nt4_np5_0" arrivalPos="75.00" arrivalSpeed="17.60" duration="163.00" routeLength="1329.10" waitingTime="35.00" waitingCount="5" stopTime="0.00" timeLoss="69.39" rerouteNo="0" devices="tripinfo_f_0_0.2" vType="type1" speedFactor="0.98" vaporized=""/>
    <tripinfo id="f_0_3.4" depart="33.00" departLane="np3_nt3_0" departPos="42.34" departSpeed="0.00" departDelay="0.27" arrival="197.00" arrivalLane="nt14_np11_0" arrivalPos="75.00" arrivalSpeed="9.83" duration="164.00" routeLength="908.75" waitingTime="66.00" waitingCount="4" stopTime="0.00" timeLoss="88.58" rerouteNo="0" devices="tripinfo_f_0_3.4" vType="type1" speedFactor="1.01" vaporized=""/>
    <tripinfo id="f_0_3.5" depart="41.00" departLane="np3_nt3_0" departPos="40.12" departSpeed="0.00" departDelay="0.09" arrival="200.00" arrivalLane="nt14_np11_0" arrivalPos="75.00" arrivalSpeed="9.56" duration="159.00" routeLength="910.97" waitingTime="46.00" waitingCount="6" stopTime="0.00" timeLoss="77.38" rerouteNo="0" devices="tripinfo_f_0_3.5" vType="type1" speedFactor="0.94" vaporized=""/>
    <tripinfo id="f_0_3.6" depart="50.00" departLane="np3_nt3_0" departPos="24.15" departSpeed="0.00" departDelay="0.91" arrival="202.00" arrivalLane="nt14_np11_0" arrivalPos="75.00" arrivalSpeed="10.81" duration="152.00" routeLength="926.94" waitingTime="30.00" waitingCount="6" stopTime="0.00" timeLoss="75.02" rerouteNo="0" devices="tripinfo_f_0_3.6" vType="type1" speedFactor="1.02" vaporized=""/>
    <tripinfo id="f_0_2.1" depart="9.00" departLane="np2_nt2_0" departPos="30.41" departSpeed="0.00" departDelay="0.82" arrival="205.00" arrivalLane="nt15_np10_0" arrivalPos="75.00" arrivalSpeed="10.18" duration="196.00" routeLength="920.67" waitingTime="84.00" waitingCount="6" stopTime="0.00" timeLoss="113.56" rerouteNo="0" devices="tripinfo_f_0_2.1" vType="type1" speedFactor="0.95" vaporized=""/>
    <tripinfo id="f_0_3.7" depart="58.00" departLane="np3_nt3_0" departPos="11.39" departSpeed="0.00" departDelay="0.73" arrival="207.00" arrivalLane="nt14_np11_0" arrivalPos="75.00" arrivalSpeed="6.92" duration="149.00" routeLength="939.70" waitingTime="13.00" waitingCount="4" stopTime="0.00" timeLoss="49.37" rerouteNo="0" devices="tripinfo_f_0_3.7" vType="type1" speedFactor="0.80" vaporized=""/>
    <tripinfo id="f_0_3.8" depart="66.00" departLane="np3_nt3_0" departPos="28.10" departSpeed="0.00" departDelay="0.54" arrival="209.00" arrivalLane="nt14_np11_0" arrivalPos="75.00" arrivalSpeed="10.20" duration="143.00" routeLength="922.99" waitingTime="17.00" waitingCount="4" stopTime="0.00" timeLoss="70.62" rerouteNo="0" devices="tripinfo_f_0_3.8" vType="type1" speedFactor="1.07" vaporized=""/>
    <tripinfo id="f_0_3.9" depart="74.00" departLane="np3_nt3_0" departPos="15.10" departSpeed="0.00" departDelay="0.36" arrival="211.00" arrivalLane="nt14_np11_0" arrivalPos="75.00" arrivalSpeed="9.48" duration="137.00" routeLength="935.99" waitingTime="8.00" waitingCount="2" stopTime="0.00" timeLoss="47.03" rerouteNo="0" devices="tripinfo_f_0_3.9" vType="type1" speedFactor="0.88" vaporized=""/>
    <tripinfo id="f_0_0.3" depart="41.00" departLane="np13_nt13_0" departPos="12.27" departSpeed="0.00" departDelay="0.09" arrival="226.00" arrivalLane="nt4_np5_0" arrivalPos="75.00" arrivalSpeed="19.21" duration="185.00" routeLength="1335.62" waitingTime="54.00" waitingCount="6" stopTime="0.00" timeLoss="91.83" rerouteNo="0" devices="tripinfo_f_0_0.3" vType="type1" speedFactor="0.99" vaporized=""/>
    <tripinfo id="f_0_3.10" depart="82.00" departLane="np3_nt3_0" departPos="0.74" departSpeed="0.00" departDelay="0.18" arrival="243.00" arrivalLane="nt14_np11_0" arrivalPos="75.00" arrivalSpeed="8.37" duration="161.00" routeLength="950.35" waitingTime="54.00" waitingCount="4" stopTime="0.00" timeLoss="78.12" rerouteNo="0" devices="tripinfo_f_0_3.10" vType="type1" speedFactor="0.97" vaporized=""/>
    <tripinfo id="f_0_0.4" depart="55.00" departLane="np13_nt13_0" departPos="33.07" departSpeed="0.00" departDelay="0.46" arrival="244.00" arrivalLane="nt4_np5_0" arrivalPos="75.00" arrivalSpeed="16.05" duration="189.00" routeLength="1314.82" waitingTime="45.00" waitingCount="6" stopTime="0.00" timeLoss="83.81" rerouteNo="0" devices="tripinfo_f_0_0.4" vType="type1" speedFactor="0.87" vaporized=""/>
    <tripinfo id="f_0_3.11" depart="90.00" departLane="np3_nt3_0" departPos="31.63" departSpeed="0.00" departDelay="0.00" arrival="245.00" arrivalLane="nt14_np11_0" arrivalPos="75.00" arrivalSpeed="9.91" duration="155.00" routeLength="919.46" waitingTime="47.00" waitingCount="5" stopTime="0.00" timeLoss="78.08" rerouteNo="0" devices="tripinfo_f_0_3.11" vType="type1" speedFactor="1.01" vaporized=""/>
    <tripinfo id="f_0_2.2" depart="17.00" departLane="np2_nt2_0" departPos="22.19" departSpeed="0.00" departDelay="0.64" arrival="263.00" arrivalLane="nt15_np10_0" arrivalPos="75.00" arrivalSpeed="7.80" duration="246.00" routeLength="928.89" waitingTime="120.00" waitingCount="8" stopTime="0.00" timeLoss="162.12" rerouteNo="0" devices="tripinfo_f_0_2.2" vType="type1" speedFactor="0.92" vaporized=""/>
    <tripinfo id="f_0_3.12" depart="99.00" departLane="np3_nt3_0" departPos="16.47" departSpeed="0.00" departDelay="0.82" arrival="273.00" arrivalLane="nt14_np11_0" arrivalPos="75.00" arrivalSpeed="10.77" duration="174.00" routeLength="934.62" waitingTime="61.00" waitingCount="6" stopTime="0.00" timeLoss="94.72" rerouteNo="0" devices="tripinfo_f_0_3.12" vType="type1" speedFactor="1.00" vaporized=""/>
    <tripinfo id="f_0_3.13" depart="107.00" departLane="np3_nt3_0" departPos="13.36" departSpeed="0.00" departDelay="0.63" arrival="276.00" arrivalLane="nt14_np11_0" arrivalPos="75.00" arrivalSpeed="7.88" duration="169.00" routeLength="937.73" waitingTime="53.00" waitingCount="6" stopTime="0.00" timeLoss="84.62" rerouteNo="0" devices="tripinfo_f_0_3.13" vType="type1" speedFactor="0.93" vaporized=""/>
    <tripinfo id="f_0_2.3" depart="25.00" departLane="np2_nt2_0" departPos="23.02" departSpeed="0.00" departDelay="0.45" arrival="277.00" arrivalLane="nt15_np10_0" arrivalPos="75.00" arrivalSpeed="9.13" duration="252.00" routeLength="928.06" waitingTime="116.00" waitingCount="10" stopTime="0.00" timeLoss="174.76" rerouteNo="0" devices="tripinfo_f_0_2.3" vType="type1" speedFactor="1.02" vaporized=""/>
    <tripinfo id="f_0_2.4" depart="33.00" departLane="np2_nt2_0" departPos="46.52" departSpeed="0.00" departDelay="0.27" arrival="287.00" arrivalLane="nt15_np10_0" arrivalPos="75.00" arrivalSpeed="9.27" duration="254.00" routeLength="904.56" waitingTime="122.00" waitingCount="11" stopTime="0.00" timeLoss="177.78" rerouteNo="0" devices="tripinfo_f_0_2.4" vType="type1" speedFactor="0.99" vaporized=""/>
    <tripinfo id="f_0_1.1" depart="14.00" departLane="np16_nt1_0" departPos="39.29" departSpeed="0.00" departDelay="0.36" arrival="289.00" arrivalLane="nt16_np8_0" arrivalPos="75.00" arrivalSpeed="16.50" duration="275.00" routeLength="1308.59" waitingTime="113.00" waitingCount="8" stopTime="0.00" timeLoss="174.33" rerouteNo="0" devices="tripinfo_f_0_1.1" vType="type1" speedFactor="0.91" vaporized=""/>
    <tripinfo id="f_0_2.5" depart="41.00" departLane="np2_nt2_0" departPos="44.18" departSpeed="0.00" departDelay="0.09" arrival="303.00" arrivalLane="nt15_np10_0" arrivalPos="75.00" arrivalSpeed="8.11" duration="262.00" routeLength="906.90" waitingTime="129.00" waitingCount="10" stopTime="0.00" timeLoss="181.95" rerouteNo="0" devices="tripinfo_f_0_2.5" vType="type1" speedFactor="0.95" vaporized=""/>
    <tripinfo id="f_0_0.5" depart="69.00" departLane="np13_nt13_0" departPos="60.48" departSpeed="0.00" departDelay="0.82" arrival="311.00" arrivalLane="nt4_np5_0" arrivalPos="75.00" arrivalSpeed="13.08" duration="242.00" routeLength="1287.41" waitingTime="86.00" waitingCount="5" stopTime="0.00" timeLoss="122.87" rerouteNo="0" devices="tripinfo_f_0_0.5" vType="type1" speedFactor="0.75" vaporized=""/>
    <tripinfo id="f_0_0.6" depart="82.00" departLane="np13_nt13_0" departPos="55.34" departSpeed="0.00" departDelay="0.18" arrival="363.00" arrivalLane="nt4_np5_0" arrivalPos="75.00" arrivalSpeed="21.62" duration="281.00" routeLength="1292.55" waitingTime="134.00" waitingCount="8" stopTime="0.00" timeLoss="199.93" rerouteNo="0" devices="tripinfo_f_0_0.6" vType="type1" speedFactor="1.12" vaporized=""/>
    <tripinfo id="f_0_1.2" depart="28.00" departLane="np16_nt1_0" departPos="10.89" departSpeed="0.00" departDelay="0.73" arrival="369.00" arrivalLane="nt16_np8_0" arrivalPos="75.00" arrivalSpeed="20.84" duration="341.00" routeLength="1336.99" waitingTime="186.00" waitingCount="10" stopTime="0.00" timeLoss="255.65" rerouteNo="0" devices="tripinfo_f_0_1.2" vType="type1" speedFactor="1.08" vaporized=""/>
    <tripinfo id="f_0_2.6" depart="50.00" departLane="np2_nt2_0" departPos="30.01" departSpeed="0.00" departDelay="0.91" arrival="377.00" arrivalLane="nt15_np10_0" arrivalPos="75.00" arrivalSpeed="8.81" duration="327.00" routeLength="921.07" waitingTime="181.00" waitingCount="10" stopTime="0.00" timeLoss="248.53" rerouteNo="0" devices="tripinfo_f_0_2.6" vType="type1" speedFactor="0.98" vaporized=""/>
    <tripinfo id="f_0_2.7" depart="58.00" departLane="np2_nt2_0" departPos="37.38" departSpeed="0.00" departDelay="0.73" arrival="385.00" arrivalLane="nt15_np10_0" arrivalPos="75.00" arrivalSpeed="11.86" duration="327.00" routeLength="913.70" waitingTime="178.00" waitingCount="10" stopTime="0.00" timeLoss="257.42" rerouteNo="0" devices="tripinfo_f_0_2.7" vType="type1" speedFactor="1.10" vaporized=""/>
    <tripinfo id="f_0_1.3" depart="41.00" departLane="np16_nt1_0" departPos="38.13" departSpeed="0.00" departDelay="0.09" arrival="403.00" arrivalLane="nt16_np8_0" arrivalPos="75.00" arrivalSpeed="18.60" duration="362.00" routeLength="1309.75" waitingTime="183.00" waitingCount="12" stopTime="0.00" timeLoss="268.17" rerouteNo="0" devices="tripinfo_f_0_1.3" vType="type1" speedFactor="0.98" vaporized=""/>
    <tripinfo id="f_0_3.14" depart="115.00" departLane="np3_nt3_0" departPos="13.38" departSpeed="0.00" departDelay="0.45" arrival="413.00" arrivalLane="nt14_np11_0" arrivalPos="75.00" arrivalSpeed="8.57" duration="298.00" routeLength="937.71" waitingTime="174.00" waitingCount="6" stopTime="0.00" timeLoss="211.37" rerouteNo="0" devices="tripinfo_f_0_3.14" vType="type1" speedFactor="0.91" vaporized=""/>
    <tripinfo id="f_0_3.15" depart="123.00" departLane="np3_nt3_0" departPos="9.76" departSpeed="0.00" departDelay="0.27" arrival="415.00" arrivalLane="nt14_np11_0" arrivalPos="75.00" arrivalSpeed="10.32" duration="292.00" routeLength="941.33" waitingTime="166.00" waitingCount="7" stopTime="0.00" timeLoss="219.21" rerouteNo="0" devices="tripinfo_f_0_3.15" vType="type1" speedFactor="1.09" vaporized=""/>
    <tripinfo id="f_0_2.8" depart="66.00" departLane="np2_nt2_0" departPos="29.95" departSpeed="0.00" departDelay="0.54" arrival="418.00" arrivalLane="nt15_np10_0" arrivalPos="75.00" arrivalSpeed="8.08" duration="352.00" routeLength="921.13" waitingTime="182.00" waitingCount="10" stopTime="0.00" timeLoss="267.39" rerouteNo="0" devices="tripinfo_f_0_2.8" vType="type1" speedFactor="0.91" vaporized=""/>
    <tripinfo id="f_0_2.9" depart="74.00" departLane="np2_nt2_0" departPos="22.61" departSpeed="0.00" departDelay="0.36" arrival="423.00" arrivalLane="nt15_np10_0" arrivalPos="75.00" arrivalSpeed="8.97" duration="349.00" routeLength="928.47" waitingTime="168.00" waitingCount="11" stopTime="0.00" timeLoss="269.04" rerouteNo="0" devices="tripinfo_f_0_2.9" vType="type1" speedFactor="0.98" vaporized=""/>
    <tripinfo id="f_0_2.10" depart="82.00" departLane="np2_nt2_0" departPos="5.79" departSpeed="0.00" departDelay="0.18" arrival="427.00" arrivalLane="nt15_np10_0" arrivalPos="75.00" arrivalSpeed="9.70" duration="345.00" routeLength="945.29" waitingTime="180.00" waitingCount="12" stopTime="0.00" timeLoss="267.73" rerouteNo="0" devices="tripinfo_f_0_2.10" vType="type1" speedFactor="1.03" vaporized=""/>
    <tripinfo id="f_0_2.11" depart="90.00" departLane="np2_nt2_0" departPos="2.34" departSpeed="0.00" departDelay="0.00" arrival="429.00" arrivalLane="nt15_np10_0" arrivalPos="75.00" arrivalSpeed="9.68" duration="339.00" routeLength="948.74" waitingTime="174.00" waitingCount="11" stopTime="0.00" timeLoss="252.87" rerouteNo="0" devices="tripinfo_f_0_2.11" vType="type1" speedFactor="0.93" vaporized=""/>
    <tripinfo id="f_0_3.16" depart="131.00" departLane="np3_nt3_0" departPos="10.39" departSpeed="0.00" departDelay="0.09" arrival="432.00" arrivalLane="nt14_np11_0" arrivalPos="75.00" arrivalSpeed="10.28" duration="301.00" routeLength="940.70" waitingTime="169.00" waitingCount="9" stopTime="0.00" timeLoss="219.38" rerouteNo="0" devices="tripinfo_f_0_3.16" vType="type1" speedFactor="0.97" vaporized=""/>
    <tripinfo id="f_0_1.4" depart="55.00" departLane="np16_nt1_0" departPos="21.31" departSpeed="0.00" departDelay="0.46" arrival="433.00" arrivalLane="nt16_np8_0" arrivalPos="75.00" arrivalSpeed="18.61" duration="378.00" routeLength="1326.57" waitingTime="179.00" waitingCount="11" stopTime="0.00" timeLoss="281.18" rerouteNo="0" devices="tripinfo_f_0_1.4" vType="type1" speedFactor="0.95" vaporized=""/>
    <tripinfo id="f_0_0.7" depart="96.00" departLane="np13_nt13_0" departPos="42.62" departSpeed="0.00" departDelay="0.55" arrival="434.00" arrivalLane="nt4_np5_0" arrivalPos="75.00" arrivalSpeed="20.49" duration="338.00" routeLength="1305.27" waitingTime="200.00" waitingCount="7" stopTime="0.00" timeLoss="253.43" rerouteNo="0" devices="tripinfo_f_0_0.7" vType="type1" speedFactor="1.08" vaporized=""/>
    <tripinfo id="f_0_1.5" depart="69.00" departLane="np16_nt1_0" departPos="4.23" departSpeed="0.00" departDelay="0.82" arrival="435.00" arrivalLane="nt16_np8_0" arrivalPos="75.00" arrivalSpeed="19.17" duration="366.00" routeLength="1343.65" waitingTime="161.00" waitingCount="10" stopTime="0.00" timeLoss="278.03" rerouteNo="0" devices="tripinfo_f_0_1.5" vType="type1" speedFactor="1.06" vaporized=""/>
    <tripinfo id="f_0_0.8" depart="110.00" departLane="np13_nt13_0" departPos="12.22" departSpeed="0.00" departDelay="0.91" arrival="435.00" arrivalLane="nt4_np5_0" arrivalPos="75.00" arrivalSpeed="20.95" duration="325.00" routeLength="1335.67" waitingTime="178.00" waitingCount="8" stopTime="0.00" timeLoss="237.48" rerouteNo="0" devices="tripinfo_f_0_0.8" vType="type1" speedFactor="1.06" vaporized=""/>
    <tripinfo id="f_0_3.17" depart="140.00" departLane="np3_nt3_0" departPos="14.43" departSpeed="0.00" departDelay="0.91" arrival="435.00" arrivalLane="nt14_np11_0" arrivalPos="75.00" arrivalSpeed="9.00" duration="295.00" routeLength="936.66" waitingTime="152.00" waitingCount="10" stopTime="0.00" timeLoss="213.73" rerouteNo="0" devices="tripinfo_f_0_3.17" vType="type1" speedFactor="0.97" vaporized=""/>
    <tripinfo id="f_0_3.18" depart="148.00" departLane="np3_nt3_0" departPos="15.43" departSpeed="0.00" departDelay="0.72" arrival="438.00" arrivalLane="nt14_np11_0" arrivalPos="75.00" arrivalSpeed="9.40" duration="290.00" routeLength="935.66" waitingTime="143.00" waitingCount="10" stopTime="0.00" timeLoss="202.87" rerouteNo="0" devices="tripinfo_f_0_3.18" vType="type1" speedFactor="0.91" vaporized=""/>
    <tripinfo id="f_0_3.19" depart="156.00" departLane="np3_nt3_0" departPos="7.32" departSpeed="0.00" departDelay="0.54" arrival="439.00" arrivalLane="nt14_np11_0" arrivalPos="75.00" arrivalSpeed="10.71" duration="283.00" routeLength="943.77" waitingTime="134.00" waitingCount="8" stopTime="0.00" timeLoss="216.16" rerouteNo="0" devices="tripinfo_f_0_3.19" vType="type1" speedFactor="1.18" vaporized=""/>
    <tripinfo id="f_0_2.12" depart="99.00" departLane="np2_nt2_0" departPos="9.50" departSpeed="0.00" departDelay="0.82" arrival="443.00" arrivalLane="nt15_np10_0" arrivalPos="75.00" arrivalSpeed="10.68" duration="344.00" routeLength="941.58" waitingTime="174.00" waitingCount="14" stopTime="0.00" timeLoss="262.40" rerouteNo="0" devices="tripinfo_f_0_2.12" vType="type1" speedFactor="0.98" vaporized=""/>
    <tripinfo id="f_0_2.13" depart="107.00" departLane="np2_nt2_0" departPos="41.96" departSpeed="0.00" departDelay="0.63" arrival="445.00" arrivalLane="nt15_np10_0" arrivalPos="75.00" arrivalSpeed="11.56" duration="338.00" routeLength="909.12" waitingTime="164.00" waitingCount="13" stopTime="0.00" timeLoss="268.54" rerouteNo="0" devices="tripinfo_f_0_2.13" vType="type1" speedFactor="1.11" vaporized=""/>
    <tripinfo id="f_0_2.14" depart="115.00" departLane="np2_nt2_0" departPos="21.30" departSpeed="0.00" departDelay="0.45" arrival="447.00" arrivalLane="nt15_np10_0" arrivalPos="75.00" arrivalSpeed="10.81" duration="332.00" routeLength="929.78" waitingTime="149.00" waitingCount="12" stopTime="0.00" timeLoss="259.39" rerouteNo="0" devices="tripinfo_f_0_2.14" vType="type1" speedFactor="1.09" vaporized=""/>
    <tripinfo id="f_0_3.20" depart="164.00" departLane="np3_nt3_0" departPos="11.15" departSpeed="0.00" departDelay="0.36" arrival="452.00" arrivalLane="nt14_np11_0" arrivalPos="75.00" arrivalSpeed="9.63" duration="288.00" routeLength="939.94" waitingTime="139.00" waitingCount="13" stopTime="0.00" timeLoss="207.73" rerouteNo="0" devices="tripinfo_f_0_3.20" vType="type1" speedFactor="0.98" vaporized=""/>
    <tripinfo id="f_0_1.6" depart="82.00" departLane="np16_nt1_0" departPos="65.27" departSpeed="0.00" departDelay="0.18" arrival="453.00" arrivalLane="nt16_np8_0" arrivalPos="75.00" arrivalSpeed="20.93" duration="371.00" routeLength="1282.61" waitingTime="179.00" waitingCount="16" stopTime="0.00" timeLoss="285.70" rerouteNo="0" devices="tripinfo_f_0_1.6" vType="type1" speedFactor="1.06" vaporized=""/>
    <tripinfo id="f_0_0.9" depart="123.00" departLane="np13_nt13_0" departPos="63.87" departSpeed="0.00" departDelay="0.28" arrival="453.00" arrivalLane="nt4_np5_0" arrivalPos="75.00" arrivalSpeed="21.07" duration="330.00" routeLength="1284.02" waitingTime="198.00" waitingCount="6" stopTime="0.00" timeLoss="245.41" rerouteNo="0" devices="tripinfo_f_0_0.9" vType="type1" speedFactor="1.06" vaporized=""/>
    <tripinfo id="f_0_0.10" depart="137.00" departLane="np13_nt13_0" departPos="6.56" departSpeed="0.00" departDelay="0.64" arrival="455.00" arrivalLane="nt4_np5_0" arrivalPos="75.00" arrivalSpeed="19.02" duration="318.00" routeLength="1341.33" waitingTime="183.00" waitingCount="8" stopTime="0.00" timeLoss="226.13" rerouteNo="0" devices="tripinfo_f_0_0.10" vType="type1" speedFactor="1.01" vaporized=""/>
    <tripinfo id="f_0_1.7" depart="96.00" departLane="np16_nt1_0" departPos="38.02" departSpeed="0.00" departDelay="0.55" arrival="456.00" arrivalLane="nt16_np8_0" arrivalPos="75.00" arrivalSpeed="19.18" duration="360.00" routeLength="1309.86" waitingTime="157.00" waitingCount="12" stopTime="0.00" timeLoss="275.14" rerouteNo="0" devices="tripinfo_f_0_1.7" vType="type1" speedFactor="1.08" vaporized=""/>
    <tripinfo id="f_0_3.21" depart="172.00" departLane="np3_nt3_0" departPos="6.05" departSpeed="0.00" departDelay="0.18" arrival="473.00" arrivalLane="nt14_np11_0" arrivalPos="75.00" arrivalSpeed="9.72" duration="301.00" routeLength="945.04" waitingTime="145.00" waitingCount="11" stopTime="0.00" timeLoss="220.83" rerouteNo="0" devices="tripinfo_f_0_3.21" vType="type1" speedFactor="1.00" vaporized=""/>
    <tripinfo id="f_0_2.15" depart="123.00" departLane="np2_nt2_0" departPos="36.42" departSpeed="0.00" departDelay="0.27" arrival="482.00" arrivalLane="nt15_np10_0" arrivalPos="75.00" arrivalSpeed="9.13" duration="359.00" routeLength="914.66" waitingTime="187.00" waitingCount="13" stopTime="0.00" timeLoss="285.04" rerouteNo="0" devices="tripinfo_f_0_2.15" vType="type1" speedFactor="1.04" vaporized=""/>
    <tripinfo id="f_0_0.11" depart="150.00" departLane="np13_nt13_0" departPos="44.17" departSpeed="0.00" departDelay="0.00" arrival="488.00" arrivalLane="nt4_np5_0" arrivalPos="75.00" arrivalSpeed="17.56" duration="338.00" routeLength="1303.72" waitingTime="188.00" waitingCount="8" stopTime="0.00" timeLoss="243.38" rerouteNo="0" devices="tripinfo_f_0_0.11" vType="type1" speedFactor="0.96" vaporized=""/>
    <tripinfo id="f_0_0.12" depart="164.00" departLane="np13_nt13_0" departPos="4.44" departSpeed="0.00" departDelay="0.37" arrival="490.00" arrivalLane="nt4_np5_0" arrivalPos="75.00" arrivalSpeed="23.52" duration="326.00" routeLength="1343.45" waitingTime="195.00" waitingCount="9" stopTime="0.00" timeLoss="249.06" rerouteNo="0" devices="tripinfo_f_0_0.12" vType="type1" speedFactor="1.22" vaporized=""/>
    <tripinfo id="f_0_0.13" depart="178.00" departLane="np13_nt13_0" departPos="31.27" departSpeed="0.00" departDelay="0.73" arrival="494.00" arrivalLane="nt4_np5_0" arrivalPos="75.00" arrivalSpeed="12.51" duration="316.00" routeLength="1316.62" waitingTime="128.00" waitingCount="9" stopTime="0.00" timeLoss="189.71" rerouteNo="0" devices="tripinfo_f_0_0.13" vType="type1" speedFactor="0.73" vaporized=""/>
    <tripinfo id="f_0_0.14" depart="191.00" departLane="np13_nt13_0" departPos="57.35" departSpeed="0.00" departDelay="0.10" arrival="495.00" arrivalLane="nt4_np5_0" arrivalPos="75.00" arrivalSpeed="16.29" duration="304.00" routeLength="1290.54" waitingTime="152.00" waitingCount="12" stopTime="0.00" timeLoss="217.32" rerouteNo="0" devices="tripinfo_f_0_0.14" vType="type1" speedFactor="1.04" vaporized=""/>
    <tripinfo id="f_0_0.15" depart="205.00" departLane="np13_nt13_0" departPos="53.99" departSpeed="0.00" departDelay="0.46" arrival="497.00" arrivalLane="nt4_np5_0" arrivalPos="75.00" arrivalSpeed="17.83" duration="292.00" routeLength="1293.90" waitingTime="137.00" waitingCount="13" stopTime="0.00" timeLoss="202.43" rerouteNo="0" devices="tripinfo_f_0_0.15" vType="type1" speedFactor="1.02" vaporized=""/>
    <tripinfo id="f_0_2.16" depart="131.00" departLane="np2_nt2_0" departPos="20.74" departSpeed="0.00" departDelay="0.09" arrival="509.00" arrivalLane="nt15_np10_0" arrivalPos="75.00" arrivalSpeed="7.20" duration="378.00" routeLength="930.34" waitingTime="191.00" waitingCount="13" stopTime="0.00" timeLoss="287.64" rerouteNo="0" devices="tripinfo_f_0_2.16" vType="type1" speedFactor="0.87" vaporized=""/>
    <tripinfo id="f_0_2.17" depart="140.00" departLane="np2_nt2_0" departPos="4.30" departSpeed="0.00" departDelay="0.91" arrival="511.00" arrivalLane="nt15_np10_0" arrivalPos="75.00" arrivalSpeed="9.62" duration="371.00" routeLength="946.78" waitingTime="197.00" waitingCount="11" stopTime="0.00" timeLoss="297.29" rerouteNo="0" devices="tripinfo_f_0_2.17" vType="type1" speedFactor="1.08" vaporized=""/>
    <tripinfo id="f_0_0.16" depart="219.00" departLane="np13_nt13_0" departPos="52.09" departSpeed="0.00" departDelay="0.82" arrival="524.00" arrivalLane="nt4_np5_0" arrivalPos="75.00" arrivalSpeed="17.56" duration="305.00" routeLength="1295.80" waitingTime="138.00" waitingCount="15" stopTime="0.00" timeLoss="210.33" rerouteNo="0" devices="tripinfo_f_0_0.16" vType="type1" speedFactor="0.96" vaporized=""/>
    <tripinfo id="f_0_0.17" depart="232.00" departLane="np13_nt13_0" departPos="51.24" departSpeed="0.00" departDelay="0.19" arrival="525.00" arrivalLane="nt4_np5_0" arrivalPos="75.00" arrivalSpeed="19.03" duration="293.00" routeLength="1296.65" waitingTime="120.00" waitingCount="14" stopTime="0.00" timeLoss="208.30" rerouteNo="0" devices="tripinfo_f_0_0.17" vType="type1" speedFactor="1.07" vaporized=""/>
    <tripinfo id="f_0_0.18" depart="246.00" departLane="np13_nt13_0" departPos="38.38" departSpeed="0.00" departDelay="0.55" arrival="528.00" arrivalLane="nt4_np5_0" arrivalPos="75.00" arrivalSpeed="16.60" duration="282.00" routeLength="1309.51" waitingTime="91.00" waitingCount="13" stopTime="0.00" timeLoss="176.50" rerouteNo="0" devices="tripinfo_f_0_0.18" vType="type1" speedFactor="0.87" vaporized=""/>
    <tripinfo id="f_0_2.18" depart="148.00" departLane="np2_nt2_0" departPos="23.23" departSpeed="0.00" departDelay="0.72" arrival="531.00" arrivalLane="nt15_np10_0" arrivalPos="75.00" arrivalSpeed="11.00" duration="383.00" routeLength="927.85" waitingTime="202.00" waitingCount="11" stopTime="0.00" timeLoss="313.42" rerouteNo="0" devices="tripinfo_f_0_2.18" vType="type1" speedFactor="1.12" vaporized=""/>
    <tripinfo id="f_0_1.8" depart="110.00" departLane="np16_nt1_0" departPos="55.69" departSpeed="0.00" departDelay="0.91" arrival="540.00" arrivalLane="nt16_np8_0" arrivalPos="75.00" arrivalSpeed="20.67" duration="430.00" routeLength="1292.19" waitingTime="237.00" waitingCount="14" stopTime="0.00" timeLoss="348.64" rerouteNo="0" devices="tripinfo_f_0_1.8" vType="type1" speedFactor="1.12" vaporized=""/>
    <tripinfo id="f_0_2.19" depart="156.00" departLane="np2_nt2_0" departPos="42.70" departSpeed="0.00" departDelay="0.54" arrival="559.00" arrivalLane="nt15_np10_0" arrivalPos="75.00" arrivalSpeed="9.09" duration="403.00" routeLength="908.38" waitingTime="205.00" waitingCount="14" stopTime="0.00" timeLoss="312.69" rerouteNo="0" devices="tripinfo_f_0_2.19" vType="type1" speedFactor="0.84" vaporized=""/>
    <tripinfo id="f_0_2.20" depart="164.00" departLane="np2_nt2_0" departPos="44.24" departSpeed="0.00" departDelay="0.36" arrival="566.00" arrivalLane="nt15_np10_0" arrivalPos="75.00" arrivalSpeed="9.73" duration="402.00" routeLength="906.84" waitingTime="202.00" waitingCount="16" stopTime="0.00" timeLoss="330.65" rerouteNo="0" devices="tripinfo_f_0_2.20" vType="type1" speedFactor="1.07" vaporized=""/>