<?xml version="1.0" encoding="UTF-8"?>

<!-- generated on 2023-08-23 17:03:41 by Eclipse SUMO libsumo Version 1.18.0
<configuration xmlns:xsi="http://www.w3.org/2001/XMLSchema-instance" xsi:noNamespaceSchemaLocation="http://sumo.dlr.de/xsd/libsumoConfiguration.xsd">

    <input>
        <net-file value="/home/stefan/RESCO/./environments/arterial4x4/arterial4x4.net.xml"/>
        <route-files value="/home/stefan/RESCO/./environments/arterial4x4/arterial4x4_89.rou.xml"/>
    </input>

    <output>
        <tripinfo-output value="/home/stefan/results/IDDQN-tr0-arterial4x4-0-drq_norm-wait_norm/tripinfo_89.xml"/>
        <tripinfo-output.write-unfinished value="true"/>
    </output>

    <processing>
        <time-to-teleport value="-1"/>
    </processing>

    <report>
        <no-warnings value="True"/>
        <no-step-log value="True"/>
    </report>

    <random_number>
        <random value="true"/>
    </random_number>

</configuration>
-->

<tripinfos xmlns:xsi="http://www.w3.org/2001/XMLSchema-instance" xsi:noNamespaceSchemaLocation="http://sumo.dlr.de/xsd/tripinfo_file.xsd">
    <tripinfo id="f_0_2.0" depart="0.00" departLane="np2_nt2_0" departPos="21.97" departSpeed="0.00" departDelay="0.00" arrival="95.00" arrivalLane="nt15_np10_0" arrivalPos="75.00" arrivalSpeed="13.04" duration="95.00" routeLength="929.11" waitingTime="12.00" waitingCount="4" stopTime="0.00" timeLoss="34.72" rerouteNo="0" devices="tripinfo_f_0_2.0" vType="type1" speedFactor="1.28" vaporized=""/>
    <tripinfo id="f_0_2.1" depart="9.00" departLane="np2_nt2_0" departPos="34.65" departSpeed="0.00" departDelay="0.82" arrival="126.00" arrivalLane="nt15_np10_0" arrivalPos="75.00" arrivalSpeed="11.25" duration="117.00" routeLength="916.43" waitingTime="28.00" waitingCount="3" stopTime="0.00" timeLoss="49.23" rerouteNo="0" devices="tripinfo_f_0_2.1" vType="type1" speedFactor="1.13" vaporized=""/>
    <tripinfo id="f_0_2.2" depart="17.00" departLane="np2_nt2_0" departPos="51.46" departSpeed="0.00" departDelay="0.64" arrival="143.00" arrivalLane="nt15_np10_0" arrivalPos="75.00" arrivalSpeed="8.12" duration="126.00" routeLength="899.62" waitingTime="14.00" waitingCount="3" stopTime="0.00" timeLoss="43.55" rerouteNo="0" devices="tripinfo_f_0_2.2" vType="type1" speedFactor="0.92" vaporized=""/>
    <tripinfo id="f_0_2.3" depart="25.00" departLane="np2_nt2_0" departPos="27.35" departSpeed="0.00" departDelay="0.45" arrival="145.00" arrivalLane="nt15_np10_0" arrivalPos="75.00" arrivalSpeed="11.14" duration="120.00" routeLength="923.73" waitingTime="14.00" waitingCount="4" stopTime="0.00" timeLoss="56.45" rerouteNo="0" devices="tripinfo_f_0_2.3" vType="type1" speedFactor="1.22" vaporized=""/>
    <tripinfo id="f_0_3.0" depart="0.00" departLane="np3_nt3_0" departPos="25.98" departSpeed="0.00" departDelay="0.00" arrival="152.00" arrivalLane="nt14_np11_0" arrivalPos="75.00" arrivalSpeed="10.00" duration="152.00" routeLength="925.11" waitingTime="52.00" waitingCount="3" stopTime="0.00" timeLoss="71.91" rerouteNo="0" devices="tripinfo_f_0_3.0" vType="type1" speedFactor="0.97" vaporized=""/>
    <tripinfo id="f_0_3.1" depart="9.00" departLane="np3_nt3_0" departPos="31.10" departSpeed="0.00" departDelay="0.82" arrival="155.00" arrivalLane="nt14_np11_0" arrivalPos="75.00" arrivalSpeed="7.33" duration="146.00" routeLength="919.99" waitingTime="37.00" waitingCount="2" stopTime="0.00" timeLoss="58.83" rerouteNo="0" devices="tripinfo_f_0_3.1" vType="type1" speedFactor="0.89" vaporized=""/>
    <tripinfo id="f_0_3.2" depart="17.00" departLane="np3_nt3_0" departPos="37.96" departSpeed="0.00" departDelay="0.64" arrival="157.00" arrivalLane="nt14_np11_0" arrivalPos="75.00" arrivalSpeed="9.20" duration="140.00" routeLength="913.13" waitingTime="33.00" waitingCount="3" stopTime="0.00" timeLoss="57.18" rerouteNo="0" devices="tripinfo_f_0_3.2" vType="type1" speedFactor="0.92" vaporized=""/>
    <tripinfo id="f_0_3.3" depart="25.00" departLane="np3_nt3_0" departPos="40.46" departSpeed="0.00" departDelay="0.45" arrival="159.00" arrivalLane="nt14_np11_0" arrivalPos="75.00" arrivalSpeed="7.93" duration="134.00" routeLength="910.63" waitingTime="23.00" waitingCount="2" stopTime="0.00" timeLoss="49.07" rerouteNo="0" devices="tripinfo_f_0_3.3" vType="type1" speedFactor="0.90" vaporized=""/>
    <tripinfo id="f_0_3.4" depart="33.00" departLane="np3_nt3_0" departPos="17.51" departSpeed="0.00" departDelay="0.27" arrival="162.00" arrivalLane="nt14_np11_0" arrivalPos="75.00" arrivalSpeed="7.66" duration="129.00" routeLength="933.58" waitingTime="19.00" waitingCount="1" stopTime="0.00" timeLoss="40.93" rerouteNo="0" devices="tripinfo_f_0_3.4" vType="type1" speedFactor="0.89" vaporized=""/>
    <tripinfo id="f_0_3.5" depart="41.00" departLane="np3_nt3_0" departPos="44.97" departSpeed="0.00" departDelay="0.09" arrival="164.00" arrivalLane="nt14_np11_0" arrivalPos="75.00" arrivalSpeed="11.25" duration="123.00" routeLength="906.12" waitingTime="17.00" waitingCount="1" stopTime="0.00" timeLoss="52.54" rerouteNo="0" devices="tripinfo_f_0_3.5" vType="type1" speedFactor="1.08" vaporized=""/>
    <tripinfo id="f_0_0.0" depart="0.00" departLane="np13_nt13_0" departPos="17.23" departSpeed="0.00" departDelay="0.00" arrival="173.00" arrivalLane="nt4_np5_0" arrivalPos="75.00" arrivalSpeed="15.47" duration="173.00" routeLength="1330.66" waitingTime="34.00" waitingCount="3" stopTime="0.00" timeLoss="62.57" rerouteNo="0" devices="tripinfo_f_0_0.0" vType="type1" speedFactor="0.83" vaporized=""/>
    <tripinfo id="f_0_1.0" depart="0.00" departLane="np16_nt1_0" departPos="31.85" departSpeed="0.00" departDelay="0.00" arrival="173.00" arrivalLane="nt16_np8_0" arrivalPos="75.00" arrivalSpeed="16.38" duration="173.00" routeLength="1316.03" waitingTime="26.00" waitingCount="5" stopTime="0.00" timeLoss="62.02" rerouteNo="0" devices="tripinfo_f_0_1.0" vType="type1" speedFactor="0.83" vaporized=""/>
    <tripinfo id="f_0_3.6" depart="50.00" departLane="np3_nt3_0" departPos="53.56" departSpeed="0.00" departDelay="0.91" arrival="173.00" arrivalLane="nt14_np11_0" arrivalPos="75.00" arrivalSpeed="7.31" duration="123.00" routeLength="897.53" waitingTime="13.00" waitingCount="3" stopTime="0.00" timeLoss="35.99" rerouteNo="0" devices="tripinfo_f_0_3.6" vType="type1" speedFactor="0.86" vaporized=""/>
    <tripinfo id="f_0_1.1" depart="14.00" departLane="np16_nt1_0" departPos="19.47" departSpeed="0.00" departDelay="0.36" arrival="174.00" arrivalLane="nt16_np8_0" arrivalPos="75.00" arrivalSpeed="18.61" duration="160.00" routeLength="1328.41" waitingTime="21.00" waitingCount="4" stopTime="0.00" timeLoss="63.11" rerouteNo="0" devices="tripinfo_f_0_1.1" vType="type1" speedFactor="0.95" vaporized=""/>
    <tripinfo id="f_0_0.1" depart="14.00" departLane="np13_nt13_0" departPos="31.58" departSpeed="0.00" departDelay="0.36" arrival="175.00" arrivalLane="nt4_np5_0" arrivalPos="75.00" arrivalSpeed="20.88" duration="161.00" routeLength="1316.31" waitingTime="49.00" waitingCount="4" stopTime="0.00" timeLoss="80.37" rerouteNo="0" devices="tripinfo_f_0_0.1" vType="type1" speedFactor="1.14" vaporized=""/>
    <tripinfo id="f_0_3.7" depart="58.00" departLane="np3_nt3_0" departPos="24.61" departSpeed="0.00" departDelay="0.73" arrival="175.00" arrivalLane="nt14_np11_0" arrivalPos="75.00" arrivalSpeed="11.42" duration="117.00" routeLength="926.48" waitingTime="9.00" waitingCount="3" stopTime="0.00" timeLoss="43.04" rerouteNo="0" devices="tripinfo_f_0_3.7" vType="type1" speedFactor="1.05" vaporized=""/>
    <tripinfo id="f_0_1.2" depart="28.00" departLane="np16_nt1_0" departPos="31.75" departSpeed="0.00" departDelay="0.73" arrival="179.00" arrivalLane="nt16_np8_0" arrivalPos="75.00" arrivalSpeed="17.79" duration="151.00" routeLength="1316.13" waitingTime="14.00" waitingCount="4" stopTime="0.00" timeLoss="56.54" rerouteNo="0" devices="tripinfo_f_0_1.2" vType="type1" speedFactor="0.97" vaporized=""/>
    <tripinfo id="f_0_1.3" depart="41.00" departLane="np16_nt1_0" departPos="40.82" departSpeed="0.00" departDelay="0.09" arrival="185.00" arrivalLane="nt16_np8_0" arrivalPos="75.00" arrivalSpeed="17.95" duration="144.00" routeLength="1307.06" waitingTime="11.00" waitingCount="3" stopTime="0.00" timeLoss="54.41" rerouteNo="0" devices="tripinfo_f_0_1.3" vType="type1" speedFactor="1.02" vaporized=""/>
    <tripinfo id="f_0_2.4" depart="33.00" departLane="np2_nt2_0" departPos="27.57" departSpeed="0.00" departDelay="0.27" arrival="200.00" arrivalLane="nt15_np10_0" arrivalPos="75.00" arrivalSpeed="8.40" duration="167.00" routeLength="923.51" waitingTime="46.00" waitingCount="4" stopTime="0.00" timeLoss="73.19" rerouteNo="0" devices="tripinfo_f_0_2.4" vType="type1" speedFactor="0.83" vaporized=""/>
    <tripinfo id="f_0_2.5" depart="41.00" departLane="np2_nt2_0" departPos="8.94" departSpeed="0.00" departDelay="0.09" arrival="202.00" arrivalLane="nt15_np10_0" arrivalPos="75.00" arrivalSpeed="10.50" duration="161.00" routeLength="942.14" waitingTime="49.00" waitingCount="6" stopTime="0.00" timeLoss="85.49" rerouteNo="0" devices="tripinfo_f_0_2.5" vType="type1" speedFactor="1.05" vaporized=""/>
    <tripinfo id="f_0_2.6" depart="50.00" departLane="np2_nt2_0" departPos="0.55" departSpeed="0.00" departDelay="0.91" arrival="204.00" arrivalLane="nt15_np10_0" arrivalPos="75.00" arrivalSpeed="9.70" duration="154.00" routeLength="950.53" waitingTime="40.00" waitingCount="7" stopTime="0.00" timeLoss="77.42" rerouteNo="0" devices="tripinfo_f_0_2.6" vType="type1" speedFactor="1.05" vaporized=""/>
    <tripinfo id="f_0_1.4" depart="55.00" departLane="np16_nt1_0" departPos="32.85" departSpeed="0.00" departDelay="0.46" arrival="210.00" arrivalLane="nt16_np8_0" arrivalPos="75.00" arrivalSpeed="19.67" duration="155.00" routeLength="1315.03" waitingTime="22.00" waitingCount="4" stopTime="0.00" timeLoss="69.18" rerouteNo="0" devices="tripinfo_f_0_1.4" vType="type1" speedFactor="1.07" vaporized=""/>
    <tripinfo id="f_0_3.8" depart="66.00" departLane="np3_nt3_0" departPos="31.88" departSpeed="0.00" departDelay="0.54" arrival="212.00" arrivalLane="nt14_np11_0" arrivalPos="75.00" arrivalSpeed="10.47" duration="146.00" routeLength="919.21" waitingTime="41.00" waitingCount="5" stopTime="0.00" timeLoss="69.64" rerouteNo="0" devices="tripinfo_f_0_3.8" vType="type1" speedFactor="1.01" vaporized=""/>
    <tripinfo id="f_0_3.9" depart="74.00" departLane="np3_nt3_0" departPos="26.34" departSpeed="0.00" departDelay="0.36" arrival="214.00" arrivalLane="nt14_np11_0" arrivalPos="75.00" arrivalSpeed="12.42" duration="140.00" routeLength="924.75" waitingTime="36.00" waitingCount="4" stopTime="0.00" timeLoss="73.49" rerouteNo="0" devices="tripinfo_f_0_3.9" vType="type1" speedFactor="1.17" vaporized=""/>
    <tripinfo id="f_0_3.10" depart="82.00" departLane="np3_nt3_0" departPos="17.40" departSpeed="0.00" departDelay="0.18" arrival="218.00" arrivalLane="nt14_np11_0" arrivalPos="75.00" arrivalSpeed="8.22" duration="136.00" routeLength="933.69" waitingTime="22.00" waitingCount="3" stopTime="0.00" timeLoss="48.50" rerouteNo="0" devices="tripinfo_f_0_3.10" vType="type1" speedFactor="0.90" vaporized=""/>
    <tripinfo id="f_0_3.11" depart="90.00" departLane="np3_nt3_0" departPos="62.45" departSpeed="0.00" departDelay="0.00" arrival="220.00" arrivalLane="nt14_np11_0" arrivalPos="75.00" arrivalSpeed="10.24" duration="130.00" routeLength="888.64" waitingTime="23.00" waitingCount="4" stopTime="0.00" timeLoss="64.34" rerouteNo="0" devices="tripinfo_f_0_3.11" vType="type1" speedFactor="1.14" vaporized=""/>
    <tripinfo id="f_0_3.12" depart="99.00" departLane="np3_nt3_0" departPos="25.20" departSpeed="0.00" departDelay="0.82" arrival="221.00" arrivalLane="nt14_np11_0" arrivalPos="75.00" arrivalSpeed="9.05" duration="122.00" routeLength="925.89" waitingTime="14.00" waitingCount="2" stopTime="0.00" timeLoss="46.92" rerouteNo="0" devices="tripinfo_f_0_3.12" vType="type1" speedFactor="1.03" vaporized=""/>
    <tripinfo id="f_0_3.13" depart="107.00" departLane="np3_nt3_0" departPos="56.14" departSpeed="0.00" departDelay="0.63" arrival="223.00" arrivalLane="nt14_np11_0" arrivalPos="75.00" arrivalSpeed="9.53" duration="116.00" routeLength="894.95" waitingTime="25.00" waitingCount="2" stopTime="0.00" timeLoss="43.69" rerouteNo="0" devices="tripinfo_f_0_3.13" vType="type1" speedFactor="1.03" vaporized=""/>
    <tripinfo id="f_0_1.5" depart="69.00" departLane="np16_nt1_0" departPos="51.63" departSpeed="0.00" departDelay="0.82" arrival="225.00" arrivalLane="nt16_np8_0" arrivalPos="75.00" arrivalSpeed="14.26" duration="156.00" routeLength="1296.25" waitingTime="12.00" waitingCount="3" stopTime="0.00" timeLoss="43.80" rerouteNo="0" devices="tripinfo_f_0_1.5" vType="type1" speedFactor="0.81" vaporized=""/>
    <tripinfo id="f_0_2.7" depart="58.00" departLane="np2_nt2_0" departPos="9.73" departSpeed="0.00" departDelay="0.73" arrival="228.00" arrivalLane="nt15_np10_0" arrivalPos="75.00" arrivalSpeed="9.87" duration="170.00" routeLength="941.35" waitingTime="30.00" waitingCount="6" stopTime="0.00" timeLoss="88.14" rerouteNo="0" devices="tripinfo_f_0_2.7" vType="type1" speedFactor="0.97" vaporized=""/>
    <tripinfo id="f_0_2.8" depart="66.00" departLane="np2_nt2_0" departPos="28.19" departSpeed="0.00" departDelay="0.54" arrival="229.00" arrivalLane="nt15_np10_0" arrivalPos="75.00" arrivalSpeed="11.10" duration="163.00" routeLength="922.89" waitingTime="22.00" waitingCount="5" stopTime="0.00" timeLoss="86.80" rerouteNo="0" devices="tripinfo_f_0_2.8" vType="type1" speedFactor="1.01" vaporized=""/>
    <tripinfo id="f_0_2.9" depart="74.00" departLane="np2_nt2_0" departPos="24.43" departSpeed="0.00" departDelay="0.36" arrival="238.00" arrivalLane="nt15_np10_0" arrivalPos="75.00" arrivalSpeed="10.86" duration="164.00" routeLength="926.65" waitingTime="28.00" waitingCount="4" stopTime="0.00" timeLoss="87.68" rerouteNo="0" devices="tripinfo_f_0_2.9" vType="type1" speedFactor="1.02" vaporized=""/>
    <tripinfo id="f_0_1.6" depart="82.00" departLane="np16_nt1_0" departPos="45.00" departSpeed="0.00" departDelay="0.18" arrival="242.00" arrivalLane="nt16_np8_0" arrivalPos="75.00" arrivalSpeed="19.67" duration="160.00" routeLength="1302.88" waitingTime="12.00" waitingCount="3" stopTime="0.00" timeLoss="74.17" rerouteNo="0" devices="tripinfo_f_0_1.6" vType="type1" speedFactor="1.06" vaporized=""/>
    <tripinfo id="f_0_2.10" depart="82.00" departLane="np2_nt2_0" departPos="14.95" departSpeed="0.00" departDelay="0.18" arrival="242.00" arrivalLane="nt15_np10_0" arrivalPos="75.00" arrivalSpeed="8.10" duration="160.00" routeLength="936.13" waitingTime="24.00" waitingCount="4" stopTime="0.00" timeLoss="72.38" rerouteNo="0" devices="tripinfo_f_0_2.10" vType="type1" speedFactor="0.90" vaporized=""/>
    <tripinfo id="f_0_2.11" depart="90.00" departLane="np2_nt2_0" departPos="4.50" departSpeed="0.00" departDelay="0.00" arrival="243.00" arrivalLane="nt15_np10_0" arrivalPos="75.00" arrivalSpeed="10.96" duration="153.00" routeLength="946.58" waitingTime="20.00" waitingCount="4" stopTime="0.00" timeLoss="80.18" rerouteNo="0" devices="tripinfo_f_0_2.11" vType="type1" speedFactor="1.09" vaporized=""/>
    <tripinfo id="f_0_2.12" depart="99.00" departLane="np2_nt2_0" departPos="17.30" departSpeed="0.00" departDelay="0.82" arrival="247.00" arrivalLane="nt15_np10_0" arrivalPos="75.00" arrivalSpeed="7.82" duration="148.00" routeLength="933.78" waitingTime="11.00" waitingCount="5" stopTime="0.00" timeLoss="57.83" rerouteNo="0" devices="tripinfo_f_0_2.12" vType="type1" speedFactor="0.87" vaporized=""/>
    <tripinfo id="f_0_3.14" depart="115.00" departLane="np3_nt3_0" departPos="5.92" departSpeed="0.00" departDelay="0.45" arrival="251.00" arrivalLane="nt14_np11_0" arrivalPos="75.00" arrivalSpeed="11.53" duration="136.00" routeLength="945.17" waitingTime="36.00" waitingCount="3" stopTime="0.00" timeLoss="61.59" rerouteNo="0" devices="tripinfo_f_0_3.14" vType="type1" speedFactor="1.07" vaporized=""/>
    <tripinfo id="f_0_0.2" depart="28.00" departLane="np13_nt13_0" departPos="53.90" departSpeed="0.00" departDelay="0.73" arrival="254.00" arrivalLane="nt4_np5_0" arrivalPos="75.00" arrivalSpeed="13.62" duration="226.00" routeLength="1293.99" waitingTime="65.00" waitingCount="4" stopTime="0.00" timeLoss="99.98" rerouteNo="0" devices="tripinfo_f_0_0.2" vType="type1" speedFactor="0.71" vaporized=""/>
    <tripinfo id="f_0_2.13" depart="107.00" departLane="np2_nt2_0" departPos="12.94" departSpeed="0.00" departDelay="0.63" arrival="254.00" arrivalLane="nt15_np10_0" arrivalPos="75.00" arrivalSpeed="9.82" duration="147.00" routeLength="938.14" waitingTime="13.00" waitingCount="2" stopTime="0.00" timeLoss="59.31" rerouteNo="0" devices="tripinfo_f_0_2.13" vType="type1" speedFactor="0.91" vaporized=""/>
    <tripinfo id="f_0_3.15" depart="123.00" departLane="np3_nt3_0" departPos="4.70" departSpeed="0.00" departDelay="0.27" arrival="254.00" arrivalLane="nt14_np11_0" arrivalPos="75.00" arrivalSpeed="9.34" duration="131.00" routeLength="946.39" waitingTime="29.00" waitingCount="2" stopTime="0.00" timeLoss="54.21" rerouteNo="0" devices="tripinfo_f_0_3.15" vType="type1" speedFactor="1.04" vaporized=""/>
    <tripinfo id="f_0_0.3" depart="41.00" departLane="np13_nt13_0" departPos="6.62" departSpeed="0.00" departDelay="0.09" arrival="256.00" arrivalLane="nt4_np5_0" arrivalPos="75.00" arrivalSpeed="16.15" duration="215.00" routeLength="1341.27" waitingTime="49.00" waitingCount="5" stopTime="0.00" timeLoss="112.55" rerouteNo="0" devices="tripinfo_f_0_0.3" vType="type1" speedFactor="0.91" vaporized=""/>
    <tripinfo id="f_0_1.7" depart="96.00" departLane="np16_nt1_0" departPos="66.56" departSpeed="0.00" departDelay="0.55" arrival="256.00" arrivalLane="nt16_np8_0" arrivalPos="75.00" arrivalSpeed="17.43" duration="160.00" routeLength="1281.32" waitingTime="16.00" waitingCount="3" stopTime="0.00" timeLoss="63.73" rerouteNo="0" devices="tripinfo_f_0_1.7" vType="type1" speedFactor="0.94" vaporized=""/>
    <tripinfo id="f_0_0.4" depart="55.00" departLane="np13_nt13_0" departPos="44.35" departSpeed="0.00" departDelay="0.46" arrival="257.00" arrivalLane="nt4_np5_0" arrivalPos="75.00" arrivalSpeed="19.06" duration="202.00" routeLength="1303.54" waitingTime="37.00" waitingCount="5" stopTime="0.00" timeLoss="108.55" rerouteNo="0" devices="tripinfo_f_0_0.4" vType="type1" speedFactor="0.97" vaporized=""/>
    <tripinfo id="f_0_1.8" depart="110.00" departLane="np16_nt1_0" departPos="16.38" departSpeed="0.00" departDelay="0.91" arrival="257.00" arrivalLane="nt16_np8_0" arrivalPos="75.00" arrivalSpeed="20.67" duration="147.00" routeLength="1331.50" waitingTime="16.00" waitingCount="3" stopTime="0.00" timeLoss="68.05" rerouteNo="0" devices="tripinfo_f_0_1.8" vType="type1" speedFactor="1.17" vaporized=""/>
    <tripinfo id="f_0_0.5" depart="69.00" departLane="np13_nt13_0" departPos="6.15" departSpeed="0.00" departDelay="0.82" arrival="259.00" arrivalLane="nt4_np5_0" arrivalPos="75.00" arrivalSpeed="16.39" duration="190.00" routeLength="1341.74" waitingTime="23.00" waitingCount="3" stopTime="0.00" timeLoss="89.25" rerouteNo="0" devices="tripinfo_f_0_0.5" vType="type1" speedFactor="0.92" vaporized=""/>
    <tripinfo id="f_0_3.16" depart="131.00" departLane="np3_nt3_0" departPos="54.13" departSpeed="0.00" departDelay="0.09" arrival="262.00" arrivalLane="nt14_np11_0" arrivalPos="75.00" arrivalSpeed="9.76" duration="131.00" routeLength="896.96" waitingTime="31.00" waitingCount="3" stopTime="0.00" timeLoss="56.72" rerouteNo="0" devices="tripinfo_f_0_3.16" vType="type1" speedFactor="1.01" vaporized=""/>
    <tripinfo id="f_0_3.17" depart="140.00" departLane="np3_nt3_0" departPos="21.07" departSpeed="0.00" departDelay="0.91" arrival="266.00" arrivalLane="nt14_np11_0" arrivalPos="75.00" arrivalSpeed="8.76" duration="126.00" routeLength="930.02" waitingTime="22.00" waitingCount="3" stopTime="0.00" timeLoss="41.92" rerouteNo="0" devices="tripinfo_f_0_3.17" vType="type1" speedFactor="0.93" vaporized=""/>
    <tripinfo id="f_0_0.6" depart="82.00" departLane="np13_nt13_0" departPos="12.93" departSpeed="0.00" departDelay="0.18" arrival="268.00" arrivalLane="nt4_np5_0" arrivalPos="75.00" arrivalSpeed="21.93" duration="186.00" routeLength="1334.96" waitingTime="23.00" waitingCount="4" stopTime="0.00" timeLoss="107.64" rerouteNo="0" devices="tripinfo_f_0_0.6" vType="type1" speedFactor="1.19" vaporized=""/>
    <tripinfo id="f_0_3.18" depart="148.00" departLane="np3_nt3_0" departPos="21.76" departSpeed="0.00" departDelay="0.72" arrival="271.00" arrivalLane="nt14_np11_0" arrivalPos="75.00" arrivalSpeed="9.32" duration="123.00" routeLength="929.33" waitingTime="10.00" waitingCount="1" stopTime="0.00" timeLoss="32.08" rerouteNo="0" devices="tripinfo_f_0_3.18" vType="type1" speedFactor="0.86" vaporized=""/>
    <tripinfo id="f_0_3.19" depart="156.00" departLane="np3_nt3_0" departPos="59.82" departSpeed="0.00" departDelay="0.54" arrival="273.00" arrivalLane="nt14_np11_0" arrivalPos="75.00" arrivalSpeed="10.98" duration="117.00" routeLength="891.27" waitingTime="11.00" waitingCount="2" stopTime="0.00" timeLoss="47.24" rerouteNo="0" devices="tripinfo_f_0_3.19" vType="type1" speedFactor="1.08" vaporized=""/>
    <tripinfo id="f_0_3.20" depart="164.00" departLane="np3_nt3_0" departPos="16.67" departSpeed="0.00" departDelay="0.36" arrival="275.00" arrivalLane="nt14_np11_0" arrivalPos="75.00" arrivalSpeed="10.19" duration="111.00" routeLength="934.42" waitingTime="12.00" waitingCount="3" stopTime="0.00" timeLoss="40.02" rerouteNo="0" devices="tripinfo_f_0_3.20" vType="type1" speedFactor="1.12" vaporized=""/>
    <tripinfo id="f_0_2.14" depart="115.00" departLane="np2_nt2_0" departPos="19.23" departSpeed="0.00" departDelay="0.45" arrival="279.00" arrivalLane="nt15_np10_0" arrivalPos="75.00" arrivalSpeed="9.25" duration="164.00" routeLength="931.85" waitingTime="33.00" waitingCount="4" stopTime="0.00" timeLoss="72.06" rerouteNo="0" devices="tripinfo_f_0_2.14" vType="type1" speedFactor="0.86" vaporized=""/>
    <tripinfo id="f_0_2.15" depart="123.00" departLane="np2_nt2_0" departPos="20.86" departSpeed="0.00" departDelay="0.27" arrival="281.00" arrivalLane="nt15_np10_0" arrivalPos="75.00" arrivalSpeed="12.00" duration="158.00" routeLength="930.22" waitingTime="30.00" waitingCount="3" stopTime="0.00" timeLoss="87.18" rerouteNo="0" devices="tripinfo_f_0_2.15" vType="type1" speedFactor="1.11" vaporized=""/>
    <tripinfo id="f_0_2.16" depart="131.00" departLane="np2_nt2_0" departPos="14.04" departSpeed="0.00" departDelay="0.09" arrival="284.00" arrivalLane="nt15_np10_0" arrivalPos="75.00" arrivalSpeed="8.60" duration="153.00" routeLength="937.04" waitingTime="19.00" waitingCount="3" stopTime="0.00" timeLoss="52.79" rerouteNo="0" devices="tripinfo_f_0_2.16" vType="type1" speedFactor="0.78" vaporized=""/>
    <tripinfo id="f_0_0.7" depart="96.00" departLane="np13_nt13_0" departPos="36.44" departSpeed="0.00" departDelay="0.55" arrival="285.00" arrivalLane="nt4_np5_0" arrivalPos="75.00" arrivalSpeed="12.93" duration="189.00" routeLength="1311.45" waitingTime="27.00" waitingCount="5" stopTime="0.00" timeLoss="65.52" rerouteNo="0" devices="tripinfo_f_0_0.7" vType="type1" speedFactor="0.74" vaporized=""/>
    <tripinfo id="f_0_0.8" depart="110.00" departLane="np13_nt13_0" departPos="56.15" departSpeed="0.00" departDelay="0.91" arrival="286.00" arrivalLane="nt4_np5_0" arrivalPos="75.00" arrivalSpeed="16.31" duration="176.00" routeLength="1291.74" waitingTime="18.00" waitingCount="4" stopTime="0.00" timeLoss="83.98" rerouteNo="0" devices="tripinfo_f_0_0.8" vType="type1" speedFactor="0.98" vaporized=""/>
    <tripinfo id="f_0_2.17" depart="140.00" departLane="np2_nt2_0" departPos="4.53" departSpeed="0.00" departDelay="0.91" arrival="286.00" arrivalLane="nt15_np10_0" arrivalPos="75.00" arrivalSpeed="10.45" duration="146.00" routeLength="946.55" waitingTime="16.00" waitingCount="2" stopTime="0.00" timeLoss="63.62" rerouteNo="0" devices="tripinfo_f_0_2.17" vType="type1" speedFactor="0.96" vaporized=""/>
    <tripinfo id="f_0_0.9" depart="123.00" departLane="np13_nt13_0" departPos="41.91" departSpeed="0.00" departDelay="0.28" arrival="288.00" arrivalLane="nt4_np5_0" arrivalPos="75.00" arrivalSpeed="17.83" duration="165.00" routeLength="1305.98" waitingTime="17.00" waitingCount="4" stopTime="0.00" timeLoss="71.70" rerouteNo="0" devices="tripinfo_f_0_0.9" vType="type1" speedFactor="0.97" vaporized=""/>
    <tripinfo id="f_0_0.10" depart="137.00" departLane="np13_nt13_0" departPos="37.84" departSpeed="0.00" departDelay="0.64" arrival="289.00" arrivalLane="nt4_np5_0" arrivalPos="75.00" arrivalSpeed="20.09" duration="152.00" routeLength="1310.05" waitingTime="42.00" waitingCount="4" stopTime="0.00" timeLoss="77.19" rerouteNo="0" devices="tripinfo_f_0_0.10" vType="type1" speedFactor="1.22" vaporized=""/>
    <tripinfo id="f_0_2.18" depart="148.00" departLane="np2_nt2_0" departPos="49.12" departSpeed="0.00" departDelay="0.72" arrival="289.00" arrivalLane="nt15_np10_0" arrivalPos="75.00" arrivalSpeed="9.49" duration="141.00" routeLength="901.96" waitingTime="15.00" waitingCount="2" stopTime="0.00" timeLoss="62.74" rerouteNo="0" devices="tripinfo_f_0_2.18" vType="type1" speedFactor="0.97" vaporized=""/>
    <tripinfo id="f_0_2.19" depart="156.00" departLane="np2_nt2_0" departPos="39.03" departSpeed="0.00" departDelay="0.54" arrival="291.00" arrivalLane="nt15_np10_0" arrivalPos="75.00" arrivalSpeed="9.29" duration="135.00" routeLength="912.05" waitingTime="20.00" waitingCount="3" stopTime="0.00" timeLoss="48.55" rerouteNo="0" devices="tripinfo_f_0_2.19" vType="type1" speedFactor="0.88" vaporized=""/>
    <tripinfo id="f_0_2.20" depart="164.00" departLane="np2_nt2_0" departPos="0.60" departSpeed="0.00" departDelay="0.36" arrival="298.00" arrivalLane="nt15_np10_0" arrivalPos="75.00" arrivalSpeed="11.72" duration="134.00" routeLength="950.48" waitingTime="19.00" waitingCount="3" stopTime="0.00" timeLoss="62.29" rerouteNo="0" devices="tripinfo_f_0_2.20" vType="type1" speedFactor="1.12" vaporized=""/>
    <tripinfo id="f_0_1.9" depart="123.00" departLane="np16_nt1_0" departPos="14.76" departSpeed="0.00" departDelay="0.28" arrival="309.00" arrivalLane="nt16_np8_0" arrivalPos="75.00" arrivalSpeed="17.87" duration="186.00" routeLength="1333.12" waitingTime="44.00" waitingCount="3" stopTime="0.00" timeLoss="86.49" rerouteNo="0" devices="tripinfo_f_0_1.9" vType="type1" speedFactor="0.94" vaporized=""/>
    <tripinfo id="f_0_0.11" depart="150.00" departLane="np13_nt13_0" departPos="29.34" departSpeed="0.00" departDelay="0.00" arrival="313.00" arrivalLane="nt4_np5_0" arrivalPos="75.00" arrivalSpeed="20.05" duration="163.00" routeLength="1318.55" waitingTime="41.00" waitingCount="5" stopTime="0.00" timeLoss="79.75" rerouteNo="0" devices="tripinfo_f_0_0.11" vType="type1" speedFactor="1.11" vaporized=""/>
    <tripinfo id="f_0_0.12" depart="164.00" departLane="np13_nt13_0" departPos="48.59" departSpeed="0.00" departDelay="0.37" arrival="315.00" arrivalLane="nt4_np5_0" arrivalPos="75.00" arrivalSpeed="19.48" duration="151.00" routeLength="1299.30" waitingTime="33.00" waitingCount="4" stopTime="0.00" timeLoss="64.07" rerouteNo="0" devices="tripinfo_f_0_0.12" vType="type1" speedFactor="1.05" vaporized=""/>
    <tripinfo id="f_0_3.21" depart="172.00" departLane="np3_nt3_0" departPos="27.84" departSpeed="0.00" departDelay="0.18" arrival="317.00" arrivalLane="nt14_np11_0" arrivalPos="75.00" arrivalSpeed="10.03" duration="145.00" routeLength="923.25" waitingTime="41.00" waitingCount="4" stopTime="0.00" timeLoss="68.10" rerouteNo="0" devices="tripinfo_f_0_3.21" vType="type1" speedFactor="1.00" vaporized=""/>
    <tripinfo id="f_0_0.13" depart="178.00" departLane="np13_nt13_0" departPos="43.70" departSpeed="0.00" departDelay="0.73" arrival="317.00" arrivalLane="nt4_np5_0" arrivalPos="75.00" arrivalSpeed="20.81" duration="139.00" routeLength="1304.19" waitingTime="25.00" waitingCount="4" stopTime="0.00" timeLoss="53.92" rerouteNo="0" devices="tripinfo_f_0_0.13" vType="type1" speedFactor="1.08" vaporized=""/>
    <tripinfo id="f_0_1.10" depart="137.00" departLane="np16_nt1_0" departPos="4.85" departSpeed="0.00" departDelay="0.64" arrival="318.00" arrivalLane="nt16_np8_0" arrivalPos="75.00" arrivalSpeed="19.31" duration="181.00" routeLength="1343.03" waitingTime="43.00" waitingCount="6" stopTime="0.00" timeLoss="92.70" rerouteNo="0" devices="tripinfo_f_0_1.10" vType="type1" speedFactor="1.05" vaporized=""/>
    <tripinfo id="f_0_3.22" depart="180.00" departLane="np3_nt3_0" departPos="17.81" departSpeed="0.00" departDelay="0.00" arrival="319.00" arrivalLane="nt14_np11_0" arrivalPos="75.00" arrivalSpeed="10.26" duration="139.00" routeLength="933.28" waitingTime="36.00" waitingCount="3" stopTime="0.00" timeLoss="63.53" rerouteNo="0" devices="tripinfo_f_0_3.22" vType="type1" speedFactor="1.04" vaporized=""/>
    <tripinfo id="f_0_1.11" depart="150.00" departLane="np16_nt1_0" departPos="48.99" departSpeed="0.00" departDelay="0.00" arrival="320.00" arrivalLane="nt16_np8_0" arrivalPos="75.00" arrivalSpeed="17.66" duration="170.00" routeLength="1298.89" waitingTime="27.00" waitingCount="5" stopTime="0.00" timeLoss="75.29" rerouteNo="0" devices="tripinfo_f_0_1.11" vType="type1" speedFactor="0.96" vaporized=""/>
    <tripinfo id="f_0_2.21" depart="172.00" departLane="np2_nt2_0" departPos="41.93" departSpeed="0.00" departDelay="0.18" arrival="322.00" arrivalLane="nt15_np10_0" arrivalPos="75.00" arrivalSpeed="10.82" duration="150.00" routeLength="909.15" waitingTime="32.00" waitingCount="5" stopTime="0.00" timeLoss="79.11" rerouteNo="0" devices="tripinfo_f_0_2.21" vType="type1" speedFactor="1.08" vaporized=""/>