<?xml version="1.0" encoding="UTF-8"?>

<!-- generated on 2023-08-23 16:26:42 by Eclipse SUMO libsumo Version 1.18.0
<configuration xmlns:xsi="http://www.w3.org/2001/XMLSchema-instance" xsi:noNamespaceSchemaLocation="http://sumo.dlr.de/xsd/libsumoConfiguration.xsd">

    <input>
        <net-file value="/home/stefan/RESCO/./environments/arterial4x4/arterial4x4.net.xml"/>
        <route-files value="/home/stefan/RESCO/./environments/arterial4x4/arterial4x4_45.rou.xml"/>
    </input>

    <output>
        <tripinfo-output value="/home/stefan/results/IDDQN-tr0-arterial4x4-0-drq_norm-wait_norm/tripinfo_45.xml"/>
        <tripinfo-output.write-unfinished value="true"/>
    </output>

    <processing>
        <time-to-teleport value="-1"/>
    </processing>

    <report>
        <no-warnings value="True"/>
        <no-step-log value="True"/>
    </report>

    <random_number>
        <random value="true"/>
    </random_number>

</configuration>
-->

<tripinfos xmlns:xsi="http://www.w3.org/2001/XMLSchema-instance" xsi:noNamespaceSchemaLocation="http://sumo.dlr.de/xsd/tripinfo_file.xsd">
    <tripinfo id="f_0_3.0" depart="0.00" departLane="np3_nt3_0" departPos="60.52" departSpeed="0.00" departDelay="0.00" arrival="111.00" arrivalLane="nt14_np11_0" arrivalPos="75.00" arrivalSpeed="11.17" duration="111.00" routeLength="890.57" waitingTime="22.00" waitingCount="3" stopTime="0.00" timeLoss="39.83" rerouteNo="0" devices="tripinfo_f_0_3.0" vType="type1" speedFactor="1.04" vaporized=""/>
    <tripinfo id="f_0_2.0" depart="0.00" departLane="np2_nt2_0" departPos="23.75" departSpeed="0.00" departDelay="0.00" arrival="159.00" arrivalLane="nt15_np10_0" arrivalPos="75.00" arrivalSpeed="8.72" duration="159.00" routeLength="927.33" waitingTime="47.00" waitingCount="4" stopTime="0.00" timeLoss="73.89" rerouteNo="0" devices="tripinfo_f_0_2.0" vType="type1" speedFactor="0.92" vaporized=""/>
    <tripinfo id="f_0_3.1" depart="9.00" departLane="np3_nt3_0" departPos="32.10" departSpeed="0.00" departDelay="0.82" arrival="159.00" arrivalLane="nt14_np11_0" arrivalPos="75.00" arrivalSpeed="9.31" duration="150.00" routeLength="918.99" waitingTime="37.00" waitingCount="3" stopTime="0.00" timeLoss="65.88" rerouteNo="0" devices="tripinfo_f_0_3.1" vType="type1" speedFactor="0.92" vaporized=""/>
    <tripinfo id="f_0_0.0" depart="0.00" departLane="np13_nt13_0" departPos="3.08" departSpeed="0.00" departDelay="0.00" arrival="161.00" arrivalLane="nt4_np5_0" arrivalPos="75.00" arrivalSpeed="17.31" duration="161.00" routeLength="1344.81" waitingTime="38.00" waitingCount="4" stopTime="0.00" timeLoss="65.99" rerouteNo="0" devices="tripinfo_f_0_0.0" vType="type1" speedFactor="0.98" vaporized=""/>
    <tripinfo id="f_0_2.1" depart="9.00" departLane="np2_nt2_0" departPos="2.24" departSpeed="0.00" departDelay="0.82" arrival="170.00" arrivalLane="nt15_np10_0" arrivalPos="75.00" arrivalSpeed="9.56" duration="161.00" routeLength="948.84" waitingTime="54.00" waitingCount="4" stopTime="0.00" timeLoss="80.22" rerouteNo="0" devices="tripinfo_f_0_2.1" vType="type1" speedFactor="0.98" vaporized=""/>
    <tripinfo id="f_0_3.2" depart="17.00" departLane="np3_nt3_0" departPos="50.10" departSpeed="0.00" departDelay="0.64" arrival="173.00" arrivalLane="nt14_np11_0" arrivalPos="75.00" arrivalSpeed="8.80" duration="156.00" routeLength="900.99" waitingTime="42.00" waitingCount="6" stopTime="0.00" timeLoss="74.43" rerouteNo="0" devices="tripinfo_f_0_3.2" vType="type1" speedFactor="0.93" vaporized=""/>
    <tripinfo id="f_0_0.1" depart="14.00" departLane="np13_nt13_0" departPos="8.39" departSpeed="0.00" departDelay="0.36" arrival="177.00" arrivalLane="nt4_np5_0" arrivalPos="75.00" arrivalSpeed="19.39" duration="163.00" routeLength="1339.50" waitingTime="34.00" waitingCount="4" stopTime="0.00" timeLoss="70.69" rerouteNo="0" devices="tripinfo_f_0_0.1" vType="type1" speedFactor="1.01" vaporized=""/>
    <tripinfo id="f_0_2.2" depart="17.00" departLane="np2_nt2_0" departPos="52.86" departSpeed="0.00" departDelay="0.64" arrival="178.00" arrivalLane="nt15_np10_0" arrivalPos="75.00" arrivalSpeed="7.32" duration="161.00" routeLength="898.22" waitingTime="44.00" waitingCount="5" stopTime="0.00" timeLoss="76.07" rerouteNo="0" devices="tripinfo_f_0_2.2" vType="type1" speedFactor="0.89" vaporized=""/>
    <tripinfo id="f_0_1.0" depart="0.00" departLane="np16_nt1_0" departPos="60.05" departSpeed="0.00" departDelay="0.00" arrival="187.00" arrivalLane="nt16_np8_0" arrivalPos="75.00" arrivalSpeed="17.72" duration="187.00" routeLength="1287.83" waitingTime="50.00" waitingCount="5" stopTime="0.00" timeLoss="91.54" rerouteNo="0" devices="tripinfo_f_0_1.0" vType="type1" speedFactor="0.95" vaporized=""/>
    <tripinfo id="f_0_1.1" depart="14.00" departLane="np16_nt1_0" departPos="22.78" departSpeed="0.00" departDelay="0.36" arrival="188.00" arrivalLane="nt16_np8_0" arrivalPos="75.00" arrivalSpeed="20.06" duration="174.00" routeLength="1325.10" waitingTime="33.00" waitingCount="3" stopTime="0.00" timeLoss="85.61" rerouteNo="0" devices="tripinfo_f_0_1.1" vType="type1" speedFactor="1.04" vaporized=""/>
    <tripinfo id="f_0_1.2" depart="28.00" departLane="np16_nt1_0" departPos="8.02" departSpeed="0.00" departDelay="0.73" arrival="203.00" arrivalLane="nt16_np8_0" arrivalPos="75.00" arrivalSpeed="20.31" duration="175.00" routeLength="1339.86" waitingTime="41.00" waitingCount="5" stopTime="0.00" timeLoss="85.56" rerouteNo="0" devices="tripinfo_f_0_1.2" vType="type1" speedFactor="1.04" vaporized=""/>
    <tripinfo id="f_0_0.2" depart="28.00" departLane="np13_nt13_0" departPos="21.41" departSpeed="0.00" departDelay="0.73" arrival="208.00" arrivalLane="nt4_np5_0" arrivalPos="75.00" arrivalSpeed="19.76" duration="180.00" routeLength="1326.48" waitingTime="52.00" waitingCount="6" stopTime="0.00" timeLoss="95.23" rerouteNo="0" devices="tripinfo_f_0_0.2" vType="type1" speedFactor="1.08" vaporized=""/>
    <tripinfo id="f_0_3.3" depart="25.00" departLane="np3_nt3_0" departPos="31.36" departSpeed="0.00" departDelay="0.45" arrival="213.00" arrivalLane="nt14_np11_0" arrivalPos="75.00" arrivalSpeed="6.32" duration="188.00" routeLength="919.73" waitingTime="38.00" waitingCount="5" stopTime="0.00" timeLoss="74.61" rerouteNo="0" devices="tripinfo_f_0_3.3" vType="type1" speedFactor="0.68" vaporized=""/>
    <tripinfo id="f_0_3.4" depart="33.00" departLane="np3_nt3_0" departPos="33.84" departSpeed="0.00" departDelay="0.27" arrival="215.00" arrivalLane="nt14_np11_0" arrivalPos="75.00" arrivalSpeed="9.91" duration="182.00" routeLength="917.25" waitingTime="37.00" waitingCount="5" stopTime="0.00" timeLoss="110.04" rerouteNo="0" devices="tripinfo_f_0_3.4" vType="type1" speedFactor="1.07" vaporized=""/>
    <tripinfo id="f_0_3.5" depart="41.00" departLane="np3_nt3_0" departPos="35.80" departSpeed="0.00" departDelay="0.09" arrival="217.00" arrivalLane="nt14_np11_0" arrivalPos="75.00" arrivalSpeed="8.23" duration="176.00" routeLength="915.29" waitingTime="33.00" waitingCount="5" stopTime="0.00" timeLoss="87.83" rerouteNo="0" devices="tripinfo_f_0_3.5" vType="type1" speedFactor="0.87" vaporized=""/>
    <tripinfo id="f_0_0.3" depart="41.00" departLane="np13_nt13_0" departPos="13.53" departSpeed="0.00" departDelay="0.09" arrival="219.00" arrivalLane="nt4_np5_0" arrivalPos="75.00" arrivalSpeed="17.47" duration="178.00" routeLength="1334.36" waitingTime="33.00" waitingCount="6" stopTime="0.00" timeLoss="73.07" rerouteNo="0" devices="tripinfo_f_0_0.3" vType="type1" speedFactor="0.89" vaporized=""/>
    <tripinfo id="f_0_3.6" depart="50.00" departLane="np3_nt3_0" departPos="6.47" departSpeed="0.00" departDelay="0.91" arrival="219.00" arrivalLane="nt14_np11_0" arrivalPos="75.00" arrivalSpeed="11.39" duration="169.00" routeLength="944.62" waitingTime="52.00" waitingCount="4" stopTime="0.00" timeLoss="99.96" rerouteNo="0" devices="tripinfo_f_0_3.6" vType="type1" speedFactor="1.16" vaporized=""/>
    <tripinfo id="f_0_2.3" depart="25.00" departLane="np2_nt2_0" departPos="31.15" departSpeed="0.00" departDelay="0.45" arrival="232.00" arrivalLane="nt15_np10_0" arrivalPos="75.00" arrivalSpeed="9.68" duration="207.00" routeLength="919.93" waitingTime="83.00" waitingCount="6" stopTime="0.00" timeLoss="132.43" rerouteNo="0" devices="tripinfo_f_0_2.3" vType="type1" speedFactor="1.04" vaporized=""/>
    <tripinfo id="f_0_2.4" depart="33.00" departLane="np2_nt2_0" departPos="22.31" departSpeed="0.00" departDelay="0.27" arrival="236.00" arrivalLane="nt15_np10_0" arrivalPos="75.00" arrivalSpeed="8.26" duration="203.00" routeLength="928.77" waitingTime="60.00" waitingCount="9" stopTime="0.00" timeLoss="114.21" rerouteNo="0" devices="tripinfo_f_0_2.4" vType="type1" speedFactor="0.88" vaporized=""/>
    <tripinfo id="f_0_2.5" depart="41.00" departLane="np2_nt2_0" departPos="9.07" departSpeed="0.00" departDelay="0.09" arrival="238.00" arrivalLane="nt15_np10_0" arrivalPos="75.00" arrivalSpeed="9.34" duration="197.00" routeLength="942.01" waitingTime="48.00" waitingCount="7" stopTime="0.00" timeLoss="111.14" rerouteNo="0" devices="tripinfo_f_0_2.5" vType="type1" speedFactor="0.93" vaporized=""/>
    <tripinfo id="f_0_2.6" depart="50.00" departLane="np2_nt2_0" departPos="17.08" departSpeed="0.00" departDelay="0.91" arrival="239.00" arrivalLane="nt15_np10_0" arrivalPos="75.00" arrivalSpeed="12.78" duration="189.00" routeLength="934.00" waitingTime="65.00" waitingCount="7" stopTime="0.00" timeLoss="122.28" rerouteNo="0" devices="tripinfo_f_0_2.6" vType="type1" speedFactor="1.17" vaporized=""/>
    <tripinfo id="f_0_2.7" depart="58.00" departLane="np2_nt2_0" departPos="39.61" departSpeed="0.00" departDelay="0.73" arrival="246.00" arrivalLane="nt15_np10_0" arrivalPos="75.00" arrivalSpeed="12.47" duration="188.00" routeLength="911.47" waitingTime="63.00" waitingCount="7" stopTime="0.00" timeLoss="121.84" rerouteNo="0" devices="tripinfo_f_0_2.7" vType="type1" speedFactor="1.15" vaporized=""/>
    <tripinfo id="f_0_0.4" depart="55.00" departLane="np13_nt13_0" departPos="62.40" departSpeed="0.00" departDelay="0.46" arrival="248.00" arrivalLane="nt4_np5_0" arrivalPos="75.00" arrivalSpeed="20.26" duration="193.00" routeLength="1285.49" waitingTime="77.00" waitingCount="7" stopTime="0.00" timeLoss="112.17" rerouteNo="0" devices="tripinfo_f_0_0.4" vType="type1" speedFactor="1.12" vaporized=""/>
    <tripinfo id="f_0_3.7" depart="58.00" departLane="np3_nt3_0" departPos="30.18" departSpeed="0.00" departDelay="0.73" arrival="250.00" arrivalLane="nt14_np11_0" arrivalPos="75.00" arrivalSpeed="8.14" duration="192.00" routeLength="920.91" waitingTime="61.00" waitingCount="4" stopTime="0.00" timeLoss="89.86" rerouteNo="0" devices="tripinfo_f_0_3.7" vType="type1" speedFactor="0.76" vaporized=""/>
    <tripinfo id="f_0_0.5" depart="69.00" departLane="np13_nt13_0" departPos="38.60" departSpeed="0.00" departDelay="0.82" arrival="250.00" arrivalLane="nt4_np5_0" arrivalPos="75.00" arrivalSpeed="18.07" duration="181.00" routeLength="1309.29" waitingTime="45.00" waitingCount="5" stopTime="0.00" timeLoss="83.63" rerouteNo="0" devices="tripinfo_f_0_0.5" vType="type1" speedFactor="0.94" vaporized=""/>
    <tripinfo id="f_0_2.8" depart="66.00" departLane="np2_nt2_0" departPos="32.74" departSpeed="0.00" departDelay="0.54" arrival="252.00" arrivalLane="nt15_np10_0" arrivalPos="75.00" arrivalSpeed="10.30" duration="186.00" routeLength="918.34" waitingTime="52.00" waitingCount="8" stopTime="0.00" timeLoss="106.30" rerouteNo="0" devices="tripinfo_f_0_2.8" vType="type1" speedFactor="0.97" vaporized=""/>
    <tripinfo id="f_0_3.8" depart="66.00" departLane="np3_nt3_0" departPos="26.11" departSpeed="0.00" departDelay="0.54" arrival="252.00" arrivalLane="nt14_np11_0" arrivalPos="75.00" arrivalSpeed="9.51" duration="186.00" routeLength="924.98" waitingTime="65.00" waitingCount="6" stopTime="0.00" timeLoss="111.06" rerouteNo="0" devices="tripinfo_f_0_3.8" vType="type1" speedFactor="1.03" vaporized=""/>
    <tripinfo id="f_0_2.9" depart="74.00" departLane="np2_nt2_0" departPos="12.22" departSpeed="0.00" departDelay="0.36" arrival="254.00" arrivalLane="nt15_np10_0" arrivalPos="75.00" arrivalSpeed="11.78" duration="180.00" routeLength="938.86" waitingTime="45.00" waitingCount="6" stopTime="0.00" timeLoss="115.11" rerouteNo="0" devices="tripinfo_f_0_2.9" vType="type1" speedFactor="1.22" vaporized=""/>
    <tripinfo id="f_0_3.9" depart="74.00" departLane="np3_nt3_0" departPos="39.19" departSpeed="0.00" departDelay="0.36" arrival="263.00" arrivalLane="nt14_np11_0" arrivalPos="75.00" arrivalSpeed="9.60" duration="189.00" routeLength="911.90" waitingTime="65.00" waitingCount="6" stopTime="0.00" timeLoss="108.47" rerouteNo="0" devices="tripinfo_f_0_3.9" vType="type1" speedFactor="0.95" vaporized=""/>
    <tripinfo id="f_0_0.6" depart="82.00" departLane="np13_nt13_0" departPos="60.66" departSpeed="0.00" departDelay="0.18" arrival="264.00" arrivalLane="nt4_np5_0" arrivalPos="75.00" arrivalSpeed="16.92" duration="182.00" routeLength="1287.23" waitingTime="50.00" waitingCount="6" stopTime="0.00" timeLoss="89.16" rerouteNo="0" devices="tripinfo_f_0_0.6" vType="type1" speedFactor="0.97" vaporized=""/>
    <tripinfo id="f_0_3.10" depart="82.00" departLane="np3_nt3_0" departPos="31.39" departSpeed="0.00" departDelay="0.18" arrival="265.00" arrivalLane="nt14_np11_0" arrivalPos="75.00" arrivalSpeed="10.22" duration="183.00" routeLength="919.70" waitingTime="51.00" waitingCount="7" stopTime="0.00" timeLoss="110.27" rerouteNo="0" devices="tripinfo_f_0_3.10" vType="type1" speedFactor="1.06" vaporized=""/>
    <tripinfo id="f_0_3.11" depart="90.00" departLane="np3_nt3_0" departPos="19.92" departSpeed="0.00" departDelay="0.00" arrival="272.00" arrivalLane="nt14_np11_0" arrivalPos="75.00" arrivalSpeed="10.45" duration="182.00" routeLength="931.17" waitingTime="46.00" waitingCount="8" stopTime="0.00" timeLoss="106.86" rerouteNo="0" devices="tripinfo_f_0_3.11" vType="type1" speedFactor="1.04" vaporized=""/>
    <tripinfo id="f_0_1.3" depart="41.00" departLane="np16_nt1_0" departPos="46.74" departSpeed="0.00" departDelay="0.09" arrival="273.00" arrivalLane="nt16_np8_0" arrivalPos="75.00" arrivalSpeed="23.06" duration="232.00" routeLength="1301.14" waitingTime="78.00" waitingCount="8" stopTime="0.00" timeLoss="158.09" rerouteNo="0" devices="tripinfo_f_0_1.3" vType="type1" speedFactor="1.24" vaporized=""/>
    <tripinfo id="f_0_0.7" depart="96.00" departLane="np13_nt13_0" departPos="14.92" departSpeed="0.00" departDelay="0.55" arrival="274.00" arrivalLane="nt4_np5_0" arrivalPos="75.00" arrivalSpeed="19.64" duration="178.00" routeLength="1332.97" waitingTime="49.00" waitingCount="7" stopTime="0.00" timeLoss="93.15" rerouteNo="0" devices="tripinfo_f_0_0.7" vType="type1" speedFactor="1.09" vaporized=""/>
    <tripinfo id="f_0_3.12" depart="99.00" departLane="np3_nt3_0" departPos="2.23" departSpeed="0.00" departDelay="0.82" arrival="276.00" arrivalLane="nt14_np11_0" arrivalPos="75.00" arrivalSpeed="9.07" duration="177.00" routeLength="948.86" waitingTime="38.00" waitingCount="7" stopTime="0.00" timeLoss="86.85" rerouteNo="0" devices="tripinfo_f_0_3.12" vType="type1" speedFactor="0.89" vaporized=""/>
    <tripinfo id="f_0_3.13" depart="107.00" departLane="np3_nt3_0" departPos="7.22" departSpeed="0.00" departDelay="0.63" arrival="278.00" arrivalLane="nt14_np11_0" arrivalPos="75.00" arrivalSpeed="10.97" duration="171.00" routeLength="943.87" waitingTime="42.00" waitingCount="7" stopTime="0.00" timeLoss="93.20" rerouteNo="0" devices="tripinfo_f_0_3.13" vType="type1" speedFactor="1.02" vaporized=""/>
    <tripinfo id="f_0_3.14" depart="115.00" departLane="np3_nt3_0" departPos="11.12" departSpeed="0.00" departDelay="0.45" arrival="280.00" arrivalLane="nt14_np11_0" arrivalPos="75.00" arrivalSpeed="8.89" duration="165.00" routeLength="939.97" waitingTime="30.00" waitingCount="7" stopTime="0.00" timeLoss="78.17" rerouteNo="0" devices="tripinfo_f_0_3.14" vType="type1" speedFactor="0.91" vaporized=""/>
    <tripinfo id="f_0_1.4" depart="55.00" departLane="np16_nt1_0" departPos="67.77" departSpeed="0.00" departDelay="0.46" arrival="283.00" arrivalLane="nt16_np8_0" arrivalPos="75.00" arrivalSpeed="18.11" duration="228.00" routeLength="1280.11" waitingTime="66.00" waitingCount="9" stopTime="0.00" timeLoss="140.67" rerouteNo="0" devices="tripinfo_f_0_1.4" vType="type1" speedFactor="1.03" vaporized=""/>
    <tripinfo id="f_0_1.5" depart="69.00" departLane="np16_nt1_0" departPos="51.56" departSpeed="0.00" departDelay="0.82" arrival="285.00" arrivalLane="nt16_np8_0" arrivalPos="75.00" arrivalSpeed="23.62" duration="216.00" routeLength="1296.32" waitingTime="46.00" waitingCount="9" stopTime="0.00" timeLoss="140.71" rerouteNo="0" devices="tripinfo_f_0_1.5" vType="type1" speedFactor="1.21" vaporized=""/>
    <tripinfo id="f_0_0.8" depart="110.00" departLane="np13_nt13_0" departPos="49.07" departSpeed="0.00" departDelay="0.91" arrival="288.00" arrivalLane="nt4_np5_0" arrivalPos="75.00" arrivalSpeed="18.27" duration="178.00" routeLength="1298.82" waitingTime="51.00" waitingCount="6" stopTime="0.00" timeLoss="86.31" rerouteNo="0" devices="tripinfo_f_0_0.8" vType="type1" speedFactor="0.99" vaporized=""/>
    <tripinfo id="f_0_0.9" depart="123.00" departLane="np13_nt13_0" departPos="37.87" departSpeed="0.00" departDelay="0.28" arrival="290.00" arrivalLane="nt4_np5_0" arrivalPos="75.00" arrivalSpeed="20.14" duration="167.00" routeLength="1310.02" waitingTime="34.00" waitingCount="6" stopTime="0.00" timeLoss="80.15" rerouteNo="0" devices="tripinfo_f_0_0.9" vType="type1" speedFactor="1.05" vaporized=""/>
    <tripinfo id="f_0_3.15" depart="123.00" departLane="np3_nt3_0" departPos="6.43" departSpeed="0.00" departDelay="0.27" arrival="294.00" arrivalLane="nt14_np11_0" arrivalPos="75.00" arrivalSpeed="7.59" duration="171.00" routeLength="944.66" waitingTime="31.00" waitingCount="6" stopTime="0.00" timeLoss="81.96" rerouteNo="0" devices="tripinfo_f_0_3.15" vType="type1" speedFactor="0.89" vaporized=""/>
    <tripinfo id="f_0_2.10" depart="82.00" departLane="np2_nt2_0" departPos="22.54" departSpeed="0.00" departDelay="0.18" arrival="296.00" arrivalLane="nt15_np10_0" arrivalPos="75.00" arrivalSpeed="10.62" duration="214.00" routeLength="928.54" waitingTime="78.00" waitingCount="6" stopTime="0.00" timeLoss="147.23" rerouteNo="0" devices="tripinfo_f_0_2.10" vType="type1" speedFactor="1.17" vaporized=""/>
    <tripinfo id="f_0_3.16" depart="131.00" departLane="np3_nt3_0" departPos="4.19" departSpeed="0.00" departDelay="0.09" arrival="296.00" arrivalLane="nt14_np11_0" arrivalPos="75.00" arrivalSpeed="8.89" duration="165.00" routeLength="946.90" waitingTime="47.00" waitingCount="6" stopTime="0.00" timeLoss="87.08" rerouteNo="0" devices="tripinfo_f_0_3.16" vType="type1" speedFactor="1.03" vaporized=""/>
    <tripinfo id="f_0_2.11" depart="90.00" departLane="np2_nt2_0" departPos="47.07" departSpeed="0.00" departDelay="0.00" arrival="298.00" arrivalLane="nt15_np10_0" arrivalPos="75.00" arrivalSpeed="9.80" duration="208.00" routeLength="904.01" waitingTime="72.00" waitingCount="6" stopTime="0.00" timeLoss="139.18" rerouteNo="0" devices="tripinfo_f_0_2.11" vType="type1" speedFactor="1.09" vaporized=""/>
    <tripinfo id="f_0_0.10" depart="137.00" departLane="np13_nt13_0" departPos="34.35" departSpeed="0.00" departDelay="0.64" arrival="304.00" arrivalLane="nt4_np5_0" arrivalPos="75.00" arrivalSpeed="15.44" duration="167.00" routeLength="1313.54" waitingTime="16.00" waitingCount="4" stopTime="0.00" timeLoss="54.56" rerouteNo="0" devices="tripinfo_f_0_0.10" vType="type1" speedFactor="0.82" vaporized=""/>
    <tripinfo id="f_0_0.11" depart="150.00" departLane="np13_nt13_0" departPos="12.92" departSpeed="0.00" departDelay="0.00" arrival="305.00" arrivalLane="nt4_np5_0" arrivalPos="75.00" arrivalSpeed="19.11" duration="155.00" routeLength="1334.97" waitingTime="13.00" waitingCount="2" stopTime="0.00" timeLoss="58.87" rerouteNo="0" devices="tripinfo_f_0_0.11" vType="type1" speedFactor="0.96" vaporized=""/>
    <tripinfo id="f_0_2.12" depart="99.00" departLane="np2_nt2_0" departPos="23.01" departSpeed="0.00" departDelay="0.82" arrival="307.00" arrivalLane="nt15_np10_0" arrivalPos="75.00" arrivalSpeed="9.04" duration="208.00" routeLength="928.07" waitingTime="78.00" waitingCount="8" stopTime="0.00" timeLoss="132.02" rerouteNo="0" devices="tripinfo_f_0_2.12" vType="type1" speedFactor="1.02" vaporized=""/>
    <tripinfo id="f_0_0.12" depart="164.00" departLane="np13_nt13_0" departPos="39.59" departSpeed="0.00" departDelay="0.37" arrival="307.00" arrivalLane="nt4_np5_0" arrivalPos="75.00" arrivalSpeed="20.40" duration="143.00" routeLength="1308.30" waitingTime="19.00" waitingCount="5" stopTime="0.00" timeLoss="57.46" rerouteNo="0" devices="tripinfo_f_0_0.12" vType="type1" speedFactor="1.07" vaporized=""/>
    <tripinfo id="f_0_1.6" depart="82.00" departLane="np16_nt1_0" departPos="44.66" departSpeed="0.00" departDelay="0.18" arrival="312.00" arrivalLane="nt16_np8_0" arrivalPos="75.00" arrivalSpeed="20.70" duration="230.00" routeLength="1303.22" waitingTime="80.00" waitingCount="8" stopTime="0.00" timeLoss="148.63" rerouteNo="0" devices="tripinfo_f_0_1.6" vType="type1" speedFactor="1.13" vaporized=""/>
    <tripinfo id="f_0_3.17" depart="140.00" departLane="np3_nt3_0" departPos="14.34" departSpeed="0.00" departDelay="0.91" arrival="312.00" arrivalLane="nt14_np11_0" arrivalPos="75.00" arrivalSpeed="10.18" duration="172.00" routeLength="936.75" waitingTime="51.00" waitingCount="7" stopTime="0.00" timeLoss="91.63" rerouteNo="0" devices="tripinfo_f_0_3.17" vType="type1" speedFactor="0.97" vaporized=""/>
    <tripinfo id="f_0_3.18" depart="148.00" departLane="np3_nt3_0" departPos="7.09" departSpeed="0.00" departDelay="0.72" arrival="314.00" arrivalLane="nt14_np11_0" arrivalPos="75.00" arrivalSpeed="10.38" duration="166.00" routeLength="944.00" waitingTime="44.00" waitingCount="5" stopTime="0.00" timeLoss="87.29" rerouteNo="0" devices="tripinfo_f_0_3.18" vType="type1" speedFactor="1.01" vaporized=""/>
    <tripinfo id="f_0_2.13" depart="107.00" departLane="np2_nt2_0" departPos="46.44" departSpeed="0.00" departDelay="0.63" arrival="317.00" arrivalLane="nt15_np10_0" arrivalPos="75.00" arrivalSpeed="10.18" duration="210.00" routeLength="904.64" waitingTime="79.00" waitingCount="8" stopTime="0.00" timeLoss="140.04" rerouteNo="0" devices="tripinfo_f_0_2.13" vType="type1" speedFactor="1.09" vaporized=""/>
    <tripinfo id="f_0_2.14" depart="115.00" departLane="np2_nt2_0" departPos="27.12" departSpeed="0.00" departDelay="0.45" arrival="323.00" arrivalLane="nt15_np10_0" arrivalPos="75.00" arrivalSpeed="10.06" duration="208.00" routeLength="923.96" waitingTime="60.00" waitingCount="8" stopTime="0.00" timeLoss="126.60" rerouteNo="0" devices="tripinfo_f_0_2.14" vType="type1" speedFactor="0.96" vaporized=""/>
    <tripinfo id="f_0_0.13" depart="178.00" departLane="np13_nt13_0" departPos="6.40" departSpeed="0.00" departDelay="0.73" arrival="333.00" arrivalLane="nt4_np5_0" arrivalPos="75.00" arrivalSpeed="21.01" duration="155.00" routeLength="1341.49" waitingTime="35.00" waitingCount="4" stopTime="0.00" timeLoss="70.17" rerouteNo="0" devices="tripinfo_f_0_0.13" vType="type1" speedFactor="1.10" vaporized=""/>
    <tripinfo id="f_0_1.7" depart="96.00" departLane="np16_nt1_0" departPos="25.12" departSpeed="0.00" departDelay="0.55" arrival="334.00" arrivalLane="nt16_np8_0" arrivalPos="75.00" arrivalSpeed="18.71" duration="238.00" routeLength="1322.76" waitingTime="74.00" waitingCount="9" stopTime="0.00" timeLoss="146.86" rerouteNo="0" devices="tripinfo_f_0_1.7" vType="type1" speedFactor="1.01" vaporized=""/>
    <tripinfo id="f_0_0.14" depart="191.00" departLane="np13_nt13_0" departPos="26.46" departSpeed="0.00" departDelay="0.10" arrival="334.00" arrivalLane="nt4_np5_0" arrivalPos="75.00" arrivalSpeed="21.16" duration="143.00" routeLength="1321.43" waitingTime="20.00" waitingCount="2" stopTime="0.00" timeLoss="61.57" rerouteNo="0" devices="tripinfo_f_0_0.14" vType="type1" speedFactor="1.12" vaporized=""/>
    <tripinfo id="f_0_2.15" depart="123.00" departLane="np2_nt2_0" departPos="28.11" departSpeed="0.00" departDelay="0.27" arrival="336.00" arrivalLane="nt15_np10_0" arrivalPos="75.00" arrivalSpeed="10.10" duration="213.00" routeLength="922.97" waitingTime="50.00" waitingCount="8" stopTime="0.00" timeLoss="143.62" rerouteNo="0" devices="tripinfo_f_0_2.15" vType="type1" speedFactor="1.12" vaporized=""/>
    <tripinfo id="f_0_1.8" depart="110.00" departLane="np16_nt1_0" departPos="27.21" departSpeed="0.00" departDelay="0.91" arrival="337.00" arrivalLane="nt16_np8_0" arrivalPos="75.00" arrivalSpeed="17.51" duration="227.00" routeLength="1320.67" waitingTime="54.00" waitingCount="7" stopTime="0.00" timeLoss="125.20" rerouteNo="0" devices="tripinfo_f_0_1.8" vType="type1" speedFactor="0.91" vaporized=""/>
    <tripinfo id="f_0_2.16" depart="131.00" departLane="np2_nt2_0" departPos="54.02" departSpeed="0.00" departDelay="0.09" arrival="338.00" arrivalLane="nt15_np10_0" arrivalPos="75.00" arrivalSpeed="11.87" duration="207.00" routeLength="897.06" waitingTime="58.00" waitingCount="7" stopTime="0.00" timeLoss="140.42" rerouteNo="0" devices="tripinfo_f_0_2.16" vType="type1" speedFactor="1.13" vaporized=""/>
    <tripinfo id="f_0_1.9" depart="123.00" departLane="np16_nt1_0" departPos="51.74" departSpeed="0.00" departDelay="0.28" arrival="340.00" arrivalLane="nt16_np8_0" arrivalPos="75.00" arrivalSpeed="19.06" duration="217.00" routeLength="1296.14" waitingTime="49.00" waitingCount="8" stopTime="0.00" timeLoss="130.01" rerouteNo="0" devices="tripinfo_f_0_1.9" vType="type1" speedFactor="1.04" vaporized=""/>
    <tripinfo id="f_0_1.10" depart="137.00" departLane="np16_nt1_0" departPos="50.67" departSpeed="0.00" departDelay="0.64" arrival="352.00" arrivalLane="nt16_np8_0" arrivalPos="75.00" arrivalSpeed="16.27" duration="215.00" routeLength="1297.21" waitingTime="45.00" waitingCount="5" stopTime="0.00" timeLoss="110.59" rerouteNo="0" devices="tripinfo_f_0_1.10" vType="type1" speedFactor="0.88" vaporized=""/>
    <tripinfo id="f_0_1.11" depart="150.00" departLane="np16_nt1_0" departPos="23.92" departSpeed="0.00" departDelay="0.00" arrival="362.00" arrivalLane="nt16_np8_0" arrivalPos="75.00" arrivalSpeed="23.62" duration="212.00" routeLength="1323.96" waitingTime="71.00" waitingCount="7" stopTime="0.00" timeLoss="135.45" rerouteNo="0" devices="tripinfo_f_0_1.11" vType="type1" speedFactor="1.21" vaporized=""/>
    <tripinfo id="f_0_3.19" depart="156.00" departLane="np3_nt3_0" departPos="3.10" departSpeed="0.00" departDelay="0.54" arrival="372.00" arrivalLane="nt14_np11_0" arrivalPos="75.00" arrivalSpeed="10.67" duration="216.00" routeLength="947.99" waitingTime="91.00" waitingCount="7" stopTime="0.00" timeLoss="138.99" rerouteNo="0" devices="tripinfo_f_0_3.19" vType="type1" speedFactor="1.03" vaporized=""/>
    <tripinfo id="f_0_0.15" depart="205.00" departLane="np13_nt13_0" departPos="23.37" departSpeed="0.00" departDelay="0.46" arrival="399.00" arrivalLane="nt4_np5_0" arrivalPos="75.00" arrivalSpeed="17.90" duration="194.00" routeLength="1324.52" waitingTime="60.00" waitingCount="5" stopTime="0.00" timeLoss="96.59" rerouteNo="0" devices="tripinfo_f_0_0.15" vType="type1" speedFactor="0.95" vaporized=""/>
    <tripinfo id="f_0_2.17" depart="140.00" departLane="np2_nt2_0" departPos="46.94" departSpeed="0.00" departDelay="0.91" arrival="413.00" arrivalLane="nt15_np10_0" arrivalPos="75.00" arrivalSpeed="9.47" duration="273.00" routeLength="904.14" waitingTime="127.00" waitingCount="10" stopTime="0.00" timeLoss="194.58" rerouteNo="0" devices="tripinfo_f_0_2.17" vType="type1" speedFactor="0.96" vaporized=""/>
    <tripinfo id="f_0_2.18" depart="148.00" departLane="np2_nt2_0" departPos="48.56" departSpeed="0.00" departDelay="0.72" arrival="422.00" arrivalLane="nt15_np10_0" arrivalPos="75.00" arrivalSpeed="9.78" duration="274.00" routeLength="902.52" waitingTime="118.00" waitingCount="11" stopTime="0.00" timeLoss="202.20" rerouteNo="0" devices="tripinfo_f_0_2.18" vType="type1" speedFactor="1.06" vaporized=""/>
    <tripinfo id="f_0_2.19" depart="156.00" departLane="np2_nt2_0" departPos="16.72" departSpeed="0.00" departDelay="0.54" arrival="424.00" arrivalLane="nt15_np10_0" arrivalPos="75.00" arrivalSpeed="13.55" duration="268.00" routeLength="934.36" waitingTime="102.00" waitingCount="11" stopTime="0.00" timeLoss="205.47" rerouteNo="0" devices="tripinfo_f_0_2.19" vType="type1" speedFactor="1.25" vaporized=""/>
    <tripinfo id="f_0_3.20" depart="164.00" departLane="np3_nt3_0" departPos="6.17" departSpeed="0.00" departDelay="0.36" arrival="428.00" arrivalLane="nt14_np11_0" arrivalPos="75.00" arrivalSpeed="9.06" duration="264.00" routeLength="944.92" waitingTime="128.00" waitingCount="9" stopTime="0.00" timeLoss="183.49" rerouteNo="0" devices="tripinfo_f_0_3.20" vType="type1" speedFactor="0.99" vaporized=""/>
    <tripinfo id="f_0_0.16" depart="219.00" departLane="np13_nt13_0" departPos="66.39" departSpeed="0.00" departDelay="0.82" arrival="429.00" arrivalLane="nt4_np5_0" arrivalPos="75.00" arrivalSpeed="14.06" duration="210.00" routeLength="1281.50" waitingTime="59.00" waitingCount="5" stopTime="0.00" timeLoss="93.48" rerouteNo="0" devices="tripinfo_f_0_0.16" vType="type1" speedFactor="0.77" vaporized=""/>
    <tripinfo id="f_0_3.21" depart="172.00" departLane="np3_nt3_0" departPos="3.60" departSpeed="0.00" departDelay="0.18" arrival="431.00" arrivalLane="nt14_np11_0" arrivalPos="75.00" arrivalSpeed="9.18" duration="259.00" routeLength="947.49" waitingTime="112.00" waitingCount="9" stopTime="0.00" timeLoss="163.50" rerouteNo="0" devices="tripinfo_f_0_3.21" vType="type1" speedFactor="0.84" vaporized=""/>