<?xml version="1.0" encoding="UTF-8"?>

<!-- generated on 2023-08-23 16:52:40 by Eclipse SUMO libsumo Version 1.18.0
<configuration xmlns:xsi="http://www.w3.org/2001/XMLSchema-instance" xsi:noNamespaceSchemaLocation="http://sumo.dlr.de/xsd/libsumoConfiguration.xsd">

    <input>
        <net-file value="/home/stefan/RESCO/./environments/arterial4x4/arterial4x4.net.xml"/>
        <route-files value="/home/stefan/RESCO/./environments/arterial4x4/arterial4x4_76.rou.xml"/>
    </input>

    <output>
        <tripinfo-output value="/home/stefan/results/IDDQN-tr0-arterial4x4-0-drq_norm-wait_norm/tripinfo_76.xml"/>
        <tripinfo-output.write-unfinished value="true"/>
    </output>

    <processing>
        <time-to-teleport value="-1"/>
    </processing>

    <report>
        <no-warnings value="True"/>
        <no-step-log value="True"/>
    </report>

    <random_number>
        <random value="true"/>
    </random_number>

</configuration>
-->

<tripinfos xmlns:xsi="http://www.w3.org/2001/XMLSchema-instance" xsi:noNamespaceSchemaLocation="http://sumo.dlr.de/xsd/tripinfo_file.xsd">
    <tripinfo id="f_0_3.0" depart="0.00" departLane="np3_nt3_0" departPos="43.97" departSpeed="0.00" departDelay="0.00" arrival="107.00" arrivalLane="nt14_np11_0" arrivalPos="75.00" arrivalSpeed="9.14" duration="107.00" routeLength="907.12" waitingTime="13.00" waitingCount="2" stopTime="0.00" timeLoss="29.59" rerouteNo="0" devices="tripinfo_f_0_3.0" vType="type1" speedFactor="0.98" vaporized=""/>
    <tripinfo id="f_0_3.1" depart="9.00" departLane="np3_nt3_0" departPos="47.99" departSpeed="0.00" departDelay="0.82" arrival="110.00" arrivalLane="nt14_np11_0" arrivalPos="75.00" arrivalSpeed="10.10" duration="101.00" routeLength="903.10" waitingTime="6.00" waitingCount="1" stopTime="0.00" timeLoss="23.57" rerouteNo="0" devices="tripinfo_f_0_3.1" vType="type1" speedFactor="0.98" vaporized=""/>
    <tripinfo id="f_0_3.2" depart="17.00" departLane="np3_nt3_0" departPos="4.46" departSpeed="0.00" departDelay="0.64" arrival="116.00" arrivalLane="nt14_np11_0" arrivalPos="75.00" arrivalSpeed="10.94" duration="99.00" routeLength="946.63" waitingTime="8.00" waitingCount="2" stopTime="0.00" timeLoss="23.49" rerouteNo="0" devices="tripinfo_f_0_3.2" vType="type1" speedFactor="1.05" vaporized=""/>
    <tripinfo id="f_0_3.3" depart="25.00" departLane="np3_nt3_0" departPos="23.30" departSpeed="0.00" departDelay="0.45" arrival="121.00" arrivalLane="nt14_np11_0" arrivalPos="75.00" arrivalSpeed="8.97" duration="96.00" routeLength="927.79" waitingTime="1.00" waitingCount="1" stopTime="0.00" timeLoss="16.03" rerouteNo="0" devices="tripinfo_f_0_3.3" vType="type1" speedFactor="0.97" vaporized=""/>
    <tripinfo id="f_0_0.0" depart="0.00" departLane="np13_nt13_0" departPos="67.49" departSpeed="0.00" departDelay="0.00" arrival="122.00" arrivalLane="nt4_np5_0" arrivalPos="75.00" arrivalSpeed="18.38" duration="122.00" routeLength="1280.40" waitingTime="9.00" waitingCount="3" stopTime="0.00" timeLoss="27.30" rerouteNo="0" devices="tripinfo_f_0_0.0" vType="type1" speedFactor="0.95" vaporized=""/>
    <tripinfo id="f_0_2.0" depart="0.00" departLane="np2_nt2_0" departPos="4.40" departSpeed="0.00" departDelay="0.00" arrival="136.00" arrivalLane="nt15_np10_0" arrivalPos="75.00" arrivalSpeed="10.75" duration="136.00" routeLength="946.68" waitingTime="47.00" waitingCount="2" stopTime="0.00" timeLoss="64.47" rerouteNo="0" devices="tripinfo_f_0_2.0" vType="type1" speedFactor="1.10" vaporized=""/>
    <tripinfo id="f_0_2.1" depart="9.00" departLane="np2_nt2_0" departPos="17.45" departSpeed="0.00" departDelay="0.82" arrival="142.00" arrivalLane="nt15_np10_0" arrivalPos="75.00" arrivalSpeed="12.25" duration="133.00" routeLength="933.63" waitingTime="29.00" waitingCount="4" stopTime="0.00" timeLoss="63.72" rerouteNo="0" devices="tripinfo_f_0_2.1" vType="type1" speedFactor="1.14" vaporized=""/>
    <tripinfo id="f_0_3.4" depart="33.00" departLane="np3_nt3_0" departPos="4.60" departSpeed="0.00" departDelay="0.27" arrival="151.00" arrivalLane="nt14_np11_0" arrivalPos="75.00" arrivalSpeed="9.22" duration="118.00" routeLength="946.49" waitingTime="11.00" waitingCount="2" stopTime="0.00" timeLoss="30.56" rerouteNo="0" devices="tripinfo_f_0_3.4" vType="type1" speedFactor="0.91" vaporized=""/>
    <tripinfo id="f_0_3.5" depart="41.00" departLane="np3_nt3_0" departPos="16.07" departSpeed="0.00" departDelay="0.09" arrival="153.00" arrivalLane="nt14_np11_0" arrivalPos="75.00" arrivalSpeed="10.79" duration="112.00" routeLength="935.02" waitingTime="8.00" waitingCount="3" stopTime="0.00" timeLoss="33.83" rerouteNo="0" devices="tripinfo_f_0_3.5" vType="type1" speedFactor="1.01" vaporized=""/>
    <tripinfo id="f_0_0.1" depart="14.00" departLane="np13_nt13_0" departPos="59.69" departSpeed="0.00" departDelay="0.36" arrival="167.00" arrivalLane="nt4_np5_0" arrivalPos="75.00" arrivalSpeed="19.47" duration="153.00" routeLength="1288.20" waitingTime="41.00" waitingCount="3" stopTime="0.00" timeLoss="64.68" rerouteNo="0" devices="tripinfo_f_0_0.1" vType="type1" speedFactor="1.02" vaporized=""/>
    <tripinfo id="f_0_1.0" depart="0.00" departLane="np16_nt1_0" departPos="5.05" departSpeed="0.00" departDelay="0.00" arrival="169.00" arrivalLane="nt16_np8_0" arrivalPos="75.00" arrivalSpeed="18.06" duration="169.00" routeLength="1342.83" waitingTime="38.00" waitingCount="3" stopTime="0.00" timeLoss="66.54" rerouteNo="0" devices="tripinfo_f_0_1.0" vType="type1" speedFactor="0.91" vaporized=""/>
    <tripinfo id="f_0_2.2" depart="17.00" departLane="np2_nt2_0" departPos="22.15" departSpeed="0.00" departDelay="0.64" arrival="170.00" arrivalLane="nt15_np10_0" arrivalPos="75.00" arrivalSpeed="8.65" duration="153.00" routeLength="928.93" waitingTime="30.00" waitingCount="3" stopTime="0.00" timeLoss="56.08" rerouteNo="0" devices="tripinfo_f_0_2.2" vType="type1" speedFactor="0.80" vaporized=""/>
    <tripinfo id="f_0_2.3" depart="25.00" departLane="np2_nt2_0" departPos="42.22" departSpeed="0.00" departDelay="0.45" arrival="173.00" arrivalLane="nt15_np10_0" arrivalPos="75.00" arrivalSpeed="8.27" duration="148.00" routeLength="908.86" waitingTime="24.00" waitingCount="4" stopTime="0.00" timeLoss="68.38" rerouteNo="0" devices="tripinfo_f_0_2.3" vType="type1" speedFactor="0.97" vaporized=""/>
    <tripinfo id="f_0_2.4" depart="33.00" departLane="np2_nt2_0" departPos="18.22" departSpeed="0.00" departDelay="0.27" arrival="174.00" arrivalLane="nt15_np10_0" arrivalPos="75.00" arrivalSpeed="11.23" duration="141.00" routeLength="932.86" waitingTime="30.00" waitingCount="5" stopTime="0.00" timeLoss="66.71" rerouteNo="0" devices="tripinfo_f_0_2.4" vType="type1" speedFactor="1.05" vaporized=""/>
    <tripinfo id="f_0_2.5" depart="41.00" departLane="np2_nt2_0" departPos="10.77" departSpeed="0.00" departDelay="0.09" arrival="182.00" arrivalLane="nt15_np10_0" arrivalPos="75.00" arrivalSpeed="9.48" duration="141.00" routeLength="940.31" waitingTime="29.00" waitingCount="4" stopTime="0.00" timeLoss="63.02" rerouteNo="0" devices="tripinfo_f_0_2.5" vType="type1" speedFactor="1.02" vaporized=""/>
    <tripinfo id="f_0_1.1" depart="14.00" departLane="np16_nt1_0" departPos="34.81" departSpeed="0.00" departDelay="0.36" arrival="198.00" arrivalLane="nt16_np8_0" arrivalPos="75.00" arrivalSpeed="18.62" duration="184.00" routeLength="1313.07" waitingTime="43.00" waitingCount="4" stopTime="0.00" timeLoss="85.87" rerouteNo="0" devices="tripinfo_f_0_1.1" vType="type1" speedFactor="0.93" vaporized=""/>
    <tripinfo id="f_0_2.6" depart="50.00" departLane="np2_nt2_0" departPos="28.08" departSpeed="0.00" departDelay="0.91" arrival="198.00" arrivalLane="nt15_np10_0" arrivalPos="75.00" arrivalSpeed="10.78" duration="148.00" routeLength="923.00" waitingTime="28.00" waitingCount="4" stopTime="0.00" timeLoss="69.63" rerouteNo="0" devices="tripinfo_f_0_2.6" vType="type1" speedFactor="0.99" vaporized=""/>
    <tripinfo id="f_0_1.2" depart="28.00" departLane="np16_nt1_0" departPos="66.77" departSpeed="0.00" departDelay="0.73" arrival="200.00" arrivalLane="nt16_np8_0" arrivalPos="75.00" arrivalSpeed="21.54" duration="172.00" routeLength="1281.11" waitingTime="36.00" waitingCount="6" stopTime="0.00" timeLoss="87.59" rerouteNo="0" devices="tripinfo_f_0_1.2" vType="type1" speedFactor="1.08" vaporized=""/>
    <tripinfo id="f_0_2.7" depart="58.00" departLane="np2_nt2_0" departPos="27.03" departSpeed="0.00" departDelay="0.73" arrival="200.00" arrivalLane="nt15_np10_0" arrivalPos="75.00" arrivalSpeed="10.32" duration="142.00" routeLength="924.05" waitingTime="24.00" waitingCount="4" stopTime="0.00" timeLoss="64.10" rerouteNo="0" devices="tripinfo_f_0_2.7" vType="type1" speedFactor="1.00" vaporized=""/>
    <tripinfo id="f_0_3.6" depart="50.00" departLane="np3_nt3_0" departPos="36.03" departSpeed="0.00" departDelay="0.91" arrival="202.00" arrivalLane="nt14_np11_0" arrivalPos="75.00" arrivalSpeed="9.47" duration="152.00" routeLength="915.06" waitingTime="48.00" waitingCount="4" stopTime="0.00" timeLoss="71.74" rerouteNo="0" devices="tripinfo_f_0_3.6" vType="type1" speedFactor="0.96" vaporized=""/>
    <tripinfo id="f_0_0.2" depart="28.00" departLane="np13_nt13_0" departPos="46.36" departSpeed="0.00" departDelay="0.73" arrival="203.00" arrivalLane="nt4_np5_0" arrivalPos="75.00" arrivalSpeed="16.20" duration="175.00" routeLength="1301.53" waitingTime="47.00" waitingCount="5" stopTime="0.00" timeLoss="77.64" rerouteNo="0" devices="tripinfo_f_0_0.2" vType="type1" speedFactor="0.93" vaporized=""/>
    <tripinfo id="f_0_0.3" depart="41.00" departLane="np13_nt13_0" departPos="50.27" departSpeed="0.00" departDelay="0.09" arrival="205.00" arrivalLane="nt4_np5_0" arrivalPos="75.00" arrivalSpeed="19.26" duration="164.00" routeLength="1297.62" waitingTime="33.00" waitingCount="5" stopTime="0.00" timeLoss="70.77" rerouteNo="0" devices="tripinfo_f_0_0.3" vType="type1" speedFactor="0.97" vaporized=""/>
    <tripinfo id="f_0_3.7" depart="58.00" departLane="np3_nt3_0" departPos="52.45" departSpeed="0.00" departDelay="0.73" arrival="205.00" arrivalLane="nt14_np11_0" arrivalPos="75.00" arrivalSpeed="8.40" duration="147.00" routeLength="898.64" waitingTime="35.00" waitingCount="5" stopTime="0.00" timeLoss="65.72" rerouteNo="0" devices="tripinfo_f_0_3.7" vType="type1" speedFactor="0.92" vaporized=""/>
    <tripinfo id="f_0_0.4" depart="55.00" departLane="np13_nt13_0" departPos="39.58" departSpeed="0.00" departDelay="0.46" arrival="207.00" arrivalLane="nt4_np5_0" arrivalPos="75.00" arrivalSpeed="20.41" duration="152.00" routeLength="1308.31" waitingTime="16.00" waitingCount="2" stopTime="0.00" timeLoss="66.62" rerouteNo="0" devices="tripinfo_f_0_0.4" vType="type1" speedFactor="1.07" vaporized=""/>
    <tripinfo id="f_0_2.8" depart="66.00" departLane="np2_nt2_0" departPos="9.79" departSpeed="0.00" departDelay="0.54" arrival="208.00" arrivalLane="nt15_np10_0" arrivalPos="75.00" arrivalSpeed="10.03" duration="142.00" routeLength="941.29" waitingTime="26.00" waitingCount="4" stopTime="0.00" timeLoss="57.36" rerouteNo="0" devices="tripinfo_f_0_2.8" vType="type1" speedFactor="0.94" vaporized=""/>
    <tripinfo id="f_0_3.8" depart="66.00" departLane="np3_nt3_0" departPos="10.75" departSpeed="0.00" departDelay="0.54" arrival="212.00" arrivalLane="nt14_np11_0" arrivalPos="75.00" arrivalSpeed="10.28" duration="146.00" routeLength="940.34" waitingTime="31.00" waitingCount="6" stopTime="0.00" timeLoss="68.37" rerouteNo="0" devices="tripinfo_f_0_3.8" vType="type1" speedFactor="1.02" vaporized=""/>
    <tripinfo id="f_0_3.9" depart="74.00" departLane="np3_nt3_0" departPos="0.58" departSpeed="0.00" departDelay="0.36" arrival="214.00" arrivalLane="nt14_np11_0" arrivalPos="75.00" arrivalSpeed="9.53" duration="140.00" routeLength="950.51" waitingTime="36.00" waitingCount="4" stopTime="0.00" timeLoss="63.65" rerouteNo="0" devices="tripinfo_f_0_3.9" vType="type1" speedFactor="1.04" vaporized=""/>
    <tripinfo id="f_0_0.5" depart="69.00" departLane="np13_nt13_0" departPos="7.45" departSpeed="0.00" departDelay="0.82" arrival="217.00" arrivalLane="nt4_np5_0" arrivalPos="75.00" arrivalSpeed="18.85" duration="148.00" routeLength="1340.44" waitingTime="14.00" waitingCount="3" stopTime="0.00" timeLoss="51.14" rerouteNo="0" devices="tripinfo_f_0_0.5" vType="type1" speedFactor="0.96" vaporized=""/>
    <tripinfo id="f_0_3.10" depart="82.00" departLane="np3_nt3_0" departPos="2.19" departSpeed="0.00" departDelay="0.18" arrival="217.00" arrivalLane="nt14_np11_0" arrivalPos="75.00" arrivalSpeed="10.88" duration="135.00" routeLength="948.90" waitingTime="26.00" waitingCount="4" stopTime="0.00" timeLoss="54.21" rerouteNo="0" devices="tripinfo_f_0_3.10" vType="type1" speedFactor="1.00" vaporized=""/>
    <tripinfo id="f_0_2.9" depart="74.00" departLane="np2_nt2_0" departPos="44.64" departSpeed="0.00" departDelay="0.36" arrival="218.00" arrivalLane="nt15_np10_0" arrivalPos="75.00" arrivalSpeed="7.52" duration="144.00" routeLength="906.44" waitingTime="29.00" waitingCount="5" stopTime="0.00" timeLoss="60.58" rerouteNo="0" devices="tripinfo_f_0_2.9" vType="type1" speedFactor="0.91" vaporized=""/>
    <tripinfo id="f_0_0.6" depart="82.00" departLane="np13_nt13_0" departPos="46.69" departSpeed="0.00" departDelay="0.18" arrival="218.00" arrivalLane="nt4_np5_0" arrivalPos="75.00" arrivalSpeed="20.99" duration="136.00" routeLength="1301.20" waitingTime="25.00" waitingCount="4" stopTime="0.00" timeLoss="55.91" rerouteNo="0" devices="tripinfo_f_0_0.6" vType="type1" speedFactor="1.14" vaporized=""/>
    <tripinfo id="f_0_3.11" depart="90.00" departLane="np3_nt3_0" departPos="2.23" departSpeed="0.00" departDelay="0.00" arrival="218.00" arrivalLane="nt14_np11_0" arrivalPos="75.00" arrivalSpeed="11.74" duration="128.00" routeLength="948.86" waitingTime="17.00" waitingCount="4" stopTime="0.00" timeLoss="59.86" rerouteNo="0" devices="tripinfo_f_0_3.11" vType="type1" speedFactor="1.16" vaporized=""/>
    <tripinfo id="f_0_0.7" depart="96.00" departLane="np13_nt13_0" departPos="37.26" departSpeed="0.00" departDelay="0.55" arrival="219.00" arrivalLane="nt4_np5_0" arrivalPos="75.00" arrivalSpeed="20.51" duration="123.00" routeLength="1310.63" waitingTime="14.00" waitingCount="2" stopTime="0.00" timeLoss="40.62" rerouteNo="0" devices="tripinfo_f_0_0.7" vType="type1" speedFactor="1.11" vaporized=""/>
    <tripinfo id="f_0_2.10" depart="82.00" departLane="np2_nt2_0" departPos="10.15" departSpeed="0.00" departDelay="0.18" arrival="220.00" arrivalLane="nt15_np10_0" arrivalPos="75.00" arrivalSpeed="9.65" duration="138.00" routeLength="940.93" waitingTime="23.00" waitingCount="3" stopTime="0.00" timeLoss="56.96" rerouteNo="0" devices="tripinfo_f_0_2.10" vType="type1" speedFactor="0.98" vaporized=""/>
    <tripinfo id="f_0_2.11" depart="90.00" departLane="np2_nt2_0" departPos="50.58" departSpeed="0.00" departDelay="0.00" arrival="222.00" arrivalLane="nt15_np10_0" arrivalPos="75.00" arrivalSpeed="10.90" duration="132.00" routeLength="900.50" waitingTime="17.00" waitingCount="2" stopTime="0.00" timeLoss="58.78" rerouteNo="0" devices="tripinfo_f_0_2.11" vType="type1" speedFactor="1.03" vaporized=""/>
    <tripinfo id="f_0_2.12" depart="99.00" departLane="np2_nt2_0" departPos="30.71" departSpeed="0.00" departDelay="0.82" arrival="232.00" arrivalLane="nt15_np10_0" arrivalPos="75.00" arrivalSpeed="8.61" duration="133.00" routeLength="920.37" waitingTime="10.00" waitingCount="3" stopTime="0.00" timeLoss="51.41" rerouteNo="0" devices="tripinfo_f_0_2.12" vType="type1" speedFactor="0.95" vaporized=""/>
    <tripinfo id="f_0_1.3" depart="41.00" departLane="np16_nt1_0" departPos="5.28" departSpeed="0.00" departDelay="0.09" arrival="234.00" arrivalLane="nt16_np8_0" arrivalPos="75.00" arrivalSpeed="16.21" duration="193.00" routeLength="1342.60" waitingTime="39.00" waitingCount="6" stopTime="0.00" timeLoss="92.03" rerouteNo="0" devices="tripinfo_f_0_1.3" vType="type1" speedFactor="0.93" vaporized=""/>
    <tripinfo id="f_0_1.4" depart="55.00" departLane="np16_nt1_0" departPos="17.21" departSpeed="0.00" departDelay="0.46" arrival="235.00" arrivalLane="nt16_np8_0" arrivalPos="75.00" arrivalSpeed="16.54" duration="180.00" routeLength="1330.67" waitingTime="36.00" waitingCount="6" stopTime="0.00" timeLoss="81.41" rerouteNo="0" devices="tripinfo_f_0_1.4" vType="type1" speedFactor="0.94" vaporized=""/>
    <tripinfo id="f_0_2.13" depart="107.00" departLane="np2_nt2_0" departPos="19.83" departSpeed="0.00" departDelay="0.63" arrival="241.00" arrivalLane="nt15_np10_0" arrivalPos="75.00" arrivalSpeed="10.22" duration="134.00" routeLength="931.25" waitingTime="18.00" waitingCount="2" stopTime="0.00" timeLoss="52.84" rerouteNo="0" devices="tripinfo_f_0_2.13" vType="type1" speedFactor="0.96" vaporized=""/>
    <tripinfo id="f_0_3.12" depart="99.00" departLane="np3_nt3_0" departPos="0.46" departSpeed="0.00" departDelay="0.82" arrival="243.00" arrivalLane="nt14_np11_0" arrivalPos="75.00" arrivalSpeed="9.26" duration="144.00" routeLength="950.63" waitingTime="23.00" waitingCount="3" stopTime="0.00" timeLoss="57.11" rerouteNo="0" devices="tripinfo_f_0_3.12" vType="type1" speedFactor="0.93" vaporized=""/>
    <tripinfo id="f_0_3.13" depart="107.00" departLane="np3_nt3_0" departPos="2.68" departSpeed="0.00" departDelay="0.63" arrival="245.00" arrivalLane="nt14_np11_0" arrivalPos="75.00" arrivalSpeed="10.77" duration="138.00" routeLength="948.41" waitingTime="34.00" waitingCount="5" stopTime="0.00" timeLoss="59.16" rerouteNo="0" devices="tripinfo_f_0_3.13" vType="type1" speedFactor="1.02" vaporized=""/>
    <tripinfo id="f_0_3.14" depart="115.00" departLane="np3_nt3_0" departPos="20.58" departSpeed="0.00" departDelay="0.45" arrival="247.00" arrivalLane="nt14_np11_0" arrivalPos="75.00" arrivalSpeed="10.10" duration="132.00" routeLength="930.51" waitingTime="23.00" waitingCount="4" stopTime="0.00" timeLoss="55.38" rerouteNo="0" devices="tripinfo_f_0_3.14" vType="type1" speedFactor="1.02" vaporized=""/>
    <tripinfo id="f_0_1.5" depart="69.00" departLane="np16_nt1_0" departPos="46.98" departSpeed="0.00" departDelay="0.82" arrival="248.00" arrivalLane="nt16_np8_0" arrivalPos="75.00" arrivalSpeed="20.69" duration="179.00" routeLength="1300.90" waitingTime="30.00" waitingCount="6" stopTime="0.00" timeLoss="94.55" rerouteNo="0" devices="tripinfo_f_0_1.5" vType="type1" speedFactor="1.09" vaporized=""/>
    <tripinfo id="f_0_1.6" depart="82.00" departLane="np16_nt1_0" departPos="16.75" departSpeed="0.00" departDelay="0.18" arrival="250.00" arrivalLane="nt16_np8_0" arrivalPos="75.00" arrivalSpeed="22.61" duration="168.00" routeLength="1331.13" waitingTime="25.00" waitingCount="6" stopTime="0.00" timeLoss="86.80" rerouteNo="0" devices="tripinfo_f_0_1.6" vType="type1" speedFactor="1.15" vaporized=""/>
    <tripinfo id="f_0_3.15" depart="123.00" departLane="np3_nt3_0" departPos="34.25" departSpeed="0.00" departDelay="0.27" arrival="253.00" arrivalLane="nt14_np11_0" arrivalPos="75.00" arrivalSpeed="7.21" duration="130.00" routeLength="916.84" waitingTime="17.00" waitingCount="3" stopTime="0.00" timeLoss="42.65" rerouteNo="0" devices="tripinfo_f_0_3.15" vType="type1" speedFactor="0.88" vaporized=""/>
    <tripinfo id="f_0_3.16" depart="131.00" departLane="np3_nt3_0" departPos="27.10" departSpeed="0.00" departDelay="0.09" arrival="271.00" arrivalLane="nt14_np11_0" arrivalPos="75.00" arrivalSpeed="11.06" duration="140.00" routeLength="923.99" waitingTime="41.00" waitingCount="4" stopTime="0.00" timeLoss="66.63" rerouteNo="0" devices="tripinfo_f_0_3.16" vType="type1" speedFactor="1.05" vaporized=""/>
    <tripinfo id="f_0_3.17" depart="140.00" departLane="np3_nt3_0" departPos="15.30" departSpeed="0.00" departDelay="0.91" arrival="274.00" arrivalLane="nt14_np11_0" arrivalPos="75.00" arrivalSpeed="9.41" duration="134.00" routeLength="935.79" waitingTime="26.00" waitingCount="3" stopTime="0.00" timeLoss="56.28" rerouteNo="0" devices="tripinfo_f_0_3.17" vType="type1" speedFactor="1.01" vaporized=""/>
    <tripinfo id="f_0_3.18" depart="148.00" departLane="np3_nt3_0" departPos="51.07" departSpeed="0.00" departDelay="0.72" arrival="276.00" arrivalLane="nt14_np11_0" arrivalPos="75.00" arrivalSpeed="10.94" duration="128.00" routeLength="900.02" waitingTime="24.00" waitingCount="4" stopTime="0.00" timeLoss="54.70" rerouteNo="0" devices="tripinfo_f_0_3.18" vType="type1" speedFactor="1.02" vaporized=""/>
    <tripinfo id="f_0_0.8" depart="110.00" departLane="np13_nt13_0" departPos="9.07" departSpeed="0.00" departDelay="0.91" arrival="278.00" arrivalLane="nt4_np5_0" arrivalPos="75.00" arrivalSpeed="19.61" duration="168.00" routeLength="1338.82" waitingTime="52.00" waitingCount="3" stopTime="0.00" timeLoss="73.97" rerouteNo="0" devices="tripinfo_f_0_0.8" vType="type1" speedFactor="0.98" vaporized=""/>
    <tripinfo id="f_0_0.9" depart="123.00" departLane="np13_nt13_0" departPos="54.83" departSpeed="0.00" departDelay="0.28" arrival="281.00" arrivalLane="nt4_np5_0" arrivalPos="75.00" arrivalSpeed="15.77" duration="158.00" routeLength="1293.06" waitingTime="26.00" waitingCount="1" stopTime="0.00" timeLoss="50.63" rerouteNo="0" devices="tripinfo_f_0_0.9" vType="type1" speedFactor="0.85" vaporized=""/>
    <tripinfo id="f_0_3.19" depart="156.00" departLane="np3_nt3_0" departPos="46.21" departSpeed="0.00" departDelay="0.54" arrival="281.00" arrivalLane="nt14_np11_0" arrivalPos="75.00" arrivalSpeed="7.81" duration="125.00" routeLength="904.88" waitingTime="20.00" waitingCount="3" stopTime="0.00" timeLoss="41.62" rerouteNo="0" devices="tripinfo_f_0_3.19" vType="type1" speedFactor="0.90" vaporized=""/>
    <tripinfo id="f_0_1.7" depart="96.00" departLane="np16_nt1_0" departPos="6.51" departSpeed="0.00" departDelay="0.55" arrival="289.00" arrivalLane="nt16_np8_0" arrivalPos="75.00" arrivalSpeed="19.44" duration="193.00" routeLength="1341.37" waitingTime="54.00" waitingCount="7" stopTime="0.00" timeLoss="104.79" rerouteNo="0" devices="tripinfo_f_0_1.7" vType="type1" speedFactor="1.06" vaporized=""/>
    <tripinfo id="f_0_2.14" depart="115.00" departLane="np2_nt2_0" departPos="23.64" departSpeed="0.00" departDelay="0.45" arrival="292.00" arrivalLane="nt15_np10_0" arrivalPos="75.00" arrivalSpeed="11.16" duration="177.00" routeLength="927.44" waitingTime="59.00" waitingCount="6" stopTime="0.00" timeLoss="103.19" rerouteNo="0" devices="tripinfo_f_0_2.14" vType="type1" speedFactor="1.06" vaporized=""/>
    <tripinfo id="f_0_0.10" depart="137.00" departLane="np13_nt13_0" departPos="22.16" departSpeed="0.00" departDelay="0.64" arrival="294.00" arrivalLane="nt4_np5_0" arrivalPos="75.00" arrivalSpeed="18.10" duration="157.00" routeLength="1325.73" waitingTime="23.00" waitingCount="4" stopTime="0.00" timeLoss="55.49" rerouteNo="0" devices="tripinfo_f_0_0.10" vType="type1" speedFactor="0.91" vaporized=""/>
    <tripinfo id="f_0_2.15" depart="123.00" departLane="np2_nt2_0" departPos="4.47" departSpeed="0.00" departDelay="0.27" arrival="298.00" arrivalLane="nt15_np10_0" arrivalPos="75.00" arrivalSpeed="10.35" duration="175.00" routeLength="946.61" waitingTime="51.00" waitingCount="5" stopTime="0.00" timeLoss="105.64" rerouteNo="0" devices="tripinfo_f_0_2.15" vType="type1" speedFactor="1.15" vaporized=""/>
    <tripinfo id="f_0_1.8" depart="110.00" departLane="np16_nt1_0" departPos="30.71" departSpeed="0.00" departDelay="0.91" arrival="302.00" arrivalLane="nt16_np8_0" arrivalPos="75.00" arrivalSpeed="17.47" duration="192.00" routeLength="1317.17" waitingTime="48.00" waitingCount="4" stopTime="0.00" timeLoss="98.96" rerouteNo="0" devices="tripinfo_f_0_1.8" vType="type1" speedFactor="0.99" vaporized=""/>
    <tripinfo id="f_0_2.16" depart="131.00" departLane="np2_nt2_0" departPos="54.23" departSpeed="0.00" departDelay="0.09" arrival="302.00" arrivalLane="nt15_np10_0" arrivalPos="75.00" arrivalSpeed="10.14" duration="171.00" routeLength="896.85" waitingTime="53.00" waitingCount="5" stopTime="0.00" timeLoss="89.64" rerouteNo="0" devices="tripinfo_f_0_2.16" vType="type1" speedFactor="0.93" vaporized=""/>
    <tripinfo id="f_0_1.9" depart="123.00" departLane="np16_nt1_0" departPos="62.56" departSpeed="0.00" departDelay="0.28" arrival="305.00" arrivalLane="nt16_np8_0" arrivalPos="75.00" arrivalSpeed="18.72" duration="182.00" routeLength="1285.32" waitingTime="46.00" waitingCount="3" stopTime="0.00" timeLoss="94.05" rerouteNo="0" devices="tripinfo_f_0_1.9" vType="type1" speedFactor="1.03" vaporized=""/>
    <tripinfo id="f_0_2.17" depart="140.00" departLane="np2_nt2_0" departPos="43.56" departSpeed="0.00" departDelay="0.91" arrival="307.00" arrivalLane="nt15_np10_0" arrivalPos="75.00" arrivalSpeed="7.73" duration="167.00" routeLength="907.52" waitingTime="41.00" waitingCount="5" stopTime="0.00" timeLoss="84.49" rerouteNo="0" devices="tripinfo_f_0_2.17" vType="type1" speedFactor="0.93" vaporized=""/>
    <tripinfo id="f_0_0.11" depart="150.00" departLane="np13_nt13_0" departPos="34.83" departSpeed="0.00" departDelay="0.00" arrival="308.00" arrivalLane="nt4_np5_0" arrivalPos="75.00" arrivalSpeed="18.02" duration="158.00" routeLength="1313.06" waitingTime="24.00" waitingCount="3" stopTime="0.00" timeLoss="60.26" rerouteNo="0" devices="tripinfo_f_0_0.11" vType="type1" speedFactor="0.94" vaporized=""/>
    <tripinfo id="f_0_0.12" depart="164.00" departLane="np13_nt13_0" departPos="11.06" departSpeed="0.00" departDelay="0.37" arrival="310.00" arrivalLane="nt4_np5_0" arrivalPos="75.00" arrivalSpeed="19.93" duration="146.00" routeLength="1336.83" waitingTime="23.00" waitingCount="5" stopTime="0.00" timeLoss="53.46" rerouteNo="0" devices="tripinfo_f_0_0.12" vType="type1" speedFactor="1.00" vaporized=""/>
    <tripinfo id="f_0_2.18" depart="148.00" departLane="np2_nt2_0" departPos="22.07" departSpeed="0.00" departDelay="0.72" arrival="312.00" arrivalLane="nt15_np10_0" arrivalPos="75.00" arrivalSpeed="9.91" duration="164.00" routeLength="929.01" waitingTime="46.00" waitingCount="4" stopTime="0.00" timeLoss="81.68" rerouteNo="0" devices="tripinfo_f_0_2.18" vType="type1" speedFactor="0.95" vaporized=""/>
    <tripinfo id="f_0_2.19" depart="156.00" departLane="np2_nt2_0" departPos="11.22" departSpeed="0.00" departDelay="0.54" arrival="315.00" arrivalLane="nt15_np10_0" arrivalPos="75.00" arrivalSpeed="8.62" duration="159.00" routeLength="939.86" waitingTime="31.00" waitingCount="3" stopTime="0.00" timeLoss="69.40" rerouteNo="0" devices="tripinfo_f_0_2.19" vType="type1" speedFactor="0.89" vaporized=""/>
    <tripinfo id="f_0_2.20" depart="164.00" departLane="np2_nt2_0" departPos="2.36" departSpeed="0.00" departDelay="0.36" arrival="321.00" arrivalLane="nt15_np10_0" arrivalPos="75.00" arrivalSpeed="8.00" duration="157.00" routeLength="948.72" waitingTime="23.00" waitingCount="5" stopTime="0.00" timeLoss="62.57" rerouteNo="0" devices="tripinfo_f_0_2.20" vType="type1" speedFactor="0.84" vaporized=""/>
    <tripinfo id="f_0_3.20" depart="164.00" departLane="np3_nt3_0" departPos="44.84" departSpeed="0.00" departDelay="0.36" arrival="321.00" arrivalLane="nt14_np11_0" arrivalPos="75.00" arrivalSpeed="11.04" duration="157.00" routeLength="906.25" waitingTime="55.00" waitingCount="5" stopTime="0.00" timeLoss="91.05" rerouteNo="0" devices="tripinfo_f_0_3.20" vType="type1" speedFactor="1.14" vaporized=""/>
    <tripinfo id="f_0_2.21" depart="172.00" departLane="np2_nt2_0" departPos="38.80" departSpeed="0.00" departDelay="0.18" arrival="323.00" arrivalLane="nt15_np10_0" arrivalPos="75.00" arrivalSpeed="8.77" duration="151.00" routeLength="912.28" waitingTime="16.00" waitingCount="4" stopTime="0.00" timeLoss="58.18" rerouteNo="0" devices="tripinfo_f_0_2.21" vType="type1" speedFactor="0.83" vaporized=""/>
    <tripinfo id="f_0_3.21" depart="172.00" departLane="np3_nt3_0" departPos="24.82" departSpeed="0.00" departDelay="0.18" arrival="324.00" arrivalLane="nt14_np11_0" arrivalPos="75.00" arrivalSpeed="10.49" duration="152.00" routeLength="926.27" waitingTime="35.00" waitingCount="5" stopTime="0.00" timeLoss="74.03" rerouteNo="0" devices="tripinfo_f_0_3.21" vType="type1" speedFactor="1.00" vaporized=""/>
    <tripinfo id="f_0_3.22" depart="180.00" departLane="np3_nt3_0" departPos="22.10" departSpeed="0.00" departDelay="0.00" arrival="327.00" arrivalLane="nt14_np11_0" arrivalPos="75.00" arrivalSpeed="9.38" duration="147.00" routeLength="928.99" waitingTime="33.00" waitingCount="6" stopTime="0.00" timeLoss="65.36" rerouteNo="0" devices="tripinfo_f_0_3.22" vType="type1" speedFactor="0.95" vaporized=""/>
    <tripinfo id="f_0_1.10" depart="137.00" departLane="np16_nt1_0" departPos="10.12" departSpeed="0.00" departDelay="0.64" arrival="328.00" arrivalLane="nt16_np8_0" arrivalPos="75.00" arrivalSpeed="22.02" duration="191.00" routeLength="1337.76" waitingTime="55.00" waitingCount="5" stopTime="0.00" timeLoss="107.39" rerouteNo="0" devices="tripinfo_f_0_1.10" vType="type1" speedFactor="1.11" vaporized=""/>
    <tripinfo id="f_0_3.23" depart="189.00" departLane="np3_nt3_0" departPos="55.67" departSpeed="0.00" departDelay="0.81" arrival="329.00" arrivalLane="nt14_np11_0" arrivalPos="75.00" arrivalSpeed="9.06" duration="140.00" routeLength="895.42" waitingTime="35.00" waitingCount="7" stopTime="0.00" timeLoss="67.51" rerouteNo="0" devices="tripinfo_f_0_3.23" vType="type1" speedFactor="1.03" vaporized=""/>
    <tripinfo id="f_0_1.11" depart="150.00" departLane="np16_nt1_0" departPos="60.72" departSpeed="0.00" departDelay="0.00" arrival="330.00" arrivalLane="nt16_np8_0" arrivalPos="75.00" arrivalSpeed="15.72" duration="180.00" routeLength="1287.16" waitingTime="40.00" waitingCount="5" stopTime="0.00" timeLoss="75.79" rerouteNo="0" devices="tripinfo_f_0_1.11" vType="type1" speedFactor="0.87" vaporized=""/>