<?xml version="1.0" encoding="UTF-8"?>

<!-- generated on 2023-08-23 16:03:19 by Eclipse SUMO libsumo Version 1.18.0
<configuration xmlns:xsi="http://www.w3.org/2001/XMLSchema-instance" xsi:noNamespaceSchemaLocation="http://sumo.dlr.de/xsd/libsumoConfiguration.xsd">

    <input>
        <net-file value="/home/stefan/RESCO/./environments/arterial4x4/arterial4x4.net.xml"/>
        <route-files value="/home/stefan/RESCO/./environments/arterial4x4/arterial4x4_17.rou.xml"/>
    </input>

    <output>
        <tripinfo-output value="/home/stefan/results/IDDQN-tr0-arterial4x4-0-drq_norm-wait_norm/tripinfo_17.xml"/>
        <tripinfo-output.write-unfinished value="true"/>
    </output>

    <processing>
        <time-to-teleport value="-1"/>
    </processing>

    <report>
        <no-warnings value="True"/>
        <no-step-log value="True"/>
    </report>

    <random_number>
        <random value="true"/>
    </random_number>

</configuration>
-->

<tripinfos xmlns:xsi="http://www.w3.org/2001/XMLSchema-instance" xsi:noNamespaceSchemaLocation="http://sumo.dlr.de/xsd/tripinfo_file.xsd">
    <tripinfo id="f_0_2.0" depart="0.00" departLane="np2_nt2_0" departPos="33.26" departSpeed="0.00" departDelay="0.00" arrival="97.00" arrivalLane="nt15_np10_0" arrivalPos="75.00" arrivalSpeed="9.39" duration="97.00" routeLength="917.82" waitingTime="6.00" waitingCount="3" stopTime="0.00" timeLoss="25.34" rerouteNo="0" devices="tripinfo_f_0_2.0" vType="type1" speedFactor="1.08" vaporized=""/>
    <tripinfo id="f_0_0.0" depart="0.00" departLane="np13_nt13_0" departPos="39.09" departSpeed="0.00" departDelay="0.00" arrival="144.00" arrivalLane="nt4_np5_0" arrivalPos="75.00" arrivalSpeed="19.69" duration="144.00" routeLength="1308.80" waitingTime="24.00" waitingCount="4" stopTime="0.00" timeLoss="53.18" rerouteNo="0" devices="tripinfo_f_0_0.0" vType="type1" speedFactor="1.01" vaporized=""/>
    <tripinfo id="f_0_3.0" depart="0.00" departLane="np3_nt3_0" departPos="8.78" departSpeed="0.00" departDelay="0.00" arrival="172.00" arrivalLane="nt14_np11_0" arrivalPos="75.00" arrivalSpeed="8.88" duration="172.00" routeLength="942.31" waitingTime="68.00" waitingCount="5" stopTime="0.00" timeLoss="95.58" rerouteNo="0" devices="tripinfo_f_0_3.0" vType="type1" speedFactor="1.03" vaporized=""/>
    <tripinfo id="f_0_2.1" depart="9.00" departLane="np2_nt2_0" departPos="12.69" departSpeed="0.00" departDelay="0.82" arrival="172.00" arrivalLane="nt15_np10_0" arrivalPos="75.00" arrivalSpeed="10.26" duration="163.00" routeLength="938.39" waitingTime="54.00" waitingCount="5" stopTime="0.00" timeLoss="82.61" rerouteNo="0" devices="tripinfo_f_0_2.1" vType="type1" speedFactor="0.98" vaporized=""/>
    <tripinfo id="f_0_2.2" depart="17.00" departLane="np2_nt2_0" departPos="54.48" departSpeed="0.00" departDelay="0.64" arrival="192.00" arrivalLane="nt15_np10_0" arrivalPos="75.00" arrivalSpeed="9.78" duration="175.00" routeLength="896.60" waitingTime="64.00" waitingCount="7" stopTime="0.00" timeLoss="105.34" rerouteNo="0" devices="tripinfo_f_0_2.2" vType="type1" speedFactor="1.08" vaporized=""/>
    <tripinfo id="f_0_2.3" depart="25.00" departLane="np2_nt2_0" departPos="39.74" departSpeed="0.00" departDelay="0.45" arrival="194.00" arrivalLane="nt15_np10_0" arrivalPos="75.00" arrivalSpeed="10.65" duration="169.00" routeLength="911.34" waitingTime="51.00" waitingCount="7" stopTime="0.00" timeLoss="99.99" rerouteNo="0" devices="tripinfo_f_0_2.3" vType="type1" speedFactor="1.11" vaporized=""/>
    <tripinfo id="f_0_2.4" depart="33.00" departLane="np2_nt2_0" departPos="48.00" departSpeed="0.00" departDelay="0.27" arrival="202.00" arrivalLane="nt15_np10_0" arrivalPos="75.00" arrivalSpeed="10.35" duration="169.00" routeLength="903.08" waitingTime="46.00" waitingCount="6" stopTime="0.00" timeLoss="96.25" rerouteNo="0" devices="tripinfo_f_0_2.4" vType="type1" speedFactor="1.03" vaporized=""/>
    <tripinfo id="f_0_1.0" depart="0.00" departLane="np16_nt1_0" departPos="64.81" departSpeed="0.00" departDelay="0.00" arrival="204.00" arrivalLane="nt16_np8_0" arrivalPos="75.00" arrivalSpeed="19.59" duration="204.00" routeLength="1283.07" waitingTime="71.00" waitingCount="6" stopTime="0.00" timeLoss="113.86" rerouteNo="0" devices="tripinfo_f_0_1.0" vType="type1" speedFactor="1.00" vaporized=""/>
    <tripinfo id="f_0_0.1" depart="14.00" departLane="np13_nt13_0" departPos="66.41" departSpeed="0.00" departDelay="0.36" arrival="209.00" arrivalLane="nt4_np5_0" arrivalPos="75.00" arrivalSpeed="16.44" duration="195.00" routeLength="1281.48" waitingTime="54.00" waitingCount="6" stopTime="0.00" timeLoss="90.02" rerouteNo="0" devices="tripinfo_f_0_0.1" vType="type1" speedFactor="0.86" vaporized=""/>
    <tripinfo id="f_0_3.1" depart="9.00" departLane="np3_nt3_0" departPos="5.26" departSpeed="0.00" departDelay="0.82" arrival="216.00" arrivalLane="nt14_np11_0" arrivalPos="75.00" arrivalSpeed="10.77" duration="207.00" routeLength="945.83" waitingTime="100.00" waitingCount="6" stopTime="0.00" timeLoss="133.42" rerouteNo="0" devices="tripinfo_f_0_3.1" vType="type1" speedFactor="1.08" vaporized=""/>
    <tripinfo id="f_0_1.1" depart="14.00" departLane="np16_nt1_0" departPos="13.07" departSpeed="0.00" departDelay="0.36" arrival="228.00" arrivalLane="nt16_np8_0" arrivalPos="75.00" arrivalSpeed="22.69" duration="214.00" routeLength="1334.81" waitingTime="92.00" waitingCount="8" stopTime="0.00" timeLoss="137.05" rerouteNo="0" devices="tripinfo_f_0_1.1" vType="type1" speedFactor="1.20" vaporized=""/>
    <tripinfo id="f_0_1.2" depart="28.00" departLane="np16_nt1_0" departPos="54.32" departSpeed="0.00" departDelay="0.73" arrival="230.00" arrivalLane="nt16_np8_0" arrivalPos="75.00" arrivalSpeed="22.59" duration="202.00" routeLength="1293.56" waitingTime="61.00" waitingCount="7" stopTime="0.00" timeLoss="121.77" rerouteNo="0" devices="tripinfo_f_0_1.2" vType="type1" speedFactor="1.13" vaporized=""/>
    <tripinfo id="f_0_2.5" depart="41.00" departLane="np2_nt2_0" departPos="36.30" departSpeed="0.00" departDelay="0.09" arrival="236.00" arrivalLane="nt15_np10_0" arrivalPos="75.00" arrivalSpeed="11.70" duration="195.00" routeLength="914.78" waitingTime="72.00" waitingCount="9" stopTime="0.00" timeLoss="124.60" rerouteNo="0" devices="tripinfo_f_0_2.5" vType="type1" speedFactor="1.09" vaporized=""/>
    <tripinfo id="f_0_2.6" depart="50.00" departLane="np2_nt2_0" departPos="46.58" departSpeed="0.00" departDelay="0.91" arrival="240.00" arrivalLane="nt15_np10_0" arrivalPos="75.00" arrivalSpeed="9.26" duration="190.00" routeLength="904.50" waitingTime="71.00" waitingCount="7" stopTime="0.00" timeLoss="109.74" rerouteNo="0" devices="tripinfo_f_0_2.6" vType="type1" speedFactor="0.94" vaporized=""/>
    <tripinfo id="f_0_1.3" depart="41.00" departLane="np16_nt1_0" departPos="41.30" departSpeed="0.00" departDelay="0.09" arrival="244.00" arrivalLane="nt16_np8_0" arrivalPos="75.00" arrivalSpeed="17.04" duration="203.00" routeLength="1306.58" waitingTime="53.00" waitingCount="6" stopTime="0.00" timeLoss="106.06" rerouteNo="0" devices="tripinfo_f_0_1.3" vType="type1" speedFactor="0.95" vaporized=""/>
    <tripinfo id="f_0_2.7" depart="58.00" departLane="np2_nt2_0" departPos="11.96" departSpeed="0.00" departDelay="0.73" arrival="248.00" arrivalLane="nt15_np10_0" arrivalPos="75.00" arrivalSpeed="9.17" duration="190.00" routeLength="939.12" waitingTime="56.00" waitingCount="7" stopTime="0.00" timeLoss="104.81" rerouteNo="0" devices="tripinfo_f_0_2.7" vType="type1" speedFactor="0.93" vaporized=""/>
    <tripinfo id="f_0_2.8" depart="66.00" departLane="np2_nt2_0" departPos="48.13" departSpeed="0.00" departDelay="0.54" arrival="250.00" arrivalLane="nt15_np10_0" arrivalPos="75.00" arrivalSpeed="10.49" duration="184.00" routeLength="902.95" waitingTime="49.00" waitingCount="8" stopTime="0.00" timeLoss="109.90" rerouteNo="0" devices="tripinfo_f_0_2.8" vType="type1" speedFactor="1.03" vaporized=""/>
    <tripinfo id="f_0_0.2" depart="28.00" departLane="np13_nt13_0" departPos="30.63" departSpeed="0.00" departDelay="0.73" arrival="255.00" arrivalLane="nt4_np5_0" arrivalPos="75.00" arrivalSpeed="19.10" duration="227.00" routeLength="1317.26" waitingTime="94.00" waitingCount="7" stopTime="0.00" timeLoss="140.03" rerouteNo="0" devices="tripinfo_f_0_0.2" vType="type1" speedFactor="1.06" vaporized=""/>
    <tripinfo id="f_0_3.2" depart="17.00" departLane="np3_nt3_0" departPos="18.07" departSpeed="0.00" departDelay="0.64" arrival="257.00" arrivalLane="nt14_np11_0" arrivalPos="75.00" arrivalSpeed="10.28" duration="240.00" routeLength="933.02" waitingTime="131.00" waitingCount="7" stopTime="0.00" timeLoss="166.26" rerouteNo="0" devices="tripinfo_f_0_3.2" vType="type1" speedFactor="1.06" vaporized=""/>
    <tripinfo id="f_0_2.9" depart="74.00" departLane="np2_nt2_0" departPos="27.35" departSpeed="0.00" departDelay="0.36" arrival="262.00" arrivalLane="nt15_np10_0" arrivalPos="75.00" arrivalSpeed="10.87" duration="188.00" routeLength="923.73" waitingTime="54.00" waitingCount="7" stopTime="0.00" timeLoss="111.65" rerouteNo="0" devices="tripinfo_f_0_2.9" vType="type1" speedFactor="1.02" vaporized=""/>
    <tripinfo id="f_0_2.10" depart="82.00" departLane="np2_nt2_0" departPos="17.51" departSpeed="0.00" departDelay="0.18" arrival="264.00" arrivalLane="nt15_np10_0" arrivalPos="75.00" arrivalSpeed="12.40" duration="182.00" routeLength="933.57" waitingTime="56.00" waitingCount="8" stopTime="0.00" timeLoss="116.78" rerouteNo="0" devices="tripinfo_f_0_2.10" vType="type1" speedFactor="1.20" vaporized=""/>
    <tripinfo id="f_0_0.3" depart="41.00" departLane="np13_nt13_0" departPos="34.07" departSpeed="0.00" departDelay="0.09" arrival="283.00" arrivalLane="nt4_np5_0" arrivalPos="75.00" arrivalSpeed="21.67" duration="242.00" routeLength="1313.82" waitingTime="130.00" waitingCount="5" stopTime="0.00" timeLoss="162.01" rerouteNo="0" devices="tripinfo_f_0_0.3" vType="type1" speedFactor="1.15" vaporized=""/>
    <tripinfo id="f_0_3.3" depart="25.00" departLane="np3_nt3_0" departPos="8.40" departSpeed="0.00" departDelay="0.45" arrival="293.00" arrivalLane="nt14_np11_0" arrivalPos="75.00" arrivalSpeed="9.53" duration="268.00" routeLength="942.69" waitingTime="139.00" waitingCount="10" stopTime="0.00" timeLoss="179.46" rerouteNo="0" devices="tripinfo_f_0_3.3" vType="type1" speedFactor="0.89" vaporized=""/>
    <tripinfo id="f_0_0.4" depart="55.00" departLane="np13_nt13_0" departPos="6.25" departSpeed="0.00" departDelay="0.46" arrival="303.00" arrivalLane="nt4_np5_0" arrivalPos="75.00" arrivalSpeed="18.48" duration="248.00" routeLength="1341.64" waitingTime="118.00" waitingCount="7" stopTime="0.00" timeLoss="158.04" rerouteNo="0" devices="tripinfo_f_0_0.4" vType="type1" speedFactor="1.03" vaporized=""/>
    <tripinfo id="f_0_0.5" depart="69.00" departLane="np13_nt13_0" departPos="55.40" departSpeed="0.00" departDelay="0.82" arrival="305.00" arrivalLane="nt4_np5_0" arrivalPos="75.00" arrivalSpeed="19.05" duration="236.00" routeLength="1292.49" waitingTime="98.00" waitingCount="6" stopTime="0.00" timeLoss="141.94" rerouteNo="0" devices="tripinfo_f_0_0.5" vType="type1" speedFactor="0.96" vaporized=""/>
    <tripinfo id="f_0_0.6" depart="82.00" departLane="np13_nt13_0" departPos="24.83" departSpeed="0.00" departDelay="0.18" arrival="306.00" arrivalLane="nt4_np5_0" arrivalPos="75.00" arrivalSpeed="20.88" duration="224.00" routeLength="1323.06" waitingTime="80.00" waitingCount="8" stopTime="0.00" timeLoss="139.43" rerouteNo="0" devices="tripinfo_f_0_0.6" vType="type1" speedFactor="1.08" vaporized=""/>
    <tripinfo id="f_0_3.4" depart="33.00" departLane="np3_nt3_0" departPos="12.90" departSpeed="0.00" departDelay="0.27" arrival="308.00" arrivalLane="nt14_np11_0" arrivalPos="75.00" arrivalSpeed="8.19" duration="275.00" routeLength="938.19" waitingTime="134.00" waitingCount="9" stopTime="0.00" timeLoss="191.36" rerouteNo="0" devices="tripinfo_f_0_3.4" vType="type1" speedFactor="0.94" vaporized=""/>
    <tripinfo id="f_0_3.5" depart="41.00" departLane="np3_nt3_0" departPos="17.31" departSpeed="0.00" departDelay="0.09" arrival="310.00" arrivalLane="nt14_np11_0" arrivalPos="75.00" arrivalSpeed="10.50" duration="269.00" routeLength="933.78" waitingTime="141.00" waitingCount="9" stopTime="0.00" timeLoss="191.33" rerouteNo="0" devices="tripinfo_f_0_3.5" vType="type1" speedFactor="1.01" vaporized=""/>
    <tripinfo id="f_0_3.6" depart="50.00" departLane="np3_nt3_0" departPos="1.69" departSpeed="0.00" departDelay="0.91" arrival="312.00" arrivalLane="nt14_np11_0" arrivalPos="75.00" arrivalSpeed="11.61" duration="262.00" routeLength="949.40" waitingTime="132.00" waitingCount="8" stopTime="0.00" timeLoss="187.37" rerouteNo="0" devices="tripinfo_f_0_3.6" vType="type1" speedFactor="1.08" vaporized=""/>
    <tripinfo id="f_0_3.7" depart="58.00" departLane="np3_nt3_0" departPos="13.91" departSpeed="0.00" departDelay="0.73" arrival="314.00" arrivalLane="nt14_np11_0" arrivalPos="75.00" arrivalSpeed="11.01" duration="256.00" routeLength="937.18" waitingTime="122.00" waitingCount="8" stopTime="0.00" timeLoss="181.40" rerouteNo="0" devices="tripinfo_f_0_3.7" vType="type1" speedFactor="1.06" vaporized=""/>
    <tripinfo id="f_0_0.7" depart="96.00" departLane="np13_nt13_0" departPos="5.94" departSpeed="0.00" departDelay="0.55" arrival="321.00" arrivalLane="nt4_np5_0" arrivalPos="75.00" arrivalSpeed="16.29" duration="225.00" routeLength="1341.95" waitingTime="72.00" waitingCount="8" stopTime="0.00" timeLoss="122.69" rerouteNo="0" devices="tripinfo_f_0_0.7" vType="type1" speedFactor="0.91" vaporized=""/>
    <tripinfo id="f_0_0.8" depart="110.00" departLane="np13_nt13_0" departPos="6.38" departSpeed="0.00" departDelay="0.91" arrival="323.00" arrivalLane="nt4_np5_0" arrivalPos="75.00" arrivalSpeed="17.44" duration="213.00" routeLength="1341.51" waitingTime="60.00" waitingCount="8" stopTime="0.00" timeLoss="117.64" rerouteNo="0" devices="tripinfo_f_0_0.8" vType="type1" speedFactor="0.98" vaporized=""/>
    <tripinfo id="f_0_3.8" depart="66.00" departLane="np3_nt3_0" departPos="14.95" departSpeed="0.00" departDelay="0.54" arrival="332.00" arrivalLane="nt14_np11_0" arrivalPos="75.00" arrivalSpeed="10.22" duration="266.00" routeLength="936.14" waitingTime="128.00" waitingCount="8" stopTime="0.00" timeLoss="189.32" rerouteNo="0" devices="tripinfo_f_0_3.8" vType="type1" speedFactor="1.03" vaporized=""/>
    <tripinfo id="f_0_3.9" depart="74.00" departLane="np3_nt3_0" departPos="25.45" departSpeed="0.00" departDelay="0.36" arrival="335.00" arrivalLane="nt14_np11_0" arrivalPos="75.00" arrivalSpeed="8.22" duration="261.00" routeLength="925.64" waitingTime="115.00" waitingCount="11" stopTime="0.00" timeLoss="174.89" rerouteNo="0" devices="tripinfo_f_0_3.9" vType="type1" speedFactor="0.90" vaporized=""/>
    <tripinfo id="f_0_1.4" depart="55.00" departLane="np16_nt1_0" departPos="63.77" departSpeed="0.00" departDelay="0.46" arrival="339.00" arrivalLane="nt16_np8_0" arrivalPos="75.00" arrivalSpeed="16.90" duration="284.00" routeLength="1284.11" waitingTime="128.00" waitingCount="8" stopTime="0.00" timeLoss="187.71" rerouteNo="0" devices="tripinfo_f_0_1.4" vType="type1" speedFactor="0.94" vaporized=""/>
    <tripinfo id="f_0_0.9" depart="123.00" departLane="np13_nt13_0" departPos="19.52" departSpeed="0.00" departDelay="0.28" arrival="340.00" arrivalLane="nt4_np5_0" arrivalPos="75.00" arrivalSpeed="20.23" duration="217.00" routeLength="1328.37" waitingTime="72.00" waitingCount="10" stopTime="0.00" timeLoss="130.37" rerouteNo="0" devices="tripinfo_f_0_0.9" vType="type1" speedFactor="1.06" vaporized=""/>
    <tripinfo id="f_0_3.10" depart="82.00" departLane="np3_nt3_0" departPos="15.01" departSpeed="0.00" departDelay="0.18" arrival="342.00" arrivalLane="nt14_np11_0" arrivalPos="75.00" arrivalSpeed="8.87" duration="260.00" routeLength="936.08" waitingTime="125.00" waitingCount="9" stopTime="0.00" timeLoss="176.31" rerouteNo="0" devices="tripinfo_f_0_3.10" vType="type1" speedFactor="0.94" vaporized=""/>
    <tripinfo id="f_0_3.11" depart="90.00" departLane="np3_nt3_0" departPos="7.41" departSpeed="0.00" departDelay="0.00" arrival="367.00" arrivalLane="nt14_np11_0" arrivalPos="75.00" arrivalSpeed="10.29" duration="277.00" routeLength="943.68" waitingTime="158.00" waitingCount="8" stopTime="0.00" timeLoss="199.86" rerouteNo="0" devices="tripinfo_f_0_3.11" vType="type1" speedFactor="1.03" vaporized=""/>
    <tripinfo id="f_0_2.11" depart="90.00" departLane="np2_nt2_0" departPos="33.83" departSpeed="0.00" departDelay="0.00" arrival="370.00" arrivalLane="nt15_np10_0" arrivalPos="75.00" arrivalSpeed="7.63" duration="280.00" routeLength="917.25" waitingTime="145.00" waitingCount="7" stopTime="0.00" timeLoss="184.16" rerouteNo="0" devices="tripinfo_f_0_2.11" vType="type1" speedFactor="0.80" vaporized=""/>
    <tripinfo id="f_0_2.12" depart="99.00" departLane="np2_nt2_0" departPos="22.67" departSpeed="0.00" departDelay="0.82" arrival="375.00" arrivalLane="nt15_np10_0" arrivalPos="75.00" arrivalSpeed="12.63" duration="276.00" routeLength="928.41" waitingTime="157.00" waitingCount="8" stopTime="0.00" timeLoss="211.38" rerouteNo="0" devices="tripinfo_f_0_2.12" vType="type1" speedFactor="1.20" vaporized=""/>
    <tripinfo id="f_0_0.10" depart="137.00" departLane="np13_nt13_0" departPos="20.85" departSpeed="0.00" departDelay="0.64" arrival="379.00" arrivalLane="nt4_np5_0" arrivalPos="75.00" arrivalSpeed="16.95" duration="242.00" routeLength="1327.04" waitingTime="79.00" waitingCount="8" stopTime="0.00" timeLoss="141.70" rerouteNo="0" devices="tripinfo_f_0_0.10" vType="type1" speedFactor="0.92" vaporized=""/>
    <tripinfo id="f_0_2.13" depart="107.00" departLane="np2_nt2_0" departPos="27.93" departSpeed="0.00" departDelay="0.63" arrival="380.00" arrivalLane="nt15_np10_0" arrivalPos="75.00" arrivalSpeed="8.27" duration="273.00" routeLength="923.15" waitingTime="132.00" waitingCount="8" stopTime="0.00" timeLoss="186.80" rerouteNo="0" devices="tripinfo_f_0_2.13" vType="type1" speedFactor="0.90" vaporized=""/>
    <tripinfo id="f_0_1.5" depart="69.00" departLane="np16_nt1_0" departPos="52.17" departSpeed="0.00" departDelay="0.82" arrival="383.00" arrivalLane="nt16_np8_0" arrivalPos="75.00" arrivalSpeed="16.57" duration="314.00" routeLength="1295.71" waitingTime="153.00" waitingCount="9" stopTime="0.00" timeLoss="218.46" rerouteNo="0" devices="tripinfo_f_0_1.5" vType="type1" speedFactor="0.95" vaporized=""/>
    <tripinfo id="f_0_2.14" depart="115.00" departLane="np2_nt2_0" departPos="4.44" departSpeed="0.00" departDelay="0.45" arrival="384.00" arrivalLane="nt15_np10_0" arrivalPos="75.00" arrivalSpeed="9.65" duration="269.00" routeLength="946.64" waitingTime="116.00" waitingCount="11" stopTime="0.00" timeLoss="188.28" rerouteNo="0" devices="tripinfo_f_0_2.14" vType="type1" speedFactor="0.98" vaporized=""/>
    <tripinfo id="f_0_0.11" depart="150.00" departLane="np13_nt13_0" departPos="35.47" departSpeed="0.00" departDelay="0.00" arrival="389.00" arrivalLane="nt4_np5_0" arrivalPos="75.00" arrivalSpeed="18.03" duration="239.00" routeLength="1312.42" waitingTime="75.00" waitingCount="8" stopTime="0.00" timeLoss="140.29" rerouteNo="0" devices="tripinfo_f_0_0.11" vType="type1" speedFactor="0.93" vaporized=""/>
    <tripinfo id="f_0_1.6" depart="82.00" departLane="np16_nt1_0" departPos="38.87" departSpeed="0.00" departDelay="0.18" arrival="403.00" arrivalLane="nt16_np8_0" arrivalPos="75.00" arrivalSpeed="18.51" duration="321.00" routeLength="1309.01" waitingTime="146.00" waitingCount="11" stopTime="0.00" timeLoss="224.95" rerouteNo="0" devices="tripinfo_f_0_1.6" vType="type1" speedFactor="0.95" vaporized=""/>
    <tripinfo id="f_0_2.15" depart="123.00" departLane="np2_nt2_0" departPos="48.21" departSpeed="0.00" departDelay="0.27" arrival="403.00" arrivalLane="nt15_np10_0" arrivalPos="75.00" arrivalSpeed="7.16" duration="280.00" routeLength="902.87" waitingTime="128.00" waitingCount="9" stopTime="0.00" timeLoss="191.89" rerouteNo="0" devices="tripinfo_f_0_2.15" vType="type1" speedFactor="0.86" vaporized=""/>
    <tripinfo id="f_0_2.16" depart="131.00" departLane="np2_nt2_0" departPos="11.22" departSpeed="0.00" departDelay="0.09" arrival="405.00" arrivalLane="nt15_np10_0" arrivalPos="75.00" arrivalSpeed="9.96" duration="274.00" routeLength="939.86" waitingTime="140.00" waitingCount="10" stopTime="0.00" timeLoss="202.33" rerouteNo="0" devices="tripinfo_f_0_2.16" vType="type1" speedFactor="1.10" vaporized=""/>
    <tripinfo id="f_0_0.12" depart="164.00" departLane="np13_nt13_0" departPos="38.47" departSpeed="0.00" departDelay="0.37" arrival="418.00" arrivalLane="nt4_np5_0" arrivalPos="75.00" arrivalSpeed="16.28" duration="254.00" routeLength="1309.42" waitingTime="119.00" waitingCount="8" stopTime="0.00" timeLoss="156.02" rerouteNo="0" devices="tripinfo_f_0_0.12" vType="type1" speedFactor="0.93" vaporized=""/>
    <tripinfo id="f_0_3.12" depart="99.00" departLane="np3_nt3_0" departPos="7.08" departSpeed="0.00" departDelay="0.82" arrival="425.00" arrivalLane="nt14_np11_0" arrivalPos="75.00" arrivalSpeed="8.47" duration="326.00" routeLength="944.01" waitingTime="180.00" waitingCount="8" stopTime="0.00" timeLoss="226.77" rerouteNo="0" devices="tripinfo_f_0_3.12" vType="type1" speedFactor="0.80" vaporized=""/>
    <tripinfo id="f_0_3.13" depart="107.00" departLane="np3_nt3_0" departPos="11.85" departSpeed="0.00" departDelay="0.63" arrival="427.00" arrivalLane="nt14_np11_0" arrivalPos="75.00" arrivalSpeed="10.53" duration="320.00" routeLength="939.24" waitingTime="171.00" waitingCount="7" stopTime="0.00" timeLoss="243.48" rerouteNo="0" devices="tripinfo_f_0_3.13" vType="type1" speedFactor="1.03" vaporized=""/>
    <tripinfo id="f_0_0.13" depart="178.00" departLane="np13_nt13_0" departPos="27.45" departSpeed="0.00" departDelay="0.73" arrival="439.00" arrivalLane="nt4_np5_0" arrivalPos="75.00" arrivalSpeed="16.93" duration="261.00" routeLength="1320.44" waitingTime="109.00" waitingCount="7" stopTime="0.00" timeLoss="153.94" rerouteNo="0" devices="tripinfo_f_0_0.13" vType="type1" speedFactor="0.86" vaporized=""/>
    <tripinfo id="f_0_0.14" depart="191.00" departLane="np13_nt13_0" departPos="53.18" departSpeed="0.00" departDelay="0.10" arrival="440.00" arrivalLane="nt4_np5_0" arrivalPos="75.00" arrivalSpeed="17.78" duration="249.00" routeLength="1294.71" waitingTime="107.00" waitingCount="8" stopTime="0.00" timeLoss="152.88" rerouteNo="0" devices="tripinfo_f_0_0.14" vType="type1" speedFactor="0.94" vaporized=""/>
    <tripinfo id="f_0_0.15" depart="205.00" departLane="np13_nt13_0" departPos="5.46" departSpeed="0.00" departDelay="0.46" arrival="442.00" arrivalLane="nt4_np5_0" arrivalPos="75.00" arrivalSpeed="21.35" duration="237.00" routeLength="1342.43" waitingTime="93.00" waitingCount="8" stopTime="0.00" timeLoss="160.52" rerouteNo="0" devices="tripinfo_f_0_0.15" vType="type1" speedFactor="1.21" vaporized=""/>
    <tripinfo id="f_0_2.17" depart="140.00" departLane="np2_nt2_0" departPos="39.58" departSpeed="0.00" departDelay="0.91" arrival="443.00" arrivalLane="nt15_np10_0" arrivalPos="75.00" arrivalSpeed="10.42" duration="303.00" routeLength="911.50" waitingTime="159.00" waitingCount="11" stopTime="0.00" timeLoss="224.00" rerouteNo="0" devices="tripinfo_f_0_2.17" vType="type1" speedFactor="0.97" vaporized=""/>
    <tripinfo id="f_0_0.16" depart="219.00" departLane="np13_nt13_0" departPos="1.99" departSpeed="0.00" departDelay="0.82" arrival="443.00" arrivalLane="nt4_np5_0" arrivalPos="75.00" arrivalSpeed="20.67" duration="224.00" routeLength="1345.90" waitingTime="75.00" waitingCount="6" stopTime="0.00" timeLoss="135.26" rerouteNo="0" devices="tripinfo_f_0_0.16" vType="type1" speedFactor="1.05" vaporized=""/>
    <tripinfo id="f_0_3.14" depart="115.00" departLane="np3_nt3_0" departPos="19.11" departSpeed="0.00" departDelay="0.45" arrival="449.00" arrivalLane="nt14_np11_0" arrivalPos="75.00" arrivalSpeed="9.19" duration="334.00" routeLength="931.98" waitingTime="184.00" waitingCount="10" stopTime="0.00" timeLoss="248.15" rerouteNo="0" devices="tripinfo_f_0_3.14" vType="type1" speedFactor="0.92" vaporized=""/>
    <tripinfo id="f_0_3.15" depart="123.00" departLane="np3_nt3_0" departPos="21.16" departSpeed="0.00" departDelay="0.27" arrival="451.00" arrivalLane="nt14_np11_0" arrivalPos="75.00" arrivalSpeed="9.59" duration="328.00" routeLength="929.93" waitingTime="177.00" waitingCount="11" stopTime="0.00" timeLoss="245.89" rerouteNo="0" devices="tripinfo_f_0_3.15" vType="type1" speedFactor="0.95" vaporized=""/>
    <tripinfo id="f_0_0.17" depart="232.00" departLane="np13_nt13_0" departPos="26.46" departSpeed="0.00" departDelay="0.19" arrival="452.00" arrivalLane="nt4_np5_0" arrivalPos="75.00" arrivalSpeed="16.34" duration="220.00" routeLength="1321.43" waitingTime="77.00" waitingCount="8" stopTime="0.00" timeLoss="119.03" rerouteNo="0" devices="tripinfo_f_0_0.17" vType="type1" speedFactor="0.91" vaporized=""/>
    <tripinfo id="f_0_3.16" depart="131.00" departLane="np3_nt3_0" departPos="16.35" departSpeed="0.00" departDelay="0.09" arrival="453.00" arrivalLane="nt14_np11_0" arrivalPos="75.00" arrivalSpeed="10.97" duration="322.00" routeLength="934.74" waitingTime="184.00" waitingCount="10" stopTime="0.00" timeLoss="246.73" rerouteNo="0" devices="tripinfo_f_0_3.16" vType="type1" speedFactor="1.05" vaporized=""/>
    <tripinfo id="f_0_0.18" depart="246.00" departLane="np13_nt13_0" departPos="40.21" departSpeed="0.00" departDelay="0.55" arrival="454.00" arrivalLane="nt4_np5_0" arrivalPos="75.00" arrivalSpeed="18.27" duration="208.00" routeLength="1307.68" waitingTime="65.00" waitingCount="6" stopTime="0.00" timeLoss="109.98" rerouteNo="0" devices="tripinfo_f_0_0.18" vType="type1" speedFactor="0.94" vaporized=""/>
    <tripinfo id="f_0_3.17" depart="140.00" departLane="np3_nt3_0" departPos="1.62" departSpeed="0.00" departDelay="0.91" arrival="455.00" arrivalLane="nt14_np11_0" arrivalPos="75.00" arrivalSpeed="9.54" duration="315.00" routeLength="949.47" waitingTime="168.00" waitingCount="10" stopTime="0.00" timeLoss="230.81" rerouteNo="0" devices="tripinfo_f_0_3.17" vType="type1" speedFactor="0.95" vaporized=""/>
    <tripinfo id="f_0_2.27" depart="221.00" departLane="np2_nt2_0" departPos="49.51" departSpeed="0.00" departDelay="0.09" arrival="456.00" arrivalLane="nt15_np10_0" arrivalPos="75.00" arrivalSpeed="11.13" duration="235.00" routeLength="901.57" waitingTime="119.00" waitingCount="10" stopTime="0.00" timeLoss="167.62" rerouteNo="0" devices="tripinfo_f_0_2.27" vType="type1" speedFactor="1.13" vaporized=""/>
    <tripinfo id="f_0_1.7" depart="96.00" departLane="np16_nt1_0" departPos="21.75" departSpeed="0.00" departDelay="0.55" arrival="467.00" arrivalLane="nt16_np8_0" arrivalPos="75.00" arrivalSpeed="18.79" duration="371.00" routeLength="1326.13" waitingTime="184.00" waitingCount="15" stopTime="0.00" timeLoss="277.36" rerouteNo="0" devices="tripinfo_f_0_1.7" vType="type1" speedFactor="0.99" vaporized=""/>
    <tripinfo id="f_0_2.31" depart="254.00" departLane="np2_nt2_0" departPos="52.06" departSpeed="0.00" departDelay="0.36" arrival="468.00" arrivalLane="nt15_np10_0" arrivalPos="75.00" arrivalSpeed="9.42" duration="214.00" routeLength="899.02" waitingTime="83.00" waitingCount="8" stopTime="0.00" timeLoss="138.32" rerouteNo="0" devices="tripinfo_f_0_2.31" vType="type1" speedFactor="0.99" vaporized=""/>
    <tripinfo id="f_0_2.18" depart="148.00" departLane="np2_nt2_0" departPos="22.59" departSpeed="0.00" departDelay="0.72" arrival="476.00" arrivalLane="nt15_np10_0" arrivalPos="75.00" arrivalSpeed="11.23" duration="328.00" routeLength="928.49" waitingTime="141.00" waitingCount="15" stopTime="0.00" timeLoss="259.24" rerouteNo="0" devices="tripinfo_f_0_2.18" vType="type1" speedFactor="1.14" vaporized=""/>
    <tripinfo id="f_0_1.15" depart="205.00" departLane="np16_nt1_0" departPos="9.76" departSpeed="0.00" departDelay="0.46" arrival="479.00" arrivalLane="nt16_np8_0" arrivalPos="75.00" arrivalSpeed="15.71" duration="274.00" routeLength="1338.12" waitingTime="106.00" waitingCount="7" stopTime="0.00" timeLoss="161.94" rerouteNo="0" devices="tripinfo_f_0_1.15" vType="type1" speedFactor="0.83" vaporized=""/>
    <tripinfo id="f_0_1.8" depart="110.00" departLane="np16_nt1_0" departPos="45.18" departSpeed="0.00" departDelay="0.91" arrival="481.00" arrivalLane="nt16_np8_0" arrivalPos="75.00" arrivalSpeed="20.49" duration="371.00" routeLength="1302.70" waitingTime="160.00" waitingCount="14" stopTime="0.00" timeLoss="285.56" rerouteNo="0" devices="tripinfo_f_0_1.8" vType="type1" speedFactor="1.07" vaporized=""/>
    <tripinfo id="f_0_0.19" depart="260.00" departLane="np13_nt13_0" departPos="64.00" departSpeed="0.00" departDelay="0.92" arrival="483.00" arrivalLane="nt4_np5_0" arrivalPos="75.00" arrivalSpeed="20.58" duration="223.00" routeLength="1283.89" waitingTime="79.00" waitingCount="9" stopTime="0.00" timeLoss="138.41" rerouteNo="0" devices="tripinfo_f_0_0.19" vType="type1" speedFactor="1.06" vaporized=""/>
    <tripinfo id="f_0_1.17" depart="232.00" departLane="np16_nt1_0" departPos="48.43" departSpeed="0.00" departDelay="0.19" arrival="487.00" arrivalLane="nt16_np8_0" arrivalPos="75.00" arrivalSpeed="19.88" duration="255.00" routeLength="1299.45" waitingTime="96.00" waitingCount="14" stopTime="0.00" timeLoss="172.05" rerouteNo="0" devices="tripinfo_f_0_1.17" vType="type1" speedFactor="1.11" vaporized=""/>
    <tripinfo id="f_0_1.9" depart="123.00" departLane="np16_nt1_0" departPos="50.83" departSpeed="0.00" departDelay="0.28" arrival="499.00" arrivalLane="nt16_np8_0" arrivalPos="75.00" arrivalSpeed="20.08" duration="376.00" routeLength="1297.05" waitingTime="138.00" waitingCount="21" stopTime="0.00" timeLoss="285.28" rerouteNo="0" devices="tripinfo_f_0_1.9" vType="type1" speedFactor="1.01" vaporized=""/>