<?xml version="1.0" encoding="UTF-8"?>

<!-- generated on 2023-08-23 15:58:20 by Eclipse SUMO libsumo Version 1.18.0
<configuration xmlns:xsi="http://www.w3.org/2001/XMLSchema-instance" xsi:noNamespaceSchemaLocation="http://sumo.dlr.de/xsd/libsumoConfiguration.xsd">

    <input>
        <net-file value="/home/stefan/RESCO/./environments/arterial4x4/arterial4x4.net.xml"/>
        <route-files value="/home/stefan/RESCO/./environments/arterial4x4/arterial4x4_11.rou.xml"/>
    </input>

    <output>
        <tripinfo-output value="/home/stefan/results/IDDQN-tr0-arterial4x4-0-drq_norm-wait_norm/tripinfo_11.xml"/>
        <tripinfo-output.write-unfinished value="true"/>
    </output>

    <processing>
        <time-to-teleport value="-1"/>
    </processing>

    <report>
        <no-warnings value="True"/>
        <no-step-log value="True"/>
    </report>

    <random_number>
        <random value="true"/>
    </random_number>

</configuration>
-->

<tripinfos xmlns:xsi="http://www.w3.org/2001/XMLSchema-instance" xsi:noNamespaceSchemaLocation="http://sumo.dlr.de/xsd/tripinfo_file.xsd">
    <tripinfo id="f_0_3.0" depart="0.00" departLane="np3_nt3_0" departPos="5.62" departSpeed="0.00" departDelay="0.00" arrival="136.00" arrivalLane="nt14_np11_0" arrivalPos="75.00" arrivalSpeed="9.46" duration="136.00" routeLength="945.47" waitingTime="39.00" waitingCount="3" stopTime="0.00" timeLoss="62.34" rerouteNo="0" devices="tripinfo_f_0_3.0" vType="type1" speedFactor="1.07" vaporized=""/>
    <tripinfo id="f_0_2.0" depart="0.00" departLane="np2_nt2_0" departPos="20.61" departSpeed="0.00" departDelay="0.00" arrival="137.00" arrivalLane="nt15_np10_0" arrivalPos="75.00" arrivalSpeed="9.83" duration="137.00" routeLength="930.47" waitingTime="39.00" waitingCount="4" stopTime="0.00" timeLoss="60.82" rerouteNo="0" devices="tripinfo_f_0_2.0" vType="type1" speedFactor="1.02" vaporized=""/>
    <tripinfo id="f_0_3.1" depart="9.00" departLane="np3_nt3_0" departPos="15.59" departSpeed="0.00" departDelay="0.82" arrival="151.00" arrivalLane="nt14_np11_0" arrivalPos="75.00" arrivalSpeed="12.15" duration="142.00" routeLength="935.50" waitingTime="45.00" waitingCount="4" stopTime="0.00" timeLoss="73.36" rerouteNo="0" devices="tripinfo_f_0_3.1" vType="type1" speedFactor="1.15" vaporized=""/>
    <tripinfo id="f_0_2.1" depart="9.00" departLane="np2_nt2_0" departPos="34.38" departSpeed="0.00" departDelay="0.82" arrival="163.00" arrivalLane="nt15_np10_0" arrivalPos="75.00" arrivalSpeed="8.48" duration="154.00" routeLength="916.70" waitingTime="43.00" waitingCount="5" stopTime="0.00" timeLoss="68.52" rerouteNo="0" devices="tripinfo_f_0_2.1" vType="type1" speedFactor="0.90" vaporized=""/>
    <tripinfo id="f_0_1.0" depart="0.00" departLane="np16_nt1_0" departPos="56.16" departSpeed="0.00" departDelay="0.00" arrival="178.00" arrivalLane="nt16_np8_0" arrivalPos="75.00" arrivalSpeed="17.85" duration="178.00" routeLength="1291.72" waitingTime="39.00" waitingCount="6" stopTime="0.00" timeLoss="85.14" rerouteNo="0" devices="tripinfo_f_0_1.0" vType="type1" speedFactor="0.97" vaporized=""/>
    <tripinfo id="f_0_0.0" depart="0.00" departLane="np13_nt13_0" departPos="16.67" departSpeed="0.00" departDelay="0.00" arrival="181.00" arrivalLane="nt4_np5_0" arrivalPos="75.00" arrivalSpeed="18.73" duration="181.00" routeLength="1331.22" waitingTime="56.00" waitingCount="3" stopTime="0.00" timeLoss="82.98" rerouteNo="0" devices="tripinfo_f_0_0.0" vType="type1" speedFactor="0.95" vaporized=""/>
    <tripinfo id="f_0_3.2" depart="17.00" departLane="np3_nt3_0" departPos="42.24" departSpeed="0.00" departDelay="0.64" arrival="193.00" arrivalLane="nt14_np11_0" arrivalPos="75.00" arrivalSpeed="7.87" duration="176.00" routeLength="908.85" waitingTime="62.00" waitingCount="5" stopTime="0.00" timeLoss="91.13" rerouteNo="0" devices="tripinfo_f_0_3.2" vType="type1" speedFactor="0.90" vaporized=""/>
    <tripinfo id="f_0_3.3" depart="25.00" departLane="np3_nt3_0" departPos="37.24" departSpeed="0.00" departDelay="0.45" arrival="195.00" arrivalLane="nt14_np11_0" arrivalPos="75.00" arrivalSpeed="10.58" duration="170.00" routeLength="913.85" waitingTime="60.00" waitingCount="7" stopTime="0.00" timeLoss="100.15" rerouteNo="0" devices="tripinfo_f_0_3.3" vType="type1" speedFactor="1.10" vaporized=""/>
    <tripinfo id="f_0_2.2" depart="17.00" departLane="np2_nt2_0" departPos="11.47" departSpeed="0.00" departDelay="0.64" arrival="203.00" arrivalLane="nt15_np10_0" arrivalPos="75.00" arrivalSpeed="10.45" duration="186.00" routeLength="939.61" waitingTime="73.00" waitingCount="5" stopTime="0.00" timeLoss="103.27" rerouteNo="0" devices="tripinfo_f_0_2.2" vType="type1" speedFactor="0.96" vaporized=""/>
    <tripinfo id="f_0_2.3" depart="25.00" departLane="np2_nt2_0" departPos="35.86" departSpeed="0.00" departDelay="0.45" arrival="205.00" arrivalLane="nt15_np10_0" arrivalPos="75.00" arrivalSpeed="10.67" duration="180.00" routeLength="915.22" waitingTime="69.00" waitingCount="5" stopTime="0.00" timeLoss="107.98" rerouteNo="0" devices="tripinfo_f_0_2.3" vType="type1" speedFactor="1.06" vaporized=""/>
    <tripinfo id="f_0_0.1" depart="14.00" departLane="np13_nt13_0" departPos="63.34" departSpeed="0.00" departDelay="0.36" arrival="209.00" arrivalLane="nt4_np5_0" arrivalPos="75.00" arrivalSpeed="19.91" duration="195.00" routeLength="1284.55" waitingTime="83.00" waitingCount="5" stopTime="0.00" timeLoss="110.39" rerouteNo="0" devices="tripinfo_f_0_0.1" vType="type1" speedFactor="1.07" vaporized=""/>
    <tripinfo id="f_0_3.4" depart="33.00" departLane="np3_nt3_0" departPos="31.54" departSpeed="0.00" departDelay="0.27" arrival="213.00" arrivalLane="nt14_np11_0" arrivalPos="75.00" arrivalSpeed="8.53" duration="180.00" routeLength="919.55" waitingTime="55.00" waitingCount="7" stopTime="0.00" timeLoss="100.60" rerouteNo="0" devices="tripinfo_f_0_3.4" vType="type1" speedFactor="0.97" vaporized=""/>
    <tripinfo id="f_0_3.5" depart="41.00" departLane="np3_nt3_0" departPos="10.36" departSpeed="0.00" departDelay="0.09" arrival="222.00" arrivalLane="nt14_np11_0" arrivalPos="75.00" arrivalSpeed="10.93" duration="181.00" routeLength="940.73" waitingTime="64.00" waitingCount="6" stopTime="0.00" timeLoss="108.27" rerouteNo="0" devices="tripinfo_f_0_3.5" vType="type1" speedFactor="1.09" vaporized=""/>
    <tripinfo id="f_0_3.6" depart="50.00" departLane="np3_nt3_0" departPos="23.25" departSpeed="0.00" departDelay="0.91" arrival="225.00" arrivalLane="nt14_np11_0" arrivalPos="75.00" arrivalSpeed="8.00" duration="175.00" routeLength="927.84" waitingTime="54.00" waitingCount="5" stopTime="0.00" timeLoss="90.47" rerouteNo="0" devices="tripinfo_f_0_3.6" vType="type1" speedFactor="0.92" vaporized=""/>
    <tripinfo id="f_0_0.2" depart="28.00" departLane="np13_nt13_0" departPos="50.59" departSpeed="0.00" departDelay="0.73" arrival="238.00" arrivalLane="nt4_np5_0" arrivalPos="75.00" arrivalSpeed="19.85" duration="210.00" routeLength="1297.30" waitingTime="90.00" waitingCount="5" stopTime="0.00" timeLoss="124.59" rerouteNo="0" devices="tripinfo_f_0_0.2" vType="type1" speedFactor="1.06" vaporized=""/>
    <tripinfo id="f_0_0.3" depart="41.00" departLane="np13_nt13_0" departPos="52.57" departSpeed="0.00" departDelay="0.09" arrival="245.00" arrivalLane="nt4_np5_0" arrivalPos="75.00" arrivalSpeed="20.17" duration="204.00" routeLength="1295.32" waitingTime="80.00" waitingCount="6" stopTime="0.00" timeLoss="118.94" rerouteNo="0" devices="tripinfo_f_0_0.3" vType="type1" speedFactor="1.07" vaporized=""/>
    <tripinfo id="f_0_3.7" depart="58.00" departLane="np3_nt3_0" departPos="6.34" departSpeed="0.00" departDelay="0.73" arrival="247.00" arrivalLane="nt14_np11_0" arrivalPos="75.00" arrivalSpeed="10.38" duration="189.00" routeLength="944.75" waitingTime="71.00" waitingCount="8" stopTime="0.00" timeLoss="114.54" rerouteNo="0" devices="tripinfo_f_0_3.7" vType="type1" speedFactor="1.07" vaporized=""/>
    <tripinfo id="f_0_0.4" depart="55.00" departLane="np13_nt13_0" departPos="36.85" departSpeed="0.00" departDelay="0.46" arrival="248.00" arrivalLane="nt4_np5_0" arrivalPos="75.00" arrivalSpeed="18.76" duration="193.00" routeLength="1311.04" waitingTime="62.00" waitingCount="6" stopTime="0.00" timeLoss="97.74" rerouteNo="0" devices="tripinfo_f_0_0.4" vType="type1" speedFactor="0.96" vaporized=""/>
    <tripinfo id="f_0_0.5" depart="69.00" departLane="np13_nt13_0" departPos="7.57" departSpeed="0.00" departDelay="0.82" arrival="273.00" arrivalLane="nt4_np5_0" arrivalPos="75.00" arrivalSpeed="17.78" duration="204.00" routeLength="1340.32" waitingTime="65.00" waitingCount="8" stopTime="0.00" timeLoss="108.62" rerouteNo="0" devices="tripinfo_f_0_0.5" vType="type1" speedFactor="0.97" vaporized=""/>
    <tripinfo id="f_0_3.8" depart="66.00" departLane="np3_nt3_0" departPos="26.98" departSpeed="0.00" departDelay="0.54" arrival="279.00" arrivalLane="nt14_np11_0" arrivalPos="75.00" arrivalSpeed="7.68" duration="213.00" routeLength="924.11" waitingTime="84.00" waitingCount="6" stopTime="0.00" timeLoss="118.43" rerouteNo="0" devices="tripinfo_f_0_3.8" vType="type1" speedFactor="0.82" vaporized=""/>
    <tripinfo id="f_0_3.9" depart="74.00" departLane="np3_nt3_0" departPos="17.93" departSpeed="0.00" departDelay="0.36" arrival="281.00" arrivalLane="nt14_np11_0" arrivalPos="75.00" arrivalSpeed="8.77" duration="207.00" routeLength="933.16" waitingTime="84.00" waitingCount="7" stopTime="0.00" timeLoss="125.47" rerouteNo="0" devices="tripinfo_f_0_3.9" vType="type1" speedFactor="0.96" vaporized=""/>
    <tripinfo id="f_0_2.4" depart="33.00" departLane="np2_nt2_0" departPos="40.11" departSpeed="0.00" departDelay="0.27" arrival="306.00" arrivalLane="nt15_np10_0" arrivalPos="75.00" arrivalSpeed="11.86" duration="273.00" routeLength="910.97" waitingTime="173.00" waitingCount="6" stopTime="0.00" timeLoss="208.16" rerouteNo="0" devices="tripinfo_f_0_2.4" vType="type1" speedFactor="1.18" vaporized=""/>
    <tripinfo id="f_0_3.10" depart="82.00" departLane="np3_nt3_0" departPos="1.71" departSpeed="0.00" departDelay="0.18" arrival="324.00" arrivalLane="nt14_np11_0" arrivalPos="75.00" arrivalSpeed="8.93" duration="242.00" routeLength="949.38" waitingTime="103.00" waitingCount="8" stopTime="0.00" timeLoss="148.18" rerouteNo="0" devices="tripinfo_f_0_3.10" vType="type1" speedFactor="0.85" vaporized=""/>
    <tripinfo id="f_0_2.5" depart="41.00" departLane="np2_nt2_0" departPos="13.79" departSpeed="0.00" departDelay="0.09" arrival="331.00" arrivalLane="nt15_np10_0" arrivalPos="75.00" arrivalSpeed="12.19" duration="290.00" routeLength="937.29" waitingTime="187.00" waitingCount="8" stopTime="0.00" timeLoss="221.56" rerouteNo="0" devices="tripinfo_f_0_2.5" vType="type1" speedFactor="1.15" vaporized=""/>
    <tripinfo id="f_0_1.1" depart="14.00" departLane="np16_nt1_0" departPos="37.78" departSpeed="0.00" departDelay="0.36" arrival="342.00" arrivalLane="nt16_np8_0" arrivalPos="75.00" arrivalSpeed="22.74" duration="328.00" routeLength="1310.10" waitingTime="195.00" waitingCount="10" stopTime="0.00" timeLoss="253.79" rerouteNo="0" devices="tripinfo_f_0_1.1" vType="type1" speedFactor="1.24" vaporized=""/>
    <tripinfo id="f_0_0.6" depart="82.00" departLane="np13_nt13_0" departPos="59.04" departSpeed="0.00" departDelay="0.18" arrival="343.00" arrivalLane="nt4_np5_0" arrivalPos="75.00" arrivalSpeed="19.95" duration="261.00" routeLength="1288.85" waitingTime="124.00" waitingCount="10" stopTime="0.00" timeLoss="171.95" rerouteNo="0" devices="tripinfo_f_0_0.6" vType="type1" speedFactor="1.01" vaporized=""/>
    <tripinfo id="f_0_0.7" depart="96.00" departLane="np13_nt13_0" departPos="27.96" departSpeed="0.00" departDelay="0.55" arrival="345.00" arrivalLane="nt4_np5_0" arrivalPos="75.00" arrivalSpeed="18.84" duration="249.00" routeLength="1319.93" waitingTime="102.00" waitingCount="9" stopTime="0.00" timeLoss="158.64" rerouteNo="0" devices="tripinfo_f_0_0.7" vType="type1" speedFactor="1.02" vaporized=""/>
    <tripinfo id="f_0_2.6" depart="50.00" departLane="np2_nt2_0" departPos="10.45" departSpeed="0.00" departDelay="0.91" arrival="347.00" arrivalLane="nt15_np10_0" arrivalPos="75.00" arrivalSpeed="9.74" duration="297.00" routeLength="940.63" waitingTime="160.00" waitingCount="12" stopTime="0.00" timeLoss="217.66" rerouteNo="0" devices="tripinfo_f_0_2.6" vType="type1" speedFactor="0.99" vaporized=""/>
    <tripinfo id="f_0_3.11" depart="90.00" departLane="np3_nt3_0" departPos="5.13" departSpeed="0.00" departDelay="0.00" arrival="353.00" arrivalLane="nt14_np11_0" arrivalPos="75.00" arrivalSpeed="8.15" duration="263.00" routeLength="945.96" waitingTime="123.00" waitingCount="10" stopTime="0.00" timeLoss="180.69" rerouteNo="0" devices="tripinfo_f_0_3.11" vType="type1" speedFactor="0.97" vaporized=""/>
    <tripinfo id="f_0_2.7" depart="58.00" departLane="np2_nt2_0" departPos="35.28" departSpeed="0.00" departDelay="0.73" arrival="358.00" arrivalLane="nt15_np10_0" arrivalPos="75.00" arrivalSpeed="11.85" duration="300.00" routeLength="915.80" waitingTime="158.00" waitingCount="12" stopTime="0.00" timeLoss="233.59" rerouteNo="0" devices="tripinfo_f_0_2.7" vType="type1" speedFactor="1.15" vaporized=""/>
    <tripinfo id="f_0_1.2" depart="28.00" departLane="np16_nt1_0" departPos="13.78" departSpeed="0.00" departDelay="0.73" arrival="359.00" arrivalLane="nt16_np8_0" arrivalPos="75.00" arrivalSpeed="21.04" duration="331.00" routeLength="1334.10" waitingTime="157.00" waitingCount="13" stopTime="0.00" timeLoss="246.20" rerouteNo="0" devices="tripinfo_f_0_1.2" vType="type1" speedFactor="1.10" vaporized=""/>
    <tripinfo id="f_0_1.3" depart="41.00" departLane="np16_nt1_0" departPos="66.76" departSpeed="0.00" departDelay="0.09" arrival="364.00" arrivalLane="nt16_np8_0" arrivalPos="75.00" arrivalSpeed="19.33" duration="323.00" routeLength="1281.12" waitingTime="159.00" waitingCount="10" stopTime="0.00" timeLoss="238.83" rerouteNo="0" devices="tripinfo_f_0_1.3" vType="type1" speedFactor="1.07" vaporized=""/>
    <tripinfo id="f_0_2.8" depart="66.00" departLane="np2_nt2_0" departPos="5.97" departSpeed="0.00" departDelay="0.54" arrival="373.00" arrivalLane="nt15_np10_0" arrivalPos="75.00" arrivalSpeed="10.12" duration="307.00" routeLength="945.11" waitingTime="142.00" waitingCount="14" stopTime="0.00" timeLoss="225.31" rerouteNo="0" devices="tripinfo_f_0_2.8" vType="type1" speedFactor="0.98" vaporized=""/>
    <tripinfo id="f_0_3.12" depart="99.00" departLane="np3_nt3_0" departPos="0.00" departSpeed="0.00" departDelay="0.82" arrival="380.00" arrivalLane="nt14_np11_0" arrivalPos="75.00" arrivalSpeed="9.59" duration="281.00" routeLength="951.09" waitingTime="134.00" waitingCount="9" stopTime="0.00" timeLoss="196.00" rerouteNo="0" devices="tripinfo_f_0_3.12" vType="type1" speedFactor="0.94" vaporized=""/>
    <tripinfo id="f_0_0.8" depart="110.00" departLane="np13_nt13_0" departPos="8.91" departSpeed="0.00" departDelay="0.91" arrival="388.00" arrivalLane="nt4_np5_0" arrivalPos="75.00" arrivalSpeed="18.93" duration="278.00" routeLength="1338.98" waitingTime="128.00" waitingCount="10" stopTime="0.00" timeLoss="190.27" rerouteNo="0" devices="tripinfo_f_0_0.8" vType="type1" speedFactor="1.06" vaporized=""/>
    <tripinfo id="f_0_1.4" depart="55.00" departLane="np16_nt1_0" departPos="43.67" departSpeed="0.00" departDelay="0.46" arrival="394.00" arrivalLane="nt16_np8_0" arrivalPos="75.00" arrivalSpeed="19.32" duration="339.00" routeLength="1304.21" waitingTime="144.00" waitingCount="17" stopTime="0.00" timeLoss="248.89" rerouteNo="0" devices="tripinfo_f_0_1.4" vType="type1" speedFactor="1.02" vaporized=""/>
    <tripinfo id="f_0_2.9" depart="74.00" departLane="np2_nt2_0" departPos="29.58" departSpeed="0.00" departDelay="0.36" arrival="394.00" arrivalLane="nt15_np10_0" arrivalPos="75.00" arrivalSpeed="8.55" duration="320.00" routeLength="921.50" waitingTime="114.00" waitingCount="17" stopTime="0.00" timeLoss="229.45" rerouteNo="0" devices="tripinfo_f_0_2.9" vType="type1" speedFactor="0.85" vaporized=""/>
    <tripinfo id="f_0_2.10" depart="82.00" departLane="np2_nt2_0" departPos="48.38" departSpeed="0.00" departDelay="0.18" arrival="400.00" arrivalLane="nt15_np10_0" arrivalPos="75.00" arrivalSpeed="11.27" duration="318.00" routeLength="902.70" waitingTime="108.00" waitingCount="18" stopTime="0.00" timeLoss="255.53" rerouteNo="0" devices="tripinfo_f_0_2.10" vType="type1" speedFactor="1.20" vaporized=""/>
    <tripinfo id="f_0_1.5" depart="69.00" departLane="np16_nt1_0" departPos="59.30" departSpeed="0.00" departDelay="0.82" arrival="403.00" arrivalLane="nt16_np8_0" arrivalPos="75.00" arrivalSpeed="21.22" duration="334.00" routeLength="1288.58" waitingTime="137.00" waitingCount="19" stopTime="0.00" timeLoss="256.53" rerouteNo="0" devices="tripinfo_f_0_1.5" vType="type1" speedFactor="1.16" vaporized=""/>
    <tripinfo id="f_0_2.11" depart="90.00" departLane="np2_nt2_0" departPos="42.25" departSpeed="0.00" departDelay="0.00" arrival="404.00" arrivalLane="nt15_np10_0" arrivalPos="75.00" arrivalSpeed="10.40" duration="314.00" routeLength="908.83" waitingTime="99.00" waitingCount="17" stopTime="0.00" timeLoss="233.72" rerouteNo="0" devices="tripinfo_f_0_2.11" vType="type1" speedFactor="0.95" vaporized=""/>
    <tripinfo id="f_0_2.12" depart="99.00" departLane="np2_nt2_0" departPos="6.09" departSpeed="0.00" departDelay="0.82" arrival="406.00" arrivalLane="nt15_np10_0" arrivalPos="75.00" arrivalSpeed="9.44" duration="307.00" routeLength="944.99" waitingTime="91.00" waitingCount="18" stopTime="0.00" timeLoss="227.90" rerouteNo="0" devices="tripinfo_f_0_2.12" vType="type1" speedFactor="1.00" vaporized=""/>
    <tripinfo id="f_0_1.6" depart="82.00" departLane="np16_nt1_0" departPos="20.61" departSpeed="0.00" departDelay="0.18" arrival="417.00" arrivalLane="nt16_np8_0" arrivalPos="75.00" arrivalSpeed="18.48" duration="335.00" routeLength="1327.27" waitingTime="98.00" waitingCount="17" stopTime="0.00" timeLoss="240.04" rerouteNo="0" devices="tripinfo_f_0_1.6" vType="type1" speedFactor="0.97" vaporized=""/>
    <tripinfo id="f_0_3.13" depart="107.00" departLane="np3_nt3_0" departPos="1.92" departSpeed="0.00" departDelay="0.63" arrival="418.00" arrivalLane="nt14_np11_0" arrivalPos="75.00" arrivalSpeed="10.72" duration="311.00" routeLength="949.17" waitingTime="164.00" waitingCount="11" stopTime="0.00" timeLoss="232.17" rerouteNo="0" devices="tripinfo_f_0_3.13" vType="type1" speedFactor="1.02" vaporized=""/>
    <tripinfo id="f_0_3.14" depart="117.00" departLane="np3_nt3_0" departPos="0.00" departSpeed="0.00" departDelay="2.45" arrival="420.00" arrivalLane="nt14_np11_0" arrivalPos="75.00" arrivalSpeed="10.66" duration="303.00" routeLength="951.09" waitingTime="152.00" waitingCount="11" stopTime="0.00" timeLoss="229.72" rerouteNo="0" devices="tripinfo_f_0_3.14" vType="type1" speedFactor="1.10" vaporized=""/>
    <tripinfo id="f_0_3.15" depart="123.00" departLane="np3_nt3_0" departPos="0.52" departSpeed="0.00" departDelay="0.27" arrival="425.00" arrivalLane="nt14_np11_0" arrivalPos="75.00" arrivalSpeed="6.90" duration="302.00" routeLength="950.57" waitingTime="123.00" waitingCount="13" stopTime="0.00" timeLoss="203.40" rerouteNo="0" devices="tripinfo_f_0_3.15" vType="type1" speedFactor="0.81" vaporized=""/>
    <tripinfo id="f_0_2.13" depart="107.00" departLane="np2_nt2_0" departPos="25.27" departSpeed="0.00" departDelay="0.63" arrival="432.00" arrivalLane="nt15_np10_0" arrivalPos="75.00" arrivalSpeed="8.93" duration="325.00" routeLength="925.81" waitingTime="104.00" waitingCount="18" stopTime="0.00" timeLoss="246.16" rerouteNo="0" devices="tripinfo_f_0_2.13" vType="type1" speedFactor="0.98" vaporized=""/>
    <tripinfo id="f_0_1.7" depart="96.00" departLane="np16_nt1_0" departPos="9.35" departSpeed="0.00" departDelay="0.55" arrival="441.00" arrivalLane="nt16_np8_0" arrivalPos="75.00" arrivalSpeed="19.94" duration="345.00" routeLength="1338.53" waitingTime="92.00" waitingCount="15" stopTime="0.00" timeLoss="259.90" rerouteNo="0" devices="tripinfo_f_0_1.7" vType="type1" speedFactor="1.10" vaporized=""/>
    <tripinfo id="f_0_1.8" depart="110.00" departLane="np16_nt1_0" departPos="31.06" departSpeed="0.00" departDelay="0.91" arrival="443.00" arrivalLane="nt16_np8_0" arrivalPos="75.00" arrivalSpeed="23.08" duration="333.00" routeLength="1316.82" waitingTime="81.00" waitingCount="12" stopTime="0.00" timeLoss="254.36" rerouteNo="0" devices="tripinfo_f_0_1.8" vType="type1" speedFactor="1.17" vaporized=""/>
    <tripinfo id="f_0_2.14" depart="115.00" departLane="np2_nt2_0" departPos="29.00" departSpeed="0.00" departDelay="0.45" arrival="447.00" arrivalLane="nt15_np10_0" arrivalPos="75.00" arrivalSpeed="10.38" duration="332.00" routeLength="922.08" waitingTime="85.00" waitingCount="13" stopTime="0.00" timeLoss="251.86" rerouteNo="0" devices="tripinfo_f_0_2.14" vType="type1" speedFactor="0.97" vaporized=""/>
    <tripinfo id="f_0_2.15" depart="123.00" departLane="np2_nt2_0" departPos="55.51" departSpeed="0.00" departDelay="0.27" arrival="450.00" arrivalLane="nt15_np10_0" arrivalPos="75.00" arrivalSpeed="10.92" duration="327.00" routeLength="895.57" waitingTime="80.00" waitingCount="16" stopTime="0.00" timeLoss="252.55" rerouteNo="0" devices="tripinfo_f_0_2.15" vType="type1" speedFactor="1.01" vaporized=""/>
    <tripinfo id="f_0_2.16" depart="131.00" departLane="np2_nt2_0" departPos="20.42" departSpeed="0.00" departDelay="0.09" arrival="452.00" arrivalLane="nt15_np10_0" arrivalPos="75.00" arrivalSpeed="8.92" duration="321.00" routeLength="930.66" waitingTime="79.00" waitingCount="14" stopTime="0.00" timeLoss="237.46" rerouteNo="0" devices="tripinfo_f_0_2.16" vType="type1" speedFactor="0.94" vaporized=""/>
    <tripinfo id="f_0_2.17" depart="140.00" departLane="np2_nt2_0" departPos="43.07" departSpeed="0.00" departDelay="0.91" arrival="453.00" arrivalLane="nt15_np10_0" arrivalPos="75.00" arrivalSpeed="10.88" duration="313.00" routeLength="908.01" waitingTime="96.00" waitingCount="11" stopTime="0.00" timeLoss="242.15" rerouteNo="0" devices="tripinfo_f_0_2.17" vType="type1" speedFactor="1.07" vaporized=""/>
    <tripinfo id="f_0_2.18" depart="148.00" departLane="np2_nt2_0" departPos="9.34" departSpeed="0.00" departDelay="0.72" arrival="468.00" arrivalLane="nt15_np10_0" arrivalPos="75.00" arrivalSpeed="8.37" duration="320.00" routeLength="941.74" waitingTime="124.00" waitingCount="11" stopTime="0.00" timeLoss="237.02" rerouteNo="0" devices="tripinfo_f_0_2.18" vType="type1" speedFactor="0.96" vaporized=""/>
    <tripinfo id="f_0_2.19" depart="156.00" departLane="np2_nt2_0" departPos="37.42" departSpeed="0.00" departDelay="0.54" arrival="469.00" arrivalLane="nt15_np10_0" arrivalPos="75.00" arrivalSpeed="13.10" duration="313.00" routeLength="913.66" waitingTime="141.00" waitingCount="11" stopTime="0.00" timeLoss="253.91" rerouteNo="0" devices="tripinfo_f_0_2.19" vType="type1" speedFactor="1.29" vaporized=""/>
    <tripinfo id="f_0_3.16" depart="131.00" departLane="np3_nt3_0" departPos="0.00" departSpeed="0.00" departDelay="0.09" arrival="477.00" arrivalLane="nt14_np11_0" arrivalPos="75.00" arrivalSpeed="11.35" duration="346.00" routeLength="951.09" waitingTime="170.00" waitingCount="14" stopTime="0.00" timeLoss="268.44" rerouteNo="0" devices="tripinfo_f_0_3.16" vType="type1" speedFactor="1.03" vaporized=""/>
    <tripinfo id="f_0_3.17" depart="144.00" departLane="np3_nt3_0" departPos="0.00" departSpeed="0.00" departDelay="4.91" arrival="479.00" arrivalLane="nt14_np11_0" arrivalPos="75.00" arrivalSpeed="10.09" duration="335.00" routeLength="951.09" waitingTime="198.00" waitingCount="11" stopTime="0.00" timeLoss="259.59" rerouteNo="0" devices="tripinfo_f_0_3.17" vType="type1" speedFactor="1.06" vaporized=""/>
    <tripinfo id="f_0_2.20" depart="164.00" departLane="np2_nt2_0" departPos="12.09" departSpeed="0.00" departDelay="0.36" arrival="483.00" arrivalLane="nt15_np10_0" arrivalPos="75.00" arrivalSpeed="8.36" duration="319.00" routeLength="938.99" waitingTime="130.00" waitingCount="13" stopTime="0.00" timeLoss="227.71" rerouteNo="0" devices="tripinfo_f_0_2.20" vType="type1" speedFactor="0.86" vaporized=""/>
    <tripinfo id="f_0_2.21" depart="172.00" departLane="np2_nt2_0" departPos="52.35" departSpeed="0.00" departDelay="0.18" arrival="485.00" arrivalLane="nt15_np10_0" arrivalPos="75.00" arrivalSpeed="9.51" duration="313.00" routeLength="898.73" waitingTime="134.00" waitingCount="14" stopTime="0.00" timeLoss="232.41" rerouteNo="0" devices="tripinfo_f_0_2.21" vType="type1" speedFactor="0.93" vaporized=""/>
    <tripinfo id="f_0_2.22" depart="180.00" departLane="np2_nt2_0" departPos="5.29" departSpeed="0.00" departDelay="0.00" arrival="487.00" arrivalLane="nt15_np10_0" arrivalPos="75.00" arrivalSpeed="10.51" duration="307.00" routeLength="945.79" waitingTime="136.00" waitingCount="15" stopTime="0.00" timeLoss="235.61" rerouteNo="0" devices="tripinfo_f_0_2.22" vType="type1" speedFactor="1.11" vaporized=""/>
    <tripinfo id="f_0_3.18" depart="173.00" departLane="np3_nt3_0" departPos="0.00" departSpeed="0.00" departDelay="25.72" arrival="488.00" arrivalLane="nt14_np11_0" arrivalPos="75.00" arrivalSpeed="7.57" duration="315.00" routeLength="951.09" waitingTime="164.00" waitingCount="9" stopTime="0.00" timeLoss="222.02" rerouteNo="0" devices="tripinfo_f_0_3.18" vType="type1" speedFactor="0.86" vaporized=""/>
    <tripinfo id="f_0_2.23" depart="189.00" departLane="np2_nt2_0" departPos="38.19" departSpeed="0.00" departDelay="0.81" arrival="489.00" arrivalLane="nt15_np10_0" arrivalPos="75.00" arrivalSpeed="10.42" duration="300.00" routeLength="912.89" waitingTime="123.00" waitingCount="14" stopTime="0.00" timeLoss="222.69" rerouteNo="0" devices="tripinfo_f_0_2.23" vType="type1" speedFactor="0.99" vaporized=""/>
    <tripinfo id="f_0_1.9" depart="123.00" departLane="np16_nt1_0" departPos="14.47" departSpeed="0.00" departDelay="0.28" arrival="493.00" arrivalLane="nt16_np8_0" arrivalPos="75.00" arrivalSpeed="20.54" duration="370.00" routeLength="1333.41" waitingTime="126.00" waitingCount="14" stopTime="0.00" timeLoss="288.34" rerouteNo="0" devices="tripinfo_f_0_1.9" vType="type1" speedFactor="1.13" vaporized=""/>
    <tripinfo id="f_0_1.10" depart="137.00" departLane="np16_nt1_0" departPos="17.13" departSpeed="0.00" departDelay="0.64" arrival="495.00" arrivalLane="nt16_np8_0" arrivalPos="75.00" arrivalSpeed="17.68" duration="358.00" routeLength="1330.75" waitingTime="124.00" waitingCount="11" stopTime="0.00" timeLoss="257.82" rerouteNo="0" devices="tripinfo_f_0_1.10" vType="type1" speedFactor="0.92" vaporized=""/>
    <tripinfo id="f_0_2.24" depart="197.00" departLane="np2_nt2_0" departPos="20.87" departSpeed="0.00" departDelay="0.63" arrival="523.00" arrivalLane="nt15_np10_0" arrivalPos="75.00" arrivalSpeed="9.11" duration="326.00" routeLength="930.21" waitingTime="131.00" waitingCount="13" stopTime="0.00" timeLoss="234.04" rerouteNo="0" devices="tripinfo_f_0_2.24" vType="type1" speedFactor="0.85" vaporized=""/>
    <tripinfo id="f_0_2.25" depart="205.00" departLane="np2_nt2_0" departPos="16.57" departSpeed="0.00" departDelay="0.45" arrival="525.00" arrivalLane="nt15_np10_0" arrivalPos="75.00" arrivalSpeed="9.64" duration="320.00" routeLength="934.51" waitingTime="128.00" waitingCount="13" stopTime="0.00" timeLoss="247.61" rerouteNo="0" devices="tripinfo_f_0_2.25" vType="type1" speedFactor="1.09" vaporized=""/>
    <tripinfo id="f_0_1.11" depart="150.00" departLane="np16_nt1_0" departPos="2.44" departSpeed="0.00" departDelay="0.00" arrival="533.00" arrivalLane="nt16_np8_0" arrivalPos="75.00" arrivalSpeed="17.15" duration="383.00" routeLength="1345.44" waitingTime="179.00" waitingCount="12" stopTime="0.00" timeLoss="283.91" rerouteNo="0" devices="tripinfo_f_0_1.11" vType="type1" speedFactor="0.94" vaporized=""/>
    <tripinfo id="f_0_2.26" depart="213.00" departLane="np2_nt2_0" departPos="4.93" departSpeed="0.00" departDelay="0.27" arrival="533.00" arrivalLane="nt15_np10_0" arrivalPos="75.00" arrivalSpeed="12.56" duration="320.00" routeLength="946.15" waitingTime="148.00" waitingCount="12" stopTime="0.00" timeLoss="252.20" rerouteNo="0" devices="tripinfo_f_0_2.26" vType="type1" speedFactor="1.17" vaporized=""/>
    <tripinfo id="f_0_0.9" depart="123.00" departLane="np13_nt13_0" departPos="6.72" departSpeed="0.00" departDelay="0.28" arrival="534.00" arrivalLane="nt4_np5_0" arrivalPos="75.00" arrivalSpeed="16.70" duration="411.00" routeLength="1341.17" waitingTime="257.00" waitingCount="10" stopTime="0.00" timeLoss="312.65" rerouteNo="0" devices="tripinfo_f_0_0.9" vType="type1" speedFactor="0.94" vaporized=""/>
    <tripinfo id="f_0_1.12" depart="164.00" departLane="np16_nt1_0" departPos="23.41" departSpeed="0.00" departDelay="0.37" arrival="536.00" arrivalLane="nt16_np8_0" arrivalPos="75.00" arrivalSpeed="16.14" duration="372.00" routeLength="1324.47" waitingTime="162.00" waitingCount="16" stopTime="0.00" timeLoss="268.71" rerouteNo="0" devices="tripinfo_f_0_1.12" vType="type1" speedFactor="0.90" vaporized=""/>
    <tripinfo id="f_0_1.13" depart="178.00" departLane="np16_nt1_0" departPos="58.43" departSpeed="0.00" departDelay="0.73" arrival="553.00" arrivalLane="nt16_np8_0" arrivalPos="75.00" arrivalSpeed="22.82" duration="375.00" routeLength="1289.45" waitingTime="194.00" waitingCount="18" stopTime="0.00" timeLoss="302.56" rerouteNo="0" devices="tripinfo_f_0_1.13" vType="type1" speedFactor="1.25" vaporized=""/>
    <tripinfo id="f_0_1.14" depart="191.00" departLane="np16_nt1_0" departPos="4.78" departSpeed="0.00" departDelay="0.10" arrival="554.00" arrivalLane="nt16_np8_0" arrivalPos="75.00" arrivalSpeed="19.29" duration="363.00" routeLength="1343.10" waitingTime="160.00" waitingCount="15" stopTime="0.00" timeLoss="271.88" rerouteNo="0" devices="tripinfo_f_0_1.14" vType="type1" speedFactor="1.02" vaporized=""/>