<?xml version="1.0" encoding="UTF-8"?>

<!-- generated on 2023-08-23 16:49:19 by Eclipse SUMO libsumo Version 1.18.0
<configuration xmlns:xsi="http://www.w3.org/2001/XMLSchema-instance" xsi:noNamespaceSchemaLocation="http://sumo.dlr.de/xsd/libsumoConfiguration.xsd">

    <input>
        <net-file value="/home/stefan/RESCO/./environments/arterial4x4/arterial4x4.net.xml"/>
        <route-files value="/home/stefan/RESCO/./environments/arterial4x4/arterial4x4_72.rou.xml"/>
    </input>

    <output>
        <tripinfo-output value="/home/stefan/results/IDDQN-tr0-arterial4x4-0-drq_norm-wait_norm/tripinfo_72.xml"/>
        <tripinfo-output.write-unfinished value="true"/>
    </output>

    <processing>
        <time-to-teleport value="-1"/>
    </processing>

    <report>
        <no-warnings value="True"/>
        <no-step-log value="True"/>
    </report>

    <random_number>
        <random value="true"/>
    </random_number>

</configuration>
-->

<tripinfos xmlns:xsi="http://www.w3.org/2001/XMLSchema-instance" xsi:noNamespaceSchemaLocation="http://sumo.dlr.de/xsd/tripinfo_file.xsd">
    <tripinfo id="f_0_2.0" depart="0.00" departLane="np2_nt2_0" departPos="63.98" departSpeed="0.00" departDelay="0.00" arrival="108.00" arrivalLane="nt15_np10_0" arrivalPos="75.00" arrivalSpeed="9.66" duration="108.00" routeLength="887.10" waitingTime="8.00" waitingCount="2" stopTime="0.00" timeLoss="25.90" rerouteNo="0" devices="tripinfo_f_0_2.0" vType="type1" speedFactor="0.91" vaporized=""/>
    <tripinfo id="f_0_0.0" depart="0.00" departLane="np13_nt13_0" departPos="42.54" departSpeed="0.00" departDelay="0.00" arrival="116.00" arrivalLane="nt4_np5_0" arrivalPos="75.00" arrivalSpeed="20.39" duration="116.00" routeLength="1305.35" waitingTime="11.00" waitingCount="2" stopTime="0.00" timeLoss="30.51" rerouteNo="0" devices="tripinfo_f_0_0.0" vType="type1" speedFactor="1.07" vaporized=""/>
    <tripinfo id="f_0_1.0" depart="0.00" departLane="np16_nt1_0" departPos="51.53" departSpeed="0.00" departDelay="0.00" arrival="123.00" arrivalLane="nt16_np8_0" arrivalPos="75.00" arrivalSpeed="19.59" duration="123.00" routeLength="1296.35" waitingTime="3.00" waitingCount="2" stopTime="0.00" timeLoss="31.90" rerouteNo="0" devices="tripinfo_f_0_1.0" vType="type1" speedFactor="1.00" vaporized=""/>
    <tripinfo id="f_0_2.1" depart="9.00" departLane="np2_nt2_0" departPos="20.69" departSpeed="0.00" departDelay="0.82" arrival="128.00" arrivalLane="nt15_np10_0" arrivalPos="75.00" arrivalSpeed="9.95" duration="119.00" routeLength="930.39" waitingTime="10.00" waitingCount="2" stopTime="0.00" timeLoss="36.37" rerouteNo="0" devices="tripinfo_f_0_2.1" vType="type1" speedFactor="0.95" vaporized=""/>
    <tripinfo id="f_0_2.2" depart="17.00" departLane="np2_nt2_0" departPos="8.30" departSpeed="0.00" departDelay="0.64" arrival="143.00" arrivalLane="nt15_np10_0" arrivalPos="75.00" arrivalSpeed="10.21" duration="126.00" routeLength="942.78" waitingTime="13.00" waitingCount="3" stopTime="0.00" timeLoss="43.63" rerouteNo="0" devices="tripinfo_f_0_2.2" vType="type1" speedFactor="0.97" vaporized=""/>
    <tripinfo id="f_0_3.0" depart="0.00" departLane="np3_nt3_0" departPos="23.68" departSpeed="0.00" departDelay="0.00" arrival="153.00" arrivalLane="nt14_np11_0" arrivalPos="75.00" arrivalSpeed="9.10" duration="153.00" routeLength="927.41" waitingTime="49.00" waitingCount="3" stopTime="0.00" timeLoss="71.23" rerouteNo="0" devices="tripinfo_f_0_3.0" vType="type1" speedFactor="0.95" vaporized=""/>
    <tripinfo id="f_0_3.1" depart="9.00" departLane="np3_nt3_0" departPos="2.28" departSpeed="0.00" departDelay="0.82" arrival="155.00" arrivalLane="nt14_np11_0" arrivalPos="75.00" arrivalSpeed="9.03" duration="146.00" routeLength="948.81" waitingTime="31.00" waitingCount="2" stopTime="0.00" timeLoss="53.98" rerouteNo="0" devices="tripinfo_f_0_3.1" vType="type1" speedFactor="0.86" vaporized=""/>
    <tripinfo id="f_0_1.1" depart="14.00" departLane="np16_nt1_0" departPos="43.09" departSpeed="0.00" departDelay="0.36" arrival="155.00" arrivalLane="nt16_np8_0" arrivalPos="75.00" arrivalSpeed="15.84" duration="141.00" routeLength="1304.79" waitingTime="8.00" waitingCount="2" stopTime="0.00" timeLoss="34.47" rerouteNo="0" devices="tripinfo_f_0_1.1" vType="type1" speedFactor="0.86" vaporized=""/>
    <tripinfo id="f_0_3.2" depart="17.00" departLane="np3_nt3_0" departPos="15.03" departSpeed="0.00" departDelay="0.64" arrival="157.00" arrivalLane="nt14_np11_0" arrivalPos="75.00" arrivalSpeed="11.51" duration="140.00" routeLength="936.06" waitingTime="29.00" waitingCount="2" stopTime="0.00" timeLoss="67.26" rerouteNo="0" devices="tripinfo_f_0_3.2" vType="type1" speedFactor="1.09" vaporized=""/>
    <tripinfo id="f_0_1.2" depart="28.00" departLane="np16_nt1_0" departPos="56.20" departSpeed="0.00" departDelay="0.73" arrival="157.00" arrivalLane="nt16_np8_0" arrivalPos="75.00" arrivalSpeed="19.40" duration="129.00" routeLength="1291.68" waitingTime="17.00" waitingCount="4" stopTime="0.00" timeLoss="43.10" rerouteNo="0" devices="tripinfo_f_0_1.2" vType="type1" speedFactor="1.05" vaporized=""/>
    <tripinfo id="f_0_3.3" depart="25.00" departLane="np3_nt3_0" departPos="47.15" departSpeed="0.00" departDelay="0.45" arrival="159.00" arrivalLane="nt14_np11_0" arrivalPos="75.00" arrivalSpeed="9.57" duration="134.00" routeLength="903.94" waitingTime="26.00" waitingCount="3" stopTime="0.00" timeLoss="60.87" rerouteNo="0" devices="tripinfo_f_0_3.3" vType="type1" speedFactor="1.03" vaporized=""/>
    <tripinfo id="f_0_3.4" depart="33.00" departLane="np3_nt3_0" departPos="24.14" departSpeed="0.00" departDelay="0.27" arrival="161.00" arrivalLane="nt14_np11_0" arrivalPos="75.00" arrivalSpeed="8.78" duration="128.00" routeLength="926.95" waitingTime="18.00" waitingCount="3" stopTime="0.00" timeLoss="46.54" rerouteNo="0" devices="tripinfo_f_0_3.4" vType="type1" speedFactor="0.95" vaporized=""/>
    <tripinfo id="f_0_3.5" depart="41.00" departLane="np3_nt3_0" departPos="41.30" departSpeed="0.00" departDelay="0.09" arrival="168.00" arrivalLane="nt14_np11_0" arrivalPos="75.00" arrivalSpeed="7.83" duration="127.00" routeLength="909.79" waitingTime="15.00" waitingCount="4" stopTime="0.00" timeLoss="42.86" rerouteNo="0" devices="tripinfo_f_0_3.5" vType="type1" speedFactor="0.91" vaporized=""/>
    <tripinfo id="f_0_3.6" depart="50.00" departLane="np3_nt3_0" departPos="46.94" departSpeed="0.00" departDelay="0.91" arrival="170.00" arrivalLane="nt14_np11_0" arrivalPos="75.00" arrivalSpeed="9.19" duration="120.00" routeLength="904.15" waitingTime="3.00" waitingCount="2" stopTime="0.00" timeLoss="36.30" rerouteNo="0" devices="tripinfo_f_0_3.6" vType="type1" speedFactor="0.91" vaporized=""/>
    <tripinfo id="f_0_3.7" depart="58.00" departLane="np3_nt3_0" departPos="49.62" departSpeed="0.00" departDelay="0.73" arrival="172.00" arrivalLane="nt14_np11_0" arrivalPos="75.00" arrivalSpeed="8.94" duration="114.00" routeLength="901.47" waitingTime="15.00" waitingCount="2" stopTime="0.00" timeLoss="34.81" rerouteNo="0" devices="tripinfo_f_0_3.7" vType="type1" speedFactor="0.95" vaporized=""/>
    <tripinfo id="f_0_2.3" depart="25.00" departLane="np2_nt2_0" departPos="3.30" departSpeed="0.00" departDelay="0.45" arrival="173.00" arrivalLane="nt15_np10_0" arrivalPos="75.00" arrivalSpeed="7.95" duration="148.00" routeLength="947.78" waitingTime="36.00" waitingCount="5" stopTime="0.00" timeLoss="63.15" rerouteNo="0" devices="tripinfo_f_0_2.3" vType="type1" speedFactor="0.93" vaporized=""/>
    <tripinfo id="f_0_2.4" depart="33.00" departLane="np2_nt2_0" departPos="16.57" departSpeed="0.00" departDelay="0.27" arrival="175.00" arrivalLane="nt15_np10_0" arrivalPos="75.00" arrivalSpeed="10.63" duration="142.00" routeLength="934.51" waitingTime="25.00" waitingCount="5" stopTime="0.00" timeLoss="70.22" rerouteNo="0" devices="tripinfo_f_0_2.4" vType="type1" speedFactor="1.11" vaporized=""/>
    <tripinfo id="f_0_3.8" depart="66.00" departLane="np3_nt3_0" departPos="12.31" departSpeed="0.00" departDelay="0.54" arrival="175.00" arrivalLane="nt14_np11_0" arrivalPos="75.00" arrivalSpeed="11.75" duration="109.00" routeLength="938.78" waitingTime="9.00" waitingCount="3" stopTime="0.00" timeLoss="35.75" rerouteNo="0" devices="tripinfo_f_0_3.8" vType="type1" speedFactor="1.07" vaporized=""/>
    <tripinfo id="f_0_2.5" depart="41.00" departLane="np2_nt2_0" departPos="19.81" departSpeed="0.00" departDelay="0.09" arrival="178.00" arrivalLane="nt15_np10_0" arrivalPos="75.00" arrivalSpeed="11.64" duration="137.00" routeLength="931.27" waitingTime="19.00" waitingCount="5" stopTime="0.00" timeLoss="63.45" rerouteNo="0" devices="tripinfo_f_0_2.5" vType="type1" speedFactor="1.06" vaporized=""/>
    <tripinfo id="f_0_1.3" depart="41.00" departLane="np16_nt1_0" departPos="10.93" departSpeed="0.00" departDelay="0.09" arrival="188.00" arrivalLane="nt16_np8_0" arrivalPos="75.00" arrivalSpeed="22.42" duration="147.00" routeLength="1336.95" waitingTime="17.00" waitingCount="4" stopTime="0.00" timeLoss="70.89" rerouteNo="0" devices="tripinfo_f_0_1.3" vType="type1" speedFactor="1.23" vaporized=""/>
    <tripinfo id="f_0_2.6" depart="50.00" departLane="np2_nt2_0" departPos="4.58" departSpeed="0.00" departDelay="0.91" arrival="196.00" arrivalLane="nt15_np10_0" arrivalPos="75.00" arrivalSpeed="6.42" duration="146.00" routeLength="946.50" waitingTime="9.00" waitingCount="3" stopTime="0.00" timeLoss="40.92" rerouteNo="0" devices="tripinfo_f_0_2.6" vType="type1" speedFactor="0.76" vaporized=""/>
    <tripinfo id="f_0_2.7" depart="58.00" departLane="np2_nt2_0" departPos="11.74" departSpeed="0.00" departDelay="0.73" arrival="198.00" arrivalLane="nt15_np10_0" arrivalPos="75.00" arrivalSpeed="9.67" duration="140.00" routeLength="939.34" waitingTime="7.00" waitingCount="1" stopTime="0.00" timeLoss="61.99" rerouteNo="0" devices="tripinfo_f_0_2.7" vType="type1" speedFactor="1.02" vaporized=""/>
    <tripinfo id="f_0_2.8" depart="66.00" departLane="np2_nt2_0" departPos="37.41" departSpeed="0.00" departDelay="0.54" arrival="200.00" arrivalLane="nt15_np10_0" arrivalPos="75.00" arrivalSpeed="10.22" duration="134.00" routeLength="913.67" waitingTime="6.00" waitingCount="1" stopTime="0.00" timeLoss="63.73" rerouteNo="0" devices="tripinfo_f_0_2.8" vType="type1" speedFactor="1.09" vaporized=""/>
    <tripinfo id="f_0_2.9" depart="74.00" departLane="np2_nt2_0" departPos="50.55" departSpeed="0.00" departDelay="0.36" arrival="202.00" arrivalLane="nt15_np10_0" arrivalPos="75.00" arrivalSpeed="10.34" duration="128.00" routeLength="900.53" waitingTime="6.00" waitingCount="1" stopTime="0.00" timeLoss="48.20" rerouteNo="0" devices="tripinfo_f_0_2.9" vType="type1" speedFactor="0.94" vaporized=""/>
    <tripinfo id="f_0_0.1" depart="14.00" departLane="np13_nt13_0" departPos="8.97" departSpeed="0.00" departDelay="0.36" arrival="204.00" arrivalLane="nt4_np5_0" arrivalPos="75.00" arrivalSpeed="20.22" duration="190.00" routeLength="1338.92" waitingTime="61.00" waitingCount="6" stopTime="0.00" timeLoss="98.24" rerouteNo="0" devices="tripinfo_f_0_0.1" vType="type1" speedFactor="1.02" vaporized=""/>
    <tripinfo id="f_0_2.10" depart="82.00" departLane="np2_nt2_0" departPos="13.90" departSpeed="0.00" departDelay="0.18" arrival="204.00" arrivalLane="nt15_np10_0" arrivalPos="75.00" arrivalSpeed="9.24" duration="122.00" routeLength="937.18" waitingTime="18.00" waitingCount="3" stopTime="0.00" timeLoss="43.57" rerouteNo="0" devices="tripinfo_f_0_2.10" vType="type1" speedFactor="1.00" vaporized=""/>
    <tripinfo id="f_0_0.2" depart="28.00" departLane="np13_nt13_0" departPos="18.20" departSpeed="0.00" departDelay="0.73" arrival="206.00" arrivalLane="nt4_np5_0" arrivalPos="75.00" arrivalSpeed="19.55" duration="178.00" routeLength="1329.69" waitingTime="53.00" waitingCount="4" stopTime="0.00" timeLoss="87.14" rerouteNo="0" devices="tripinfo_f_0_0.2" vType="type1" speedFactor="1.02" vaporized=""/>
    <tripinfo id="f_0_2.11" depart="90.00" departLane="np2_nt2_0" departPos="46.48" departSpeed="0.00" departDelay="0.00" arrival="206.00" arrivalLane="nt15_np10_0" arrivalPos="75.00" arrivalSpeed="9.76" duration="116.00" routeLength="904.60" waitingTime="16.00" waitingCount="3" stopTime="0.00" timeLoss="43.16" rerouteNo="0" devices="tripinfo_f_0_2.11" vType="type1" speedFactor="1.04" vaporized=""/>
    <tripinfo id="f_0_0.3" depart="41.00" departLane="np13_nt13_0" departPos="37.15" departSpeed="0.00" departDelay="0.09" arrival="207.00" arrivalLane="nt4_np5_0" arrivalPos="75.00" arrivalSpeed="20.07" duration="166.00" routeLength="1310.74" waitingTime="38.00" waitingCount="4" stopTime="0.00" timeLoss="76.74" rerouteNo="0" devices="tripinfo_f_0_0.3" vType="type1" speedFactor="1.02" vaporized=""/>
    <tripinfo id="f_0_3.9" depart="74.00" departLane="np3_nt3_0" departPos="11.17" departSpeed="0.00" departDelay="0.36" arrival="226.00" arrivalLane="nt14_np11_0" arrivalPos="75.00" arrivalSpeed="11.43" duration="152.00" routeLength="939.92" waitingTime="54.00" waitingCount="4" stopTime="0.00" timeLoss="79.62" rerouteNo="0" devices="tripinfo_f_0_3.9" vType="type1" speedFactor="1.09" vaporized=""/>
    <tripinfo id="f_0_3.10" depart="82.00" departLane="np3_nt3_0" departPos="53.81" departSpeed="0.00" departDelay="0.18" arrival="229.00" arrivalLane="nt14_np11_0" arrivalPos="75.00" arrivalSpeed="10.98" duration="147.00" routeLength="897.28" waitingTime="52.00" waitingCount="3" stopTime="0.00" timeLoss="77.70" rerouteNo="0" devices="tripinfo_f_0_3.10" vType="type1" speedFactor="1.09" vaporized=""/>
    <tripinfo id="f_0_3.11" depart="90.00" departLane="np3_nt3_0" departPos="5.50" departSpeed="0.00" departDelay="0.00" arrival="232.00" arrivalLane="nt14_np11_0" arrivalPos="75.00" arrivalSpeed="9.51" duration="142.00" routeLength="945.59" waitingTime="34.00" waitingCount="3" stopTime="0.00" timeLoss="62.34" rerouteNo="0" devices="tripinfo_f_0_3.11" vType="type1" speedFactor="1.00" vaporized=""/>
    <tripinfo id="f_0_0.4" depart="55.00" departLane="np13_nt13_0" departPos="44.17" departSpeed="0.00" departDelay="0.46" arrival="233.00" arrivalLane="nt4_np5_0" arrivalPos="75.00" arrivalSpeed="16.85" duration="178.00" routeLength="1303.72" waitingTime="44.00" waitingCount="5" stopTime="0.00" timeLoss="80.62" rerouteNo="0" devices="tripinfo_f_0_0.4" vType="type1" speedFactor="0.93" vaporized=""/>
    <tripinfo id="f_0_3.12" depart="99.00" departLane="np3_nt3_0" departPos="11.66" departSpeed="0.00" departDelay="0.82" arrival="234.00" arrivalLane="nt14_np11_0" arrivalPos="75.00" arrivalSpeed="11.00" duration="135.00" routeLength="939.43" waitingTime="27.00" waitingCount="4" stopTime="0.00" timeLoss="56.33" rerouteNo="0" devices="tripinfo_f_0_3.12" vType="type1" speedFactor="1.00" vaporized=""/>
    <tripinfo id="f_0_3.13" depart="107.00" departLane="np3_nt3_0" departPos="5.83" departSpeed="0.00" departDelay="0.63" arrival="241.00" arrivalLane="nt14_np11_0" arrivalPos="75.00" arrivalSpeed="10.77" duration="134.00" routeLength="945.26" waitingTime="25.00" waitingCount="5" stopTime="0.00" timeLoss="63.52" rerouteNo="0" devices="tripinfo_f_0_3.13" vType="type1" speedFactor="1.12" vaporized=""/>
    <tripinfo id="f_0_3.14" depart="115.00" departLane="np3_nt3_0" departPos="19.60" departSpeed="0.00" departDelay="0.45" arrival="243.00" arrivalLane="nt14_np11_0" arrivalPos="75.00" arrivalSpeed="12.54" duration="128.00" routeLength="931.49" waitingTime="23.00" waitingCount="6" stopTime="0.00" timeLoss="64.40" rerouteNo="0" devices="tripinfo_f_0_3.14" vType="type1" speedFactor="1.23" vaporized=""/>
    <tripinfo id="f_0_0.5" depart="69.00" departLane="np13_nt13_0" departPos="41.74" departSpeed="0.00" departDelay="0.82" arrival="244.00" arrivalLane="nt4_np5_0" arrivalPos="75.00" arrivalSpeed="14.67" duration="175.00" routeLength="1306.15" waitingTime="25.00" waitingCount="4" stopTime="0.00" timeLoss="62.31" rerouteNo="0" devices="tripinfo_f_0_0.5" vType="type1" speedFactor="0.81" vaporized=""/>
    <tripinfo id="f_0_3.15" depart="123.00" departLane="np3_nt3_0" departPos="43.09" departSpeed="0.00" departDelay="0.27" arrival="246.00" arrivalLane="nt14_np11_0" arrivalPos="75.00" arrivalSpeed="9.73" duration="123.00" routeLength="908.00" waitingTime="12.00" waitingCount="4" stopTime="0.00" timeLoss="47.07" rerouteNo="0" devices="tripinfo_f_0_3.15" vType="type1" speedFactor="1.00" vaporized=""/>
    <tripinfo id="f_0_2.12" depart="99.00" departLane="np2_nt2_0" departPos="43.86" departSpeed="0.00" departDelay="0.82" arrival="248.00" arrivalLane="nt15_np10_0" arrivalPos="75.00" arrivalSpeed="9.43" duration="149.00" routeLength="907.22" waitingTime="37.00" waitingCount="4" stopTime="0.00" timeLoss="64.30" rerouteNo="0" devices="tripinfo_f_0_2.12" vType="type1" speedFactor="0.90" vaporized=""/>
    <tripinfo id="f_0_2.13" depart="107.00" departLane="np2_nt2_0" departPos="19.13" departSpeed="0.00" departDelay="0.63" arrival="251.00" arrivalLane="nt15_np10_0" arrivalPos="75.00" arrivalSpeed="8.03" duration="144.00" routeLength="931.95" waitingTime="34.00" waitingCount="5" stopTime="0.00" timeLoss="59.77" rerouteNo="0" devices="tripinfo_f_0_2.13" vType="type1" speedFactor="0.93" vaporized=""/>
    <tripinfo id="f_0_0.6" depart="82.00" departLane="np13_nt13_0" departPos="55.59" departSpeed="0.00" departDelay="0.18" arrival="252.00" arrivalLane="nt4_np5_0" arrivalPos="75.00" arrivalSpeed="18.14" duration="170.00" routeLength="1292.30" waitingTime="34.00" waitingCount="6" stopTime="0.00" timeLoss="80.11" rerouteNo="0" devices="tripinfo_f_0_0.6" vType="type1" speedFactor="1.00" vaporized=""/>
    <tripinfo id="f_0_1.4" depart="55.00" departLane="np16_nt1_0" departPos="49.44" departSpeed="0.00" departDelay="0.46" arrival="261.00" arrivalLane="nt16_np8_0" arrivalPos="75.00" arrivalSpeed="20.89" duration="206.00" routeLength="1298.44" waitingTime="70.00" waitingCount="7" stopTime="0.00" timeLoss="124.87" rerouteNo="0" devices="tripinfo_f_0_1.4" vType="type1" speedFactor="1.12" vaporized=""/>
    <tripinfo id="f_0_1.5" depart="69.00" departLane="np16_nt1_0" departPos="6.90" departSpeed="0.00" departDelay="0.82" arrival="264.00" arrivalLane="nt16_np8_0" arrivalPos="75.00" arrivalSpeed="20.85" duration="195.00" routeLength="1340.98" waitingTime="59.00" waitingCount="5" stopTime="0.00" timeLoss="109.71" rerouteNo="0" devices="tripinfo_f_0_1.5" vType="type1" speedFactor="1.10" vaporized=""/>
    <tripinfo id="f_0_0.7" depart="96.00" departLane="np13_nt13_0" departPos="40.08" departSpeed="0.00" departDelay="0.55" arrival="284.00" arrivalLane="nt4_np5_0" arrivalPos="75.00" arrivalSpeed="14.43" duration="188.00" routeLength="1307.81" waitingTime="28.00" waitingCount="4" stopTime="0.00" timeLoss="63.52" rerouteNo="0" devices="tripinfo_f_0_0.7" vType="type1" speedFactor="0.73" vaporized=""/>
    <tripinfo id="f_0_0.8" depart="110.00" departLane="np13_nt13_0" departPos="27.46" departSpeed="0.00" departDelay="0.91" arrival="286.00" arrivalLane="nt4_np5_0" arrivalPos="75.00" arrivalSpeed="20.23" duration="176.00" routeLength="1320.43" waitingTime="55.00" waitingCount="4" stopTime="0.00" timeLoss="86.90" rerouteNo="0" devices="tripinfo_f_0_0.8" vType="type1" speedFactor="1.03" vaporized=""/>
    <tripinfo id="f_0_0.9" depart="123.00" departLane="np13_nt13_0" departPos="18.22" departSpeed="0.00" departDelay="0.28" arrival="287.00" arrivalLane="nt4_np5_0" arrivalPos="75.00" arrivalSpeed="18.78" duration="164.00" routeLength="1329.67" waitingTime="29.00" waitingCount="4" stopTime="0.00" timeLoss="67.04" rerouteNo="0" devices="tripinfo_f_0_0.9" vType="type1" speedFactor="0.95" vaporized=""/>
    <tripinfo id="f_0_0.10" depart="137.00" departLane="np13_nt13_0" departPos="14.09" departSpeed="0.00" departDelay="0.64" arrival="289.00" arrivalLane="nt4_np5_0" arrivalPos="75.00" arrivalSpeed="20.51" duration="152.00" routeLength="1333.80" waitingTime="18.00" waitingCount="2" stopTime="0.00" timeLoss="63.79" rerouteNo="0" devices="tripinfo_f_0_0.10" vType="type1" speedFactor="1.05" vaporized=""/>
    <tripinfo id="f_0_1.6" depart="82.00" departLane="np16_nt1_0" departPos="44.21" departSpeed="0.00" departDelay="0.18" arrival="303.00" arrivalLane="nt16_np8_0" arrivalPos="75.00" arrivalSpeed="12.57" duration="221.00" routeLength="1303.67" waitingTime="34.00" waitingCount="7" stopTime="0.00" timeLoss="90.50" rerouteNo="0" devices="tripinfo_f_0_1.6" vType="type1" speedFactor="0.70" vaporized=""/>
    <tripinfo id="f_0_1.7" depart="96.00" departLane="np16_nt1_0" departPos="37.01" departSpeed="0.00" departDelay="0.55" arrival="304.00" arrivalLane="nt16_np8_0" arrivalPos="75.00" arrivalSpeed="17.26" duration="208.00" routeLength="1310.87" waitingTime="37.00" waitingCount="8" stopTime="0.00" timeLoss="120.43" rerouteNo="0" devices="tripinfo_f_0_1.7" vType="type1" speedFactor="1.05" vaporized=""/>
    <tripinfo id="f_0_0.11" depart="150.00" departLane="np13_nt13_0" departPos="29.59" departSpeed="0.00" departDelay="0.00" arrival="304.00" arrivalLane="nt4_np5_0" arrivalPos="75.00" arrivalSpeed="19.95" duration="154.00" routeLength="1318.30" waitingTime="23.00" waitingCount="3" stopTime="0.00" timeLoss="70.05" rerouteNo="0" devices="tripinfo_f_0_0.11" vType="type1" speedFactor="1.10" vaporized=""/>
    <tripinfo id="f_0_2.14" depart="115.00" departLane="np2_nt2_0" departPos="12.33" departSpeed="0.00" departDelay="0.45" arrival="314.00" arrivalLane="nt15_np10_0" arrivalPos="75.00" arrivalSpeed="9.27" duration="199.00" routeLength="938.75" waitingTime="37.00" waitingCount="7" stopTime="0.00" timeLoss="107.77" rerouteNo="0" devices="tripinfo_f_0_2.14" vType="type1" speedFactor="0.86" vaporized=""/>
    <tripinfo id="f_0_2.15" depart="123.00" departLane="np2_nt2_0" departPos="42.59" departSpeed="0.00" departDelay="0.27" arrival="316.00" arrivalLane="nt15_np10_0" arrivalPos="75.00" arrivalSpeed="11.77" duration="193.00" routeLength="908.49" waitingTime="36.00" waitingCount="7" stopTime="0.00" timeLoss="124.10" rerouteNo="0" devices="tripinfo_f_0_2.15" vType="type1" speedFactor="1.11" vaporized=""/>
    <tripinfo id="f_0_2.16" depart="131.00" departLane="np2_nt2_0" departPos="33.99" departSpeed="0.00" departDelay="0.09" arrival="318.00" arrivalLane="nt15_np10_0" arrivalPos="75.00" arrivalSpeed="10.29" duration="187.00" routeLength="917.09" waitingTime="36.00" waitingCount="6" stopTime="0.00" timeLoss="118.11" rerouteNo="0" devices="tripinfo_f_0_2.16" vType="type1" speedFactor="1.11" vaporized=""/>
    <tripinfo id="f_0_2.17" depart="140.00" departLane="np2_nt2_0" departPos="56.69" departSpeed="0.00" departDelay="0.91" arrival="320.00" arrivalLane="nt15_np10_0" arrivalPos="75.00" arrivalSpeed="9.90" duration="180.00" routeLength="894.39" waitingTime="34.00" waitingCount="6" stopTime="0.00" timeLoss="104.64" rerouteNo="0" devices="tripinfo_f_0_2.17" vType="type1" speedFactor="0.99" vaporized=""/>
    <tripinfo id="f_0_2.18" depart="148.00" departLane="np2_nt2_0" departPos="63.30" departSpeed="0.00" departDelay="0.72" arrival="322.00" arrivalLane="nt15_np10_0" arrivalPos="75.00" arrivalSpeed="10.14" duration="174.00" routeLength="887.78" waitingTime="26.00" waitingCount="6" stopTime="0.00" timeLoss="101.18" rerouteNo="0" devices="tripinfo_f_0_2.18" vType="type1" speedFactor="1.02" vaporized=""/>
    <tripinfo id="f_0_3.16" depart="131.00" departLane="np3_nt3_0" departPos="17.00" departSpeed="0.00" departDelay="0.09" arrival="324.00" arrivalLane="nt14_np11_0" arrivalPos="75.00" arrivalSpeed="8.75" duration="193.00" routeLength="934.09" waitingTime="71.00" waitingCount="4" stopTime="0.00" timeLoss="100.50" rerouteNo="0" devices="tripinfo_f_0_3.16" vType="type1" speedFactor="0.85" vaporized=""/>
    <tripinfo id="f_0_3.17" depart="140.00" departLane="np3_nt3_0" departPos="39.77" departSpeed="0.00" departDelay="0.91" arrival="326.00" arrivalLane="nt14_np11_0" arrivalPos="75.00" arrivalSpeed="11.49" duration="186.00" routeLength="911.32" waitingTime="73.00" waitingCount="5" stopTime="0.00" timeLoss="122.21" rerouteNo="0" devices="tripinfo_f_0_3.17" vType="type1" speedFactor="1.19" vaporized=""/>
    <tripinfo id="f_0_3.18" depart="148.00" departLane="np3_nt3_0" departPos="49.80" departSpeed="0.00" departDelay="0.72" arrival="328.00" arrivalLane="nt14_np11_0" arrivalPos="75.00" arrivalSpeed="8.86" duration="180.00" routeLength="901.29" waitingTime="61.00" waitingCount="6" stopTime="0.00" timeLoss="106.88" rerouteNo="0" devices="tripinfo_f_0_3.18" vType="type1" speedFactor="1.03" vaporized=""/>
    <tripinfo id="f_0_1.8" depart="110.00" departLane="np16_nt1_0" departPos="35.85" departSpeed="0.00" departDelay="0.91" arrival="330.00" arrivalLane="nt16_np8_0" arrivalPos="75.00" arrivalSpeed="19.56" duration="220.00" routeLength="1312.03" waitingTime="41.00" waitingCount="5" stopTime="0.00" timeLoss="134.72" rerouteNo="0" devices="tripinfo_f_0_1.8" vType="type1" speedFactor="1.08" vaporized=""/>
    <tripinfo id="f_0_3.19" depart="156.00" departLane="np3_nt3_0" departPos="47.62" departSpeed="0.00" departDelay="0.54" arrival="330.00" arrivalLane="nt14_np11_0" arrivalPos="75.00" arrivalSpeed="9.53" duration="174.00" routeLength="903.47" waitingTime="48.00" waitingCount="5" stopTime="0.00" timeLoss="101.42" rerouteNo="0" devices="tripinfo_f_0_3.19" vType="type1" speedFactor="1.04" vaporized=""/>
    <tripinfo id="f_0_0.12" depart="164.00" departLane="np13_nt13_0" departPos="48.76" departSpeed="0.00" departDelay="0.37" arrival="332.00" arrivalLane="nt4_np5_0" arrivalPos="75.00" arrivalSpeed="17.28" duration="168.00" routeLength="1299.13" waitingTime="37.00" waitingCount="2" stopTime="0.00" timeLoss="67.38" rerouteNo="0" devices="tripinfo_f_0_0.12" vType="type1" speedFactor="0.90" vaporized=""/>
    <tripinfo id="f_0_3.20" depart="164.00" departLane="np3_nt3_0" departPos="38.29" departSpeed="0.00" departDelay="0.36" arrival="332.00" arrivalLane="nt14_np11_0" arrivalPos="75.00" arrivalSpeed="9.45" duration="168.00" routeLength="912.80" waitingTime="44.00" waitingCount="7" stopTime="0.00" timeLoss="91.74" rerouteNo="0" devices="tripinfo_f_0_3.20" vType="type1" speedFactor="0.99" vaporized=""/>
    <tripinfo id="f_0_3.21" depart="172.00" departLane="np3_nt3_0" departPos="36.27" departSpeed="0.00" departDelay="0.18" arrival="334.00" arrivalLane="nt14_np11_0" arrivalPos="75.00" arrivalSpeed="8.56" duration="162.00" routeLength="914.82" waitingTime="41.00" waitingCount="7" stopTime="0.00" timeLoss="85.63" rerouteNo="0" devices="tripinfo_f_0_3.21" vType="type1" speedFactor="1.00" vaporized=""/>
    <tripinfo id="f_0_1.9" depart="123.00" departLane="np16_nt1_0" departPos="53.84" departSpeed="0.00" departDelay="0.28" arrival="337.00" arrivalLane="nt16_np8_0" arrivalPos="75.00" arrivalSpeed="14.53" duration="214.00" routeLength="1294.04" waitingTime="53.00" waitingCount="10" stopTime="0.00" timeLoss="104.12" rerouteNo="0" devices="tripinfo_f_0_1.9" vType="type1" speedFactor="0.82" vaporized=""/>
    <tripinfo id="f_0_1.10" depart="137.00" departLane="np16_nt1_0" departPos="56.19" departSpeed="0.00" departDelay="0.64" arrival="338.00" arrivalLane="nt16_np8_0" arrivalPos="75.00" arrivalSpeed="21.23" duration="201.00" routeLength="1291.69" waitingTime="34.00" waitingCount="7" stopTime="0.00" timeLoss="118.62" rerouteNo="0" devices="tripinfo_f_0_1.10" vType="type1" speedFactor="1.10" vaporized=""/>
    <tripinfo id="f_0_2.19" depart="156.00" departLane="np2_nt2_0" departPos="34.00" departSpeed="0.00" departDelay="0.54" arrival="338.00" arrivalLane="nt15_np10_0" arrivalPos="75.00" arrivalSpeed="10.34" duration="182.00" routeLength="917.08" waitingTime="39.00" waitingCount="6" stopTime="0.00" timeLoss="103.95" rerouteNo="0" devices="tripinfo_f_0_2.19" vType="type1" speedFactor="0.98" vaporized=""/>
    <tripinfo id="f_0_1.11" depart="150.00" departLane="np16_nt1_0" departPos="21.03" departSpeed="0.00" departDelay="0.00" arrival="340.00" arrivalLane="nt16_np8_0" arrivalPos="75.00" arrivalSpeed="17.89" duration="190.00" routeLength="1326.85" waitingTime="25.00" waitingCount="5" stopTime="0.00" timeLoss="95.31" rerouteNo="0" devices="tripinfo_f_0_1.11" vType="type1" speedFactor="0.97" vaporized=""/>
    <tripinfo id="f_0_2.20" depart="164.00" departLane="np2_nt2_0" departPos="39.68" departSpeed="0.00" departDelay="0.36" arrival="340.00" arrivalLane="nt15_np10_0" arrivalPos="75.00" arrivalSpeed="10.14" duration="176.00" routeLength="911.40" waitingTime="39.00" waitingCount="7" stopTime="0.00" timeLoss="104.01" rerouteNo="0" devices="tripinfo_f_0_2.20" vType="type1" speedFactor="1.06" vaporized=""/>
    <tripinfo id="f_0_1.12" depart="164.00" departLane="np16_nt1_0" departPos="3.88" departSpeed="0.00" departDelay="0.37" arrival="342.00" arrivalLane="nt16_np8_0" arrivalPos="75.00" arrivalSpeed="21.24" duration="178.00" routeLength="1344.00" waitingTime="26.00" waitingCount="4" stopTime="0.00" timeLoss="94.70" rerouteNo="0" devices="tripinfo_f_0_1.12" vType="type1" speedFactor="1.12" vaporized=""/>
    <tripinfo id="f_0_2.21" depart="172.00" departLane="np2_nt2_0" departPos="20.61" departSpeed="0.00" departDelay="0.18" arrival="342.00" arrivalLane="nt15_np10_0" arrivalPos="75.00" arrivalSpeed="10.00" duration="170.00" routeLength="930.47" waitingTime="25.00" waitingCount="7" stopTime="0.00" timeLoss="95.13" rerouteNo="0" devices="tripinfo_f_0_2.21" vType="type1" speedFactor="1.05" vaporized=""/>
    <tripinfo id="f_0_0.13" depart="178.00" departLane="np13_nt13_0" departPos="1.53" departSpeed="0.00" departDelay="0.73" arrival="342.00" arrivalLane="nt4_np5_0" arrivalPos="75.00" arrivalSpeed="18.23" duration="164.00" routeLength="1346.36" waitingTime="35.00" waitingCount="3" stopTime="0.00" timeLoss="71.12" rerouteNo="0" devices="tripinfo_f_0_0.13" vType="type1" speedFactor="1.01" vaporized=""/>