<?xml version="1.0" encoding="UTF-8"?>

<!-- generated on 2023-08-23 15:57:28 by Eclipse SUMO libsumo Version 1.18.0
<configuration xmlns:xsi="http://www.w3.org/2001/XMLSchema-instance" xsi:noNamespaceSchemaLocation="http://sumo.dlr.de/xsd/libsumoConfiguration.xsd">

    <input>
        <net-file value="/home/stefan/RESCO/./environments/arterial4x4/arterial4x4.net.xml"/>
        <route-files value="/home/stefan/RESCO/./environments/arterial4x4/arterial4x4_10.rou.xml"/>
    </input>

    <output>
        <tripinfo-output value="/home/stefan/results/IDDQN-tr0-arterial4x4-0-drq_norm-wait_norm/tripinfo_10.xml"/>
        <tripinfo-output.write-unfinished value="true"/>
    </output>

    <processing>
        <time-to-teleport value="-1"/>
    </processing>

    <report>
        <no-warnings value="True"/>
        <no-step-log value="True"/>
    </report>

    <random_number>
        <random value="true"/>
    </random_number>

</configuration>
-->

<tripinfos xmlns:xsi="http://www.w3.org/2001/XMLSchema-instance" xsi:noNamespaceSchemaLocation="http://sumo.dlr.de/xsd/tripinfo_file.xsd">
    <tripinfo id="f_0_3.0" depart="0.00" departLane="np3_nt3_0" departPos="16.89" departSpeed="0.00" departDelay="0.00" arrival="158.00" arrivalLane="nt14_np11_0" arrivalPos="75.00" arrivalSpeed="8.14" duration="158.00" routeLength="934.20" waitingTime="50.00" waitingCount="4" stopTime="0.00" timeLoss="75.23" rerouteNo="0" devices="tripinfo_f_0_3.0" vType="type1" speedFactor="0.95" vaporized=""/>
    <tripinfo id="f_0_2.0" depart="0.00" departLane="np2_nt2_0" departPos="13.73" departSpeed="0.00" departDelay="0.00" arrival="167.00" arrivalLane="nt15_np10_0" arrivalPos="75.00" arrivalSpeed="10.11" duration="167.00" routeLength="937.35" waitingTime="65.00" waitingCount="5" stopTime="0.00" timeLoss="90.47" rerouteNo="0" devices="tripinfo_f_0_2.0" vType="type1" speedFactor="1.03" vaporized=""/>
    <tripinfo id="f_0_3.1" depart="9.00" departLane="np3_nt3_0" departPos="62.35" departSpeed="0.00" departDelay="0.82" arrival="172.00" arrivalLane="nt14_np11_0" arrivalPos="75.00" arrivalSpeed="10.92" duration="163.00" routeLength="888.74" waitingTime="60.00" waitingCount="5" stopTime="0.00" timeLoss="89.75" rerouteNo="0" devices="tripinfo_f_0_3.1" vType="type1" speedFactor="1.01" vaporized=""/>
    <tripinfo id="f_0_3.2" depart="17.00" departLane="np3_nt3_0" departPos="22.79" departSpeed="0.00" departDelay="0.64" arrival="174.00" arrivalLane="nt14_np11_0" arrivalPos="75.00" arrivalSpeed="11.54" duration="157.00" routeLength="928.30" waitingTime="50.00" waitingCount="7" stopTime="0.00" timeLoss="88.66" rerouteNo="0" devices="tripinfo_f_0_3.2" vType="type1" speedFactor="1.14" vaporized=""/>
    <tripinfo id="f_0_2.1" depart="9.00" departLane="np2_nt2_0" departPos="17.57" departSpeed="0.00" departDelay="0.82" arrival="197.00" arrivalLane="nt15_np10_0" arrivalPos="75.00" arrivalSpeed="10.58" duration="188.00" routeLength="933.51" waitingTime="84.00" waitingCount="5" stopTime="0.00" timeLoss="109.22" rerouteNo="0" devices="tripinfo_f_0_2.1" vType="type1" speedFactor="0.99" vaporized=""/>
    <tripinfo id="f_0_2.2" depart="17.00" departLane="np2_nt2_0" departPos="52.61" departSpeed="0.00" departDelay="0.64" arrival="199.00" arrivalLane="nt15_np10_0" arrivalPos="75.00" arrivalSpeed="11.59" duration="182.00" routeLength="898.47" waitingTime="79.00" waitingCount="7" stopTime="0.00" timeLoss="115.60" rerouteNo="0" devices="tripinfo_f_0_2.2" vType="type1" speedFactor="1.13" vaporized=""/>
    <tripinfo id="f_0_1.0" depart="0.00" departLane="np16_nt1_0" departPos="55.83" departSpeed="0.00" departDelay="0.00" arrival="219.00" arrivalLane="nt16_np8_0" arrivalPos="75.00" arrivalSpeed="16.30" duration="219.00" routeLength="1292.05" waitingTime="73.00" waitingCount="8" stopTime="0.00" timeLoss="119.96" rerouteNo="0" devices="tripinfo_f_0_1.0" vType="type1" speedFactor="0.92" vaporized=""/>
    <tripinfo id="f_0_1.1" depart="14.00" departLane="np16_nt1_0" departPos="29.17" departSpeed="0.00" departDelay="0.36" arrival="224.00" arrivalLane="nt16_np8_0" arrivalPos="75.00" arrivalSpeed="17.70" duration="210.00" routeLength="1318.71" waitingTime="57.00" waitingCount="8" stopTime="0.00" timeLoss="109.09" rerouteNo="0" devices="tripinfo_f_0_1.1" vType="type1" speedFactor="0.91" vaporized=""/>
    <tripinfo id="f_0_3.3" depart="25.00" departLane="np3_nt3_0" departPos="30.97" departSpeed="0.00" departDelay="0.45" arrival="226.00" arrivalLane="nt14_np11_0" arrivalPos="75.00" arrivalSpeed="10.81" duration="201.00" routeLength="920.12" waitingTime="105.00" waitingCount="4" stopTime="0.00" timeLoss="132.25" rerouteNo="0" devices="tripinfo_f_0_3.3" vType="type1" speedFactor="1.13" vaporized=""/>
    <tripinfo id="f_0_0.0" depart="0.00" departLane="np13_nt13_0" departPos="52.13" departSpeed="0.00" departDelay="0.00" arrival="229.00" arrivalLane="nt4_np5_0" arrivalPos="75.00" arrivalSpeed="20.38" duration="229.00" routeLength="1295.76" waitingTime="109.00" waitingCount="5" stopTime="0.00" timeLoss="142.68" rerouteNo="0" devices="tripinfo_f_0_0.0" vType="type1" speedFactor="1.05" vaporized=""/>
    <tripinfo id="f_0_2.3" depart="25.00" departLane="np2_nt2_0" departPos="12.30" departSpeed="0.00" departDelay="0.45" arrival="235.00" arrivalLane="nt15_np10_0" arrivalPos="75.00" arrivalSpeed="8.45" duration="210.00" routeLength="938.78" waitingTime="80.00" waitingCount="8" stopTime="0.00" timeLoss="125.65" rerouteNo="0" devices="tripinfo_f_0_2.3" vType="type1" speedFactor="0.93" vaporized=""/>
    <tripinfo id="f_0_3.4" depart="33.00" departLane="np3_nt3_0" departPos="4.60" departSpeed="0.00" departDelay="0.27" arrival="236.00" arrivalLane="nt14_np11_0" arrivalPos="75.00" arrivalSpeed="11.56" duration="203.00" routeLength="946.49" waitingTime="103.00" waitingCount="7" stopTime="0.00" timeLoss="133.56" rerouteNo="0" devices="tripinfo_f_0_3.4" vType="type1" speedFactor="1.14" vaporized=""/>
    <tripinfo id="f_0_3.5" depart="41.00" departLane="np3_nt3_0" departPos="8.05" departSpeed="0.00" departDelay="0.09" arrival="238.00" arrivalLane="nt14_np11_0" arrivalPos="75.00" arrivalSpeed="10.90" duration="197.00" routeLength="943.04" waitingTime="82.00" waitingCount="8" stopTime="0.00" timeLoss="123.32" rerouteNo="0" devices="tripinfo_f_0_3.5" vType="type1" speedFactor="1.07" vaporized=""/>
    <tripinfo id="f_0_3.6" depart="50.00" departLane="np3_nt3_0" departPos="6.38" departSpeed="0.00" departDelay="0.91" arrival="246.00" arrivalLane="nt14_np11_0" arrivalPos="75.00" arrivalSpeed="10.22" duration="196.00" routeLength="944.71" waitingTime="73.00" waitingCount="9" stopTime="0.00" timeLoss="121.49" rerouteNo="0" devices="tripinfo_f_0_3.6" vType="type1" speedFactor="1.06" vaporized=""/>
    <tripinfo id="f_0_0.1" depart="14.00" departLane="np13_nt13_0" departPos="12.67" departSpeed="0.00" departDelay="0.36" arrival="248.00" arrivalLane="nt4_np5_0" arrivalPos="75.00" arrivalSpeed="14.58" duration="234.00" routeLength="1335.22" waitingTime="89.00" waitingCount="7" stopTime="0.00" timeLoss="125.80" rerouteNo="0" devices="tripinfo_f_0_0.1" vType="type1" speedFactor="0.85" vaporized=""/>
    <tripinfo id="f_0_3.7" depart="58.00" departLane="np3_nt3_0" departPos="25.39" departSpeed="0.00" departDelay="0.73" arrival="249.00" arrivalLane="nt14_np11_0" arrivalPos="75.00" arrivalSpeed="9.35" duration="191.00" routeLength="925.70" waitingTime="65.00" waitingCount="9" stopTime="0.00" timeLoss="115.74" rerouteNo="0" devices="tripinfo_f_0_3.7" vType="type1" speedFactor="1.03" vaporized=""/>
    <tripinfo id="f_0_0.2" depart="28.00" departLane="np13_nt13_0" departPos="10.83" departSpeed="0.00" departDelay="0.73" arrival="259.00" arrivalLane="nt4_np5_0" arrivalPos="75.00" arrivalSpeed="21.72" duration="231.00" routeLength="1337.06" waitingTime="91.00" waitingCount="7" stopTime="0.00" timeLoss="148.47" rerouteNo="0" devices="tripinfo_f_0_0.2" vType="type1" speedFactor="1.13" vaporized=""/>
    <tripinfo id="f_0_2.4" depart="33.00" departLane="np2_nt2_0" departPos="2.36" departSpeed="0.00" departDelay="0.27" arrival="269.00" arrivalLane="nt15_np10_0" arrivalPos="75.00" arrivalSpeed="8.80" duration="236.00" routeLength="948.72" waitingTime="96.00" waitingCount="10" stopTime="0.00" timeLoss="144.31" rerouteNo="0" devices="tripinfo_f_0_2.4" vType="type1" speedFactor="0.87" vaporized=""/>
    <tripinfo id="f_0_3.8" depart="66.00" departLane="np3_nt3_0" departPos="8.60" departSpeed="0.00" departDelay="0.54" arrival="278.00" arrivalLane="nt14_np11_0" arrivalPos="75.00" arrivalSpeed="9.55" duration="212.00" routeLength="942.49" waitingTime="73.00" waitingCount="11" stopTime="0.00" timeLoss="125.62" rerouteNo="0" devices="tripinfo_f_0_3.8" vType="type1" speedFactor="0.92" vaporized=""/>
    <tripinfo id="f_0_3.9" depart="74.00" departLane="np3_nt3_0" departPos="11.89" departSpeed="0.00" departDelay="0.36" arrival="302.00" arrivalLane="nt14_np11_0" arrivalPos="75.00" arrivalSpeed="10.09" duration="228.00" routeLength="939.20" waitingTime="85.00" waitingCount="9" stopTime="0.00" timeLoss="144.59" rerouteNo="0" devices="tripinfo_f_0_3.9" vType="type1" speedFactor="0.94" vaporized=""/>
    <tripinfo id="f_0_2.5" depart="41.00" departLane="np2_nt2_0" departPos="25.56" departSpeed="0.00" departDelay="0.09" arrival="312.00" arrivalLane="nt15_np10_0" arrivalPos="75.00" arrivalSpeed="9.11" duration="271.00" routeLength="925.52" waitingTime="128.00" waitingCount="11" stopTime="0.00" timeLoss="190.14" rerouteNo="0" devices="tripinfo_f_0_2.5" vType="type1" speedFactor="0.96" vaporized=""/>
    <tripinfo id="f_0_2.6" depart="50.00" departLane="np2_nt2_0" departPos="39.48" departSpeed="0.00" departDelay="0.91" arrival="321.00" arrivalLane="nt15_np10_0" arrivalPos="75.00" arrivalSpeed="11.37" duration="271.00" routeLength="911.60" waitingTime="141.00" waitingCount="12" stopTime="0.00" timeLoss="201.45" rerouteNo="0" devices="tripinfo_f_0_2.6" vType="type1" speedFactor="1.10" vaporized=""/>
    <tripinfo id="f_0_2.7" depart="58.00" departLane="np2_nt2_0" departPos="41.60" departSpeed="0.00" departDelay="0.73" arrival="325.00" arrivalLane="nt15_np10_0" arrivalPos="75.00" arrivalSpeed="9.08" duration="267.00" routeLength="909.48" waitingTime="127.00" waitingCount="11" stopTime="0.00" timeLoss="183.82" rerouteNo="0" devices="tripinfo_f_0_2.7" vType="type1" speedFactor="0.92" vaporized=""/>
    <tripinfo id="f_0_3.10" depart="82.00" departLane="np3_nt3_0" departPos="5.61" departSpeed="0.00" departDelay="0.18" arrival="332.00" arrivalLane="nt14_np11_0" arrivalPos="75.00" arrivalSpeed="9.49" duration="250.00" routeLength="945.48" waitingTime="121.00" waitingCount="7" stopTime="0.00" timeLoss="167.67" rerouteNo="0" devices="tripinfo_f_0_3.10" vType="type1" speedFactor="0.96" vaporized=""/>
    <tripinfo id="f_0_1.2" depart="28.00" departLane="np16_nt1_0" departPos="39.79" departSpeed="0.00" departDelay="0.73" arrival="336.00" arrivalLane="nt16_np8_0" arrivalPos="75.00" arrivalSpeed="19.75" duration="308.00" routeLength="1308.09" waitingTime="152.00" waitingCount="11" stopTime="0.00" timeLoss="223.70" rerouteNo="0" devices="tripinfo_f_0_1.2" vType="type1" speedFactor="1.08" vaporized=""/>
    <tripinfo id="f_0_0.3" depart="41.00" departLane="np13_nt13_0" departPos="64.70" departSpeed="0.00" departDelay="0.09" arrival="339.00" arrivalLane="nt4_np5_0" arrivalPos="75.00" arrivalSpeed="16.80" duration="298.00" routeLength="1283.19" waitingTime="146.00" waitingCount="5" stopTime="0.00" timeLoss="191.09" rerouteNo="0" devices="tripinfo_f_0_0.3" vType="type1" speedFactor="0.84" vaporized=""/>
    <tripinfo id="f_0_1.3" depart="41.00" departLane="np16_nt1_0" departPos="17.66" departSpeed="0.00" departDelay="0.09" arrival="348.00" arrivalLane="nt16_np8_0" arrivalPos="75.00" arrivalSpeed="22.95" duration="307.00" routeLength="1330.22" waitingTime="148.00" waitingCount="11" stopTime="0.00" timeLoss="227.48" rerouteNo="0" devices="tripinfo_f_0_1.3" vType="type1" speedFactor="1.16" vaporized=""/>
    <tripinfo id="f_0_3.11" depart="90.00" departLane="np3_nt3_0" departPos="0.00" departSpeed="0.00" departDelay="0.00" arrival="350.00" arrivalLane="nt14_np11_0" arrivalPos="75.00" arrivalSpeed="7.11" duration="260.00" routeLength="951.09" waitingTime="106.00" waitingCount="8" stopTime="0.00" timeLoss="158.58" rerouteNo="0" devices="tripinfo_f_0_3.11" vType="type1" speedFactor="0.79" vaporized=""/>
    <tripinfo id="f_0_2.8" depart="66.00" departLane="np2_nt2_0" departPos="17.45" departSpeed="0.00" departDelay="0.54" arrival="358.00" arrivalLane="nt15_np10_0" arrivalPos="75.00" arrivalSpeed="9.67" duration="292.00" routeLength="933.63" waitingTime="143.00" waitingCount="13" stopTime="0.00" timeLoss="208.91" rerouteNo="0" devices="tripinfo_f_0_2.8" vType="type1" speedFactor="0.94" vaporized=""/>
    <tripinfo id="f_0_2.9" depart="74.00" departLane="np2_nt2_0" departPos="35.78" departSpeed="0.00" departDelay="0.36" arrival="362.00" arrivalLane="nt15_np10_0" arrivalPos="75.00" arrivalSpeed="9.86" duration="288.00" routeLength="915.30" waitingTime="148.00" waitingCount="11" stopTime="0.00" timeLoss="207.96" rerouteNo="0" devices="tripinfo_f_0_2.9" vType="type1" speedFactor="0.95" vaporized=""/>
    <tripinfo id="f_0_2.10" depart="82.00" departLane="np2_nt2_0" departPos="24.05" departSpeed="0.00" departDelay="0.18" arrival="371.00" arrivalLane="nt15_np10_0" arrivalPos="75.00" arrivalSpeed="9.51" duration="289.00" routeLength="927.03" waitingTime="137.00" waitingCount="11" stopTime="0.00" timeLoss="217.24" rerouteNo="0" devices="tripinfo_f_0_2.10" vType="type1" speedFactor="1.08" vaporized=""/>
    <tripinfo id="f_0_3.12" depart="99.00" departLane="np3_nt3_0" departPos="0.00" departSpeed="0.00" departDelay="0.82" arrival="372.00" arrivalLane="nt14_np11_0" arrivalPos="75.00" arrivalSpeed="10.13" duration="273.00" routeLength="951.09" waitingTime="135.00" waitingCount="8" stopTime="0.00" timeLoss="196.67" rerouteNo="0" devices="tripinfo_f_0_3.12" vType="type1" speedFactor="1.05" vaporized=""/>
    <tripinfo id="f_0_2.11" depart="90.00" departLane="np2_nt2_0" departPos="20.31" departSpeed="0.00" departDelay="0.00" arrival="383.00" arrivalLane="nt15_np10_0" arrivalPos="75.00" arrivalSpeed="9.29" duration="293.00" routeLength="930.77" waitingTime="125.00" waitingCount="10" stopTime="0.00" timeLoss="209.81" rerouteNo="0" devices="tripinfo_f_0_2.11" vType="type1" speedFactor="0.94" vaporized=""/>
    <tripinfo id="f_0_3.13" depart="107.00" departLane="np3_nt3_0" departPos="0.74" departSpeed="0.00" departDelay="0.63" arrival="387.00" arrivalLane="nt14_np11_0" arrivalPos="75.00" arrivalSpeed="10.64" duration="280.00" routeLength="950.35" waitingTime="149.00" waitingCount="10" stopTime="0.00" timeLoss="204.80" rerouteNo="0" devices="tripinfo_f_0_3.13" vType="type1" speedFactor="1.07" vaporized=""/>
    <tripinfo id="f_0_3.14" depart="115.00" departLane="np3_nt3_0" departPos="8.46" departSpeed="0.00" departDelay="0.45" arrival="398.00" arrivalLane="nt14_np11_0" arrivalPos="75.00" arrivalSpeed="8.93" duration="283.00" routeLength="942.63" waitingTime="145.00" waitingCount="11" stopTime="0.00" timeLoss="199.63" rerouteNo="0" devices="tripinfo_f_0_3.14" vType="type1" speedFactor="0.95" vaporized=""/>
    <tripinfo id="f_0_3.15" depart="123.00" departLane="np3_nt3_0" departPos="11.68" departSpeed="0.00" departDelay="0.27" arrival="400.00" arrivalLane="nt14_np11_0" arrivalPos="75.00" arrivalSpeed="9.21" duration="277.00" routeLength="939.41" waitingTime="125.00" waitingCount="10" stopTime="0.00" timeLoss="189.03" rerouteNo="0" devices="tripinfo_f_0_3.15" vType="type1" speedFactor="0.89" vaporized=""/>
    <tripinfo id="f_0_2.12" depart="99.00" departLane="np2_nt2_0" departPos="6.32" departSpeed="0.00" departDelay="0.82" arrival="408.00" arrivalLane="nt15_np10_0" arrivalPos="75.00" arrivalSpeed="8.25" duration="309.00" routeLength="944.76" waitingTime="153.00" waitingCount="10" stopTime="0.00" timeLoss="226.62" rerouteNo="0" devices="tripinfo_f_0_2.12" vType="type1" speedFactor="0.96" vaporized=""/>
    <tripinfo id="f_0_0.4" depart="55.00" departLane="np13_nt13_0" departPos="13.62" departSpeed="0.00" departDelay="0.46" arrival="413.00" arrivalLane="nt4_np5_0" arrivalPos="75.00" arrivalSpeed="20.49" duration="358.00" routeLength="1334.27" waitingTime="216.00" waitingCount="9" stopTime="0.00" timeLoss="269.23" rerouteNo="0" devices="tripinfo_f_0_0.4" vType="type1" speedFactor="1.04" vaporized=""/>
    <tripinfo id="f_0_1.4" depart="55.00" departLane="np16_nt1_0" departPos="48.83" departSpeed="0.00" departDelay="0.46" arrival="413.00" arrivalLane="nt16_np8_0" arrivalPos="75.00" arrivalSpeed="17.86" duration="358.00" routeLength="1299.05" waitingTime="194.00" waitingCount="12" stopTime="0.00" timeLoss="267.89" rerouteNo="0" devices="tripinfo_f_0_1.4" vType="type1" speedFactor="1.01" vaporized=""/>
    <tripinfo id="f_0_1.5" depart="69.00" departLane="np16_nt1_0" departPos="27.88" departSpeed="0.00" departDelay="0.82" arrival="415.00" arrivalLane="nt16_np8_0" arrivalPos="75.00" arrivalSpeed="19.49" duration="346.00" routeLength="1320.00" waitingTime="158.00" waitingCount="12" stopTime="0.00" timeLoss="261.12" rerouteNo="0" devices="tripinfo_f_0_1.5" vType="type1" speedFactor="1.09" vaporized=""/>
    <tripinfo id="f_0_0.5" depart="69.00" departLane="np13_nt13_0" departPos="1.15" departSpeed="0.00" departDelay="0.82" arrival="416.00" arrivalLane="nt4_np5_0" arrivalPos="75.00" arrivalSpeed="15.53" duration="347.00" routeLength="1346.74" waitingTime="185.00" waitingCount="11" stopTime="0.00" timeLoss="239.12" rerouteNo="0" devices="tripinfo_f_0_0.5" vType="type1" speedFactor="0.87" vaporized=""/>
    <tripinfo id="f_0_1.6" depart="82.00" departLane="np16_nt1_0" departPos="43.05" departSpeed="0.00" departDelay="0.18" arrival="418.00" arrivalLane="nt16_np8_0" arrivalPos="75.00" arrivalSpeed="17.99" duration="336.00" routeLength="1304.83" waitingTime="153.00" waitingCount="11" stopTime="0.00" timeLoss="241.21" rerouteNo="0" devices="tripinfo_f_0_1.6" vType="type1" speedFactor="0.96" vaporized=""/>
    <tripinfo id="f_0_0.6" depart="82.00" departLane="np13_nt13_0" departPos="38.03" departSpeed="0.00" departDelay="0.18" arrival="428.00" arrivalLane="nt4_np5_0" arrivalPos="75.00" arrivalSpeed="19.95" duration="346.00" routeLength="1309.86" waitingTime="184.00" waitingCount="12" stopTime="0.00" timeLoss="259.11" rerouteNo="0" devices="tripinfo_f_0_0.6" vType="type1" speedFactor="1.05" vaporized=""/>
    <tripinfo id="f_0_3.16" depart="131.00" departLane="np3_nt3_0" departPos="0.08" departSpeed="0.00" departDelay="0.09" arrival="442.00" arrivalLane="nt14_np11_0" arrivalPos="75.00" arrivalSpeed="10.46" duration="311.00" routeLength="951.01" waitingTime="168.00" waitingCount="12" stopTime="0.00" timeLoss="233.55" rerouteNo="0" devices="tripinfo_f_0_3.16" vType="type1" speedFactor="1.03" vaporized=""/>
    <tripinfo id="f_0_3.17" depart="140.00" departLane="np3_nt3_0" departPos="9.87" departSpeed="0.00" departDelay="0.91" arrival="444.00" arrivalLane="nt14_np11_0" arrivalPos="75.00" arrivalSpeed="10.06" duration="304.00" routeLength="941.22" waitingTime="155.00" waitingCount="11" stopTime="0.00" timeLoss="230.78" rerouteNo="0" devices="tripinfo_f_0_3.17" vType="type1" speedFactor="1.08" vaporized=""/>
    <tripinfo id="f_0_3.18" depart="148.00" departLane="np3_nt3_0" departPos="2.57" departSpeed="0.00" departDelay="0.72" arrival="451.00" arrivalLane="nt14_np11_0" arrivalPos="75.00" arrivalSpeed="11.59" duration="303.00" routeLength="948.52" waitingTime="158.00" waitingCount="12" stopTime="0.00" timeLoss="231.16" rerouteNo="0" devices="tripinfo_f_0_3.18" vType="type1" speedFactor="1.10" vaporized=""/>
    <tripinfo id="f_0_0.7" depart="96.00" departLane="np13_nt13_0" departPos="18.69" departSpeed="0.00" departDelay="0.55" arrival="454.00" arrivalLane="nt4_np5_0" arrivalPos="75.00" arrivalSpeed="16.32" duration="358.00" routeLength="1329.20" waitingTime="177.00" waitingCount="13" stopTime="0.00" timeLoss="254.84" rerouteNo="0" devices="tripinfo_f_0_0.7" vType="type1" speedFactor="0.90" vaporized=""/>
    <tripinfo id="f_0_3.19" depart="156.00" departLane="np3_nt3_0" departPos="4.52" departSpeed="0.00" departDelay="0.54" arrival="458.00" arrivalLane="nt14_np11_0" arrivalPos="75.00" arrivalSpeed="7.09" duration="302.00" routeLength="946.57" waitingTime="136.00" waitingCount="11" stopTime="0.00" timeLoss="199.80" rerouteNo="0" devices="tripinfo_f_0_3.19" vType="type1" speedFactor="0.78" vaporized=""/>
    <tripinfo id="f_0_2.13" depart="107.00" departLane="np2_nt2_0" departPos="20.17" departSpeed="0.00" departDelay="0.63" arrival="462.00" arrivalLane="nt15_np10_0" arrivalPos="75.00" arrivalSpeed="9.53" duration="355.00" routeLength="930.91" waitingTime="194.00" waitingCount="14" stopTime="0.00" timeLoss="272.56" rerouteNo="0" devices="tripinfo_f_0_2.13" vType="type1" speedFactor="0.94" vaporized=""/>
    <tripinfo id="f_0_2.14" depart="115.00" departLane="np2_nt2_0" departPos="8.70" departSpeed="0.00" departDelay="0.45" arrival="464.00" arrivalLane="nt15_np10_0" arrivalPos="75.00" arrivalSpeed="8.78" duration="349.00" routeLength="942.38" waitingTime="179.00" waitingCount="14" stopTime="0.00" timeLoss="268.55" rerouteNo="0" devices="tripinfo_f_0_2.14" vType="type1" speedFactor="0.99" vaporized=""/>
    <tripinfo id="f_0_2.15" depart="123.00" departLane="np2_nt2_0" departPos="26.65" departSpeed="0.00" departDelay="0.27" arrival="466.00" arrivalLane="nt15_np10_0" arrivalPos="75.00" arrivalSpeed="9.80" duration="343.00" routeLength="924.43" waitingTime="165.00" waitingCount="12" stopTime="0.00" timeLoss="266.93" rerouteNo="0" devices="tripinfo_f_0_2.15" vType="type1" speedFactor="1.01" vaporized=""/>
    <tripinfo id="f_0_2.16" depart="131.00" departLane="np2_nt2_0" departPos="43.03" departSpeed="0.00" departDelay="0.09" arrival="469.00" arrivalLane="nt15_np10_0" arrivalPos="75.00" arrivalSpeed="8.49" duration="338.00" routeLength="908.05" waitingTime="151.00" waitingCount="12" stopTime="0.00" timeLoss="254.54" rerouteNo="0" devices="tripinfo_f_0_2.16" vType="type1" speedFactor="0.91" vaporized=""/>
    <tripinfo id="f_0_3.20" depart="164.00" departLane="np3_nt3_0" departPos="7.53" departSpeed="0.00" departDelay="0.36" arrival="472.00" arrivalLane="nt14_np11_0" arrivalPos="75.00" arrivalSpeed="10.39" duration="308.00" routeLength="943.56" waitingTime="175.00" waitingCount="8" stopTime="0.00" timeLoss="233.82" rerouteNo="0" devices="tripinfo_f_0_3.20" vType="type1" speedFactor="1.07" vaporized=""/>
    <tripinfo id="f_0_3.21" depart="172.00" departLane="np3_nt3_0" departPos="0.00" departSpeed="0.00" departDelay="0.18" arrival="474.00" arrivalLane="nt14_np11_0" arrivalPos="75.00" arrivalSpeed="9.72" duration="302.00" routeLength="951.09" waitingTime="190.00" waitingCount="7" stopTime="0.00" timeLoss="228.49" rerouteNo="0" devices="tripinfo_f_0_3.21" vType="type1" speedFactor="1.09" vaporized=""/>
    <tripinfo id="f_0_2.17" depart="140.00" departLane="np2_nt2_0" departPos="29.02" departSpeed="0.00" departDelay="0.91" arrival="502.00" arrivalLane="nt15_np10_0" arrivalPos="75.00" arrivalSpeed="10.56" duration="362.00" routeLength="922.06" waitingTime="170.00" waitingCount="13" stopTime="0.00" timeLoss="281.95" rerouteNo="0" devices="tripinfo_f_0_2.17" vType="type1" speedFactor="0.97" vaporized=""/>
    <tripinfo id="f_0_3.22" depart="192.00" departLane="np3_nt3_0" departPos="0.00" departSpeed="0.00" departDelay="12.00" arrival="502.00" arrivalLane="nt14_np11_0" arrivalPos="75.00" arrivalSpeed="12.12" duration="310.00" routeLength="951.09" waitingTime="194.00" waitingCount="9" stopTime="0.00" timeLoss="237.98" rerouteNo="0" devices="tripinfo_f_0_3.22" vType="type1" speedFactor="1.11" vaporized=""/>
    <tripinfo id="f_0_1.7" depart="96.00" departLane="np16_nt1_0" departPos="12.27" departSpeed="0.00" departDelay="0.55" arrival="504.00" arrivalLane="nt16_np8_0" arrivalPos="75.00" arrivalSpeed="17.09" duration="408.00" routeLength="1335.61" waitingTime="202.00" waitingCount="14" stopTime="0.00" timeLoss="303.85" rerouteNo="0" devices="tripinfo_f_0_1.7" vType="type1" speedFactor="0.89" vaporized=""/>
    <tripinfo id="f_0_1.8" depart="110.00" departLane="np16_nt1_0" departPos="15.72" departSpeed="0.00" departDelay="0.91" arrival="505.00" arrivalLane="nt16_np8_0" arrivalPos="75.00" arrivalSpeed="19.04" duration="395.00" routeLength="1332.16" waitingTime="179.00" waitingCount="15" stopTime="0.00" timeLoss="306.32" rerouteNo="0" devices="tripinfo_f_0_1.8" vType="type1" speedFactor="1.04" vaporized=""/>
    <tripinfo id="f_0_1.9" depart="123.00" departLane="np16_nt1_0" departPos="15.25" departSpeed="0.00" departDelay="0.28" arrival="523.00" arrivalLane="nt16_np8_0" arrivalPos="75.00" arrivalSpeed="18.80" duration="400.00" routeLength="1332.63" waitingTime="180.00" waitingCount="16" stopTime="0.00" timeLoss="309.52" rerouteNo="0" devices="tripinfo_f_0_1.9" vType="type1" speedFactor="1.02" vaporized=""/>
    <tripinfo id="f_0_1.10" depart="137.00" departLane="np16_nt1_0" departPos="27.19" departSpeed="0.00" departDelay="0.64" arrival="525.00" arrivalLane="nt16_np8_0" arrivalPos="75.00" arrivalSpeed="19.85" duration="388.00" routeLength="1320.69" waitingTime="168.00" waitingCount="13" stopTime="0.00" timeLoss="296.64" rerouteNo="0" devices="tripinfo_f_0_1.10" vType="type1" speedFactor="1.01" vaporized=""/>
    <tripinfo id="f_0_0.8" depart="110.00" departLane="np13_nt13_0" departPos="42.92" departSpeed="0.00" departDelay="0.91" arrival="533.00" arrivalLane="nt4_np5_0" arrivalPos="75.00" arrivalSpeed="17.25" duration="423.00" routeLength="1304.97" waitingTime="235.00" waitingCount="15" stopTime="0.00" timeLoss="322.73" rerouteNo="0" devices="tripinfo_f_0_0.8" vType="type1" speedFactor="0.91" vaporized=""/>
    <tripinfo id="f_0_0.9" depart="123.00" departLane="np13_nt13_0" departPos="26.16" departSpeed="0.00" departDelay="0.28" arrival="535.00" arrivalLane="nt4_np5_0" arrivalPos="75.00" arrivalSpeed="16.40" duration="412.00" routeLength="1321.73" waitingTime="228.00" waitingCount="13" stopTime="0.00" timeLoss="309.36" rerouteNo="0" devices="tripinfo_f_0_0.9" vType="type1" speedFactor="0.90" vaporized=""/>
    <tripinfo id="f_0_3.23" depart="195.00" departLane="np3_nt3_0" departPos="0.00" departSpeed="0.00" departDelay="6.81" arrival="540.00" arrivalLane="nt14_np11_0" arrivalPos="75.00" arrivalSpeed="7.62" duration="345.00" routeLength="951.09" waitingTime="190.00" waitingCount="8" stopTime="0.00" timeLoss="240.51" rerouteNo="0" devices="tripinfo_f_0_3.23" vType="type1" speedFactor="0.76" vaporized=""/>
    <tripinfo id="f_0_3.24" depart="199.00" departLane="np3_nt3_0" departPos="0.00" departSpeed="0.00" departDelay="2.63" arrival="542.00" arrivalLane="nt14_np11_0" arrivalPos="75.00" arrivalSpeed="10.39" duration="343.00" routeLength="951.09" waitingTime="194.00" waitingCount="8" stopTime="0.00" timeLoss="266.78" rerouteNo="0" devices="tripinfo_f_0_3.24" vType="type1" speedFactor="1.05" vaporized=""/>
    <tripinfo id="f_0_2.18" depart="148.00" departLane="np2_nt2_0" departPos="21.47" departSpeed="0.00" departDelay="0.72" arrival="548.00" arrivalLane="nt15_np10_0" arrivalPos="75.00" arrivalSpeed="8.95" duration="400.00" routeLength="929.61" waitingTime="191.00" waitingCount="14" stopTime="0.00" timeLoss="313.63" rerouteNo="0" devices="tripinfo_f_0_2.18" vType="type1" speedFactor="0.90" vaporized=""/>
    <tripinfo id="f_0_0.10" depart="137.00" departLane="np13_nt13_0" departPos="9.82" departSpeed="0.00" departDelay="0.64" arrival="563.00" arrivalLane="nt4_np5_0" arrivalPos="75.00" arrivalSpeed="19.46" duration="426.00" routeLength="1338.07" waitingTime="233.00" waitingCount="13" stopTime="0.00" timeLoss="335.20" rerouteNo="0" devices="tripinfo_f_0_0.10" vType="type1" speedFactor="1.02" vaporized=""/>
    <tripinfo id="f_0_0.11" depart="150.00" departLane="np13_nt13_0" departPos="33.73" departSpeed="0.00" departDelay="0.00" arrival="565.00" arrivalLane="nt4_np5_0" arrivalPos="75.00" arrivalSpeed="17.01" duration="415.00" routeLength="1314.16" waitingTime="227.00" waitingCount="11" stopTime="0.00" timeLoss="317.89" rerouteNo="0" devices="tripinfo_f_0_0.11" vType="type1" speedFactor="0.94" vaporized=""/>
    <tripinfo id="f_0_0.12" depart="164.00" departLane="np13_nt13_0" departPos="42.55" departSpeed="0.00" departDelay="0.37" arrival="567.00" arrivalLane="nt4_np5_0" arrivalPos="75.00" arrivalSpeed="19.86" duration="403.00" routeLength="1305.34" waitingTime="238.00" waitingCount="10" stopTime="0.00" timeLoss="314.78" rerouteNo="0" devices="tripinfo_f_0_0.12" vType="type1" speedFactor="1.03" vaporized=""/>
    <tripinfo id="f_0_0.13" depart="178.00" departLane="np13_nt13_0" departPos="20.30" departSpeed="0.00" departDelay="0.73" arrival="569.00" arrivalLane="nt4_np5_0" arrivalPos="75.00" arrivalSpeed="16.62" duration="391.00" routeLength="1327.59" waitingTime="217.00" waitingCount="10" stopTime="0.00" timeLoss="289.94" rerouteNo="0" devices="tripinfo_f_0_0.13" vType="type1" speedFactor="0.91" vaporized=""/>
    <tripinfo id="f_0_0.14" depart="191.00" departLane="np13_nt13_0" departPos="41.60" departSpeed="0.00" departDelay="0.10" arrival="578.00" arrivalLane="nt4_np5_0" arrivalPos="75.00" arrivalSpeed="19.76" duration="387.00" routeLength="1306.29" waitingTime="204.00" waitingCount="13" stopTime="0.00" timeLoss="304.10" rerouteNo="0" devices="tripinfo_f_0_0.14" vType="type1" speedFactor="1.10" vaporized=""/>
    <tripinfo id="f_0_0.15" depart="205.00" departLane="np13_nt13_0" departPos="18.83" departSpeed="0.00" departDelay="0.46" arrival="579.00" arrivalLane="nt4_np5_0" arrivalPos="75.00" arrivalSpeed="21.84" duration="374.00" routeLength="1329.06" waitingTime="178.00" waitingCount="12" stopTime="0.00" timeLoss="290.83" rerouteNo="0" devices="tripinfo_f_0_0.15" vType="type1" speedFactor="1.11" vaporized=""/>