<?xml version="1.0" encoding="UTF-8"?>

<!-- generated on 2023-08-23 16:36:39 by Eclipse SUMO libsumo Version 1.18.0
<configuration xmlns:xsi="http://www.w3.org/2001/XMLSchema-instance" xsi:noNamespaceSchemaLocation="http://sumo.dlr.de/xsd/libsumoConfiguration.xsd">

    <input>
        <net-file value="/home/stefan/RESCO/./environments/arterial4x4/arterial4x4.net.xml"/>
        <route-files value="/home/stefan/RESCO/./environments/arterial4x4/arterial4x4_57.rou.xml"/>
    </input>

    <output>
        <tripinfo-output value="/home/stefan/results/IDDQN-tr0-arterial4x4-0-drq_norm-wait_norm/tripinfo_57.xml"/>
        <tripinfo-output.write-unfinished value="true"/>
    </output>

    <processing>
        <time-to-teleport value="-1"/>
    </processing>

    <report>
        <no-warnings value="True"/>
        <no-step-log value="True"/>
    </report>

    <random_number>
        <random value="true"/>
    </random_number>

</configuration>
-->

<tripinfos xmlns:xsi="http://www.w3.org/2001/XMLSchema-instance" xsi:noNamespaceSchemaLocation="http://sumo.dlr.de/xsd/tripinfo_file.xsd">
    <tripinfo id="f_0_3.0" depart="0.00" departLane="np3_nt3_0" departPos="27.91" departSpeed="0.00" departDelay="0.00" arrival="146.00" arrivalLane="nt14_np11_0" arrivalPos="75.00" arrivalSpeed="11.33" duration="146.00" routeLength="923.18" waitingTime="54.00" waitingCount="5" stopTime="0.00" timeLoss="80.88" rerouteNo="0" devices="tripinfo_f_0_3.0" vType="type1" speedFactor="1.19" vaporized=""/>
    <tripinfo id="f_0_0.0" depart="0.00" departLane="np13_nt13_0" departPos="62.74" departSpeed="0.00" departDelay="0.00" arrival="149.00" arrivalLane="nt4_np5_0" arrivalPos="75.00" arrivalSpeed="20.29" duration="149.00" routeLength="1285.15" waitingTime="42.00" waitingCount="2" stopTime="0.00" timeLoss="64.35" rerouteNo="0" devices="tripinfo_f_0_0.0" vType="type1" speedFactor="1.07" vaporized=""/>
    <tripinfo id="f_0_3.1" depart="9.00" departLane="np3_nt3_0" departPos="51.59" departSpeed="0.00" departDelay="0.82" arrival="149.00" arrivalLane="nt14_np11_0" arrivalPos="75.00" arrivalSpeed="10.55" duration="140.00" routeLength="899.50" waitingTime="35.00" waitingCount="3" stopTime="0.00" timeLoss="62.26" rerouteNo="0" devices="tripinfo_f_0_3.1" vType="type1" speedFactor="0.97" vaporized=""/>
    <tripinfo id="f_0_3.2" depart="17.00" departLane="np3_nt3_0" departPos="45.25" departSpeed="0.00" departDelay="0.64" arrival="162.00" arrivalLane="nt14_np11_0" arrivalPos="75.00" arrivalSpeed="11.07" duration="145.00" routeLength="905.84" waitingTime="46.00" waitingCount="5" stopTime="0.00" timeLoss="72.68" rerouteNo="0" devices="tripinfo_f_0_3.2" vType="type1" speedFactor="1.05" vaporized=""/>
    <tripinfo id="f_0_3.3" depart="25.00" departLane="np3_nt3_0" departPos="24.88" departSpeed="0.00" departDelay="0.45" arrival="165.00" arrivalLane="nt14_np11_0" arrivalPos="75.00" arrivalSpeed="7.78" duration="140.00" routeLength="926.21" waitingTime="21.00" waitingCount="5" stopTime="0.00" timeLoss="57.06" rerouteNo="0" devices="tripinfo_f_0_3.3" vType="type1" speedFactor="0.93" vaporized=""/>
    <tripinfo id="f_0_3.4" depart="33.00" departLane="np3_nt3_0" departPos="43.45" departSpeed="0.00" departDelay="0.27" arrival="167.00" arrivalLane="nt14_np11_0" arrivalPos="75.00" arrivalSpeed="12.24" duration="134.00" routeLength="907.64" waitingTime="35.00" waitingCount="4" stopTime="0.00" timeLoss="67.65" rerouteNo="0" devices="tripinfo_f_0_3.4" vType="type1" speedFactor="1.15" vaporized=""/>
    <tripinfo id="f_0_3.5" depart="41.00" departLane="np3_nt3_0" departPos="17.80" departSpeed="0.00" departDelay="0.09" arrival="169.00" arrivalLane="nt14_np11_0" arrivalPos="75.00" arrivalSpeed="10.06" duration="128.00" routeLength="933.29" waitingTime="21.00" waitingCount="5" stopTime="0.00" timeLoss="56.42" rerouteNo="0" devices="tripinfo_f_0_3.5" vType="type1" speedFactor="1.10" vaporized=""/>
    <tripinfo id="f_0_0.1" depart="14.00" departLane="np13_nt13_0" departPos="18.73" departSpeed="0.00" departDelay="0.36" arrival="178.00" arrivalLane="nt4_np5_0" arrivalPos="75.00" arrivalSpeed="21.10" duration="164.00" routeLength="1329.16" waitingTime="44.00" waitingCount="6" stopTime="0.00" timeLoss="84.52" rerouteNo="0" devices="tripinfo_f_0_0.1" vType="type1" speedFactor="1.16" vaporized=""/>
    <tripinfo id="f_0_0.2" depart="28.00" departLane="np13_nt13_0" departPos="25.57" departSpeed="0.00" departDelay="0.73" arrival="187.00" arrivalLane="nt4_np5_0" arrivalPos="75.00" arrivalSpeed="18.50" duration="159.00" routeLength="1322.32" waitingTime="27.00" waitingCount="5" stopTime="0.00" timeLoss="65.34" rerouteNo="0" devices="tripinfo_f_0_0.2" vType="type1" speedFactor="0.98" vaporized=""/>
    <tripinfo id="f_0_2.0" depart="0.00" departLane="np2_nt2_0" departPos="42.41" departSpeed="0.00" departDelay="0.00" arrival="193.00" arrivalLane="nt15_np10_0" arrivalPos="75.00" arrivalSpeed="8.00" duration="193.00" routeLength="908.67" waitingTime="84.00" waitingCount="5" stopTime="0.00" timeLoss="111.84" rerouteNo="0" devices="tripinfo_f_0_2.0" vType="type1" speedFactor="0.94" vaporized=""/>
    <tripinfo id="f_0_2.1" depart="9.00" departLane="np2_nt2_0" departPos="3.19" departSpeed="0.00" departDelay="0.82" arrival="199.00" arrivalLane="nt15_np10_0" arrivalPos="75.00" arrivalSpeed="9.40" duration="190.00" routeLength="947.89" waitingTime="66.00" waitingCount="5" stopTime="0.00" timeLoss="96.92" rerouteNo="0" devices="tripinfo_f_0_2.1" vType="type1" speedFactor="0.86" vaporized=""/>
    <tripinfo id="f_0_1.0" depart="0.00" departLane="np16_nt1_0" departPos="41.79" departSpeed="0.00" departDelay="0.00" arrival="208.00" arrivalLane="nt16_np8_0" arrivalPos="75.00" arrivalSpeed="22.05" duration="208.00" routeLength="1306.09" waitingTime="87.00" waitingCount="6" stopTime="0.00" timeLoss="131.73" rerouteNo="0" devices="tripinfo_f_0_1.0" vType="type1" speedFactor="1.19" vaporized=""/>
    <tripinfo id="f_0_1.1" depart="14.00" departLane="np16_nt1_0" departPos="54.68" departSpeed="0.00" departDelay="0.36" arrival="210.00" arrivalLane="nt16_np8_0" arrivalPos="75.00" arrivalSpeed="20.53" duration="196.00" routeLength="1293.20" waitingTime="61.00" waitingCount="4" stopTime="0.00" timeLoss="108.45" rerouteNo="0" devices="tripinfo_f_0_1.1" vType="type1" speedFactor="1.03" vaporized=""/>
    <tripinfo id="f_0_1.2" depart="28.00" departLane="np16_nt1_0" departPos="2.66" departSpeed="0.00" departDelay="0.73" arrival="212.00" arrivalLane="nt16_np8_0" arrivalPos="75.00" arrivalSpeed="19.94" duration="184.00" routeLength="1345.22" waitingTime="48.00" waitingCount="4" stopTime="0.00" timeLoss="96.91" rerouteNo="0" devices="tripinfo_f_0_1.2" vType="type1" speedFactor="1.07" vaporized=""/>
    <tripinfo id="f_0_0.3" depart="41.00" departLane="np13_nt13_0" departPos="41.73" departSpeed="0.00" departDelay="0.09" arrival="213.00" arrivalLane="nt4_np5_0" arrivalPos="75.00" arrivalSpeed="15.56" duration="172.00" routeLength="1306.16" waitingTime="29.00" waitingCount="4" stopTime="0.00" timeLoss="68.69" rerouteNo="0" devices="tripinfo_f_0_0.3" vType="type1" speedFactor="0.88" vaporized=""/>
    <tripinfo id="f_0_0.4" depart="55.00" departLane="np13_nt13_0" departPos="18.32" departSpeed="0.00" departDelay="0.46" arrival="214.00" arrivalLane="nt4_np5_0" arrivalPos="75.00" arrivalSpeed="19.06" duration="159.00" routeLength="1329.57" waitingTime="19.00" waitingCount="3" stopTime="0.00" timeLoss="70.92" rerouteNo="0" devices="tripinfo_f_0_0.4" vType="type1" speedFactor="1.05" vaporized=""/>
    <tripinfo id="f_0_0.5" depart="69.00" departLane="np13_nt13_0" departPos="55.66" departSpeed="0.00" departDelay="0.82" arrival="216.00" arrivalLane="nt4_np5_0" arrivalPos="75.00" arrivalSpeed="22.11" duration="147.00" routeLength="1292.23" waitingTime="18.00" waitingCount="2" stopTime="0.00" timeLoss="66.73" rerouteNo="0" devices="tripinfo_f_0_0.5" vType="type1" speedFactor="1.14" vaporized=""/>
    <tripinfo id="f_0_0.6" depart="82.00" departLane="np13_nt13_0" departPos="5.25" departSpeed="0.00" departDelay="0.18" arrival="217.00" arrivalLane="nt4_np5_0" arrivalPos="75.00" arrivalSpeed="20.55" duration="135.00" routeLength="1342.64" waitingTime="21.00" waitingCount="4" stopTime="0.00" timeLoss="49.13" rerouteNo="0" devices="tripinfo_f_0_0.6" vType="type1" speedFactor="1.08" vaporized=""/>
    <tripinfo id="f_0_3.6" depart="50.00" departLane="np3_nt3_0" departPos="29.90" departSpeed="0.00" departDelay="0.91" arrival="224.00" arrivalLane="nt14_np11_0" arrivalPos="75.00" arrivalSpeed="8.23" duration="174.00" routeLength="921.19" waitingTime="52.00" waitingCount="5" stopTime="0.00" timeLoss="85.67" rerouteNo="0" devices="tripinfo_f_0_3.6" vType="type1" speedFactor="0.87" vaporized=""/>
    <tripinfo id="f_0_3.7" depart="58.00" departLane="np3_nt3_0" departPos="37.13" departSpeed="0.00" departDelay="0.73" arrival="226.00" arrivalLane="nt14_np11_0" arrivalPos="75.00" arrivalSpeed="9.49" duration="168.00" routeLength="913.96" waitingTime="48.00" waitingCount="5" stopTime="0.00" timeLoss="96.51" rerouteNo="0" devices="tripinfo_f_0_3.7" vType="type1" speedFactor="1.08" vaporized=""/>
    <tripinfo id="f_0_3.8" depart="66.00" departLane="np3_nt3_0" departPos="11.99" departSpeed="0.00" departDelay="0.54" arrival="233.00" arrivalLane="nt14_np11_0" arrivalPos="75.00" arrivalSpeed="8.25" duration="167.00" routeLength="939.10" waitingTime="45.00" waitingCount="6" stopTime="0.00" timeLoss="80.50" rerouteNo="0" devices="tripinfo_f_0_3.8" vType="type1" speedFactor="0.91" vaporized=""/>
    <tripinfo id="f_0_0.7" depart="96.00" departLane="np13_nt13_0" departPos="27.61" departSpeed="0.00" departDelay="0.55" arrival="244.00" arrivalLane="nt4_np5_0" arrivalPos="75.00" arrivalSpeed="14.91" duration="148.00" routeLength="1320.28" waitingTime="15.00" waitingCount="3" stopTime="0.00" timeLoss="40.01" rerouteNo="0" devices="tripinfo_f_0_0.7" vType="type1" speedFactor="0.85" vaporized=""/>
    <tripinfo id="f_0_0.8" depart="110.00" departLane="np13_nt13_0" departPos="28.77" departSpeed="0.00" departDelay="0.91" arrival="250.00" arrivalLane="nt4_np5_0" arrivalPos="75.00" arrivalSpeed="18.89" duration="140.00" routeLength="1319.12" waitingTime="27.00" waitingCount="4" stopTime="0.00" timeLoss="54.02" rerouteNo="0" devices="tripinfo_f_0_0.8" vType="type1" speedFactor="1.07" vaporized=""/>
    <tripinfo id="f_0_3.9" depart="74.00" departLane="np3_nt3_0" departPos="0.92" departSpeed="0.00" departDelay="0.36" arrival="253.00" arrivalLane="nt14_np11_0" arrivalPos="75.00" arrivalSpeed="9.03" duration="179.00" routeLength="950.17" waitingTime="54.00" waitingCount="7" stopTime="0.00" timeLoss="97.02" rerouteNo="0" devices="tripinfo_f_0_3.9" vType="type1" speedFactor="0.97" vaporized=""/>
    <tripinfo id="f_0_3.10" depart="82.00" departLane="np3_nt3_0" departPos="0.77" departSpeed="0.00" departDelay="0.18" arrival="255.00" arrivalLane="nt14_np11_0" arrivalPos="75.00" arrivalSpeed="9.83" duration="173.00" routeLength="950.32" waitingTime="44.00" waitingCount="7" stopTime="0.00" timeLoss="95.21" rerouteNo="0" devices="tripinfo_f_0_3.10" vType="type1" speedFactor="1.03" vaporized=""/>
    <tripinfo id="f_0_3.11" depart="90.00" departLane="np3_nt3_0" departPos="30.26" departSpeed="0.00" departDelay="0.00" arrival="257.00" arrivalLane="nt14_np11_0" arrivalPos="75.00" arrivalSpeed="9.24" duration="167.00" routeLength="920.83" waitingTime="32.00" waitingCount="6" stopTime="0.00" timeLoss="89.02" rerouteNo="0" devices="tripinfo_f_0_3.11" vType="type1" speedFactor="1.00" vaporized=""/>
    <tripinfo id="f_0_3.12" depart="99.00" departLane="np3_nt3_0" departPos="56.96" departSpeed="0.00" departDelay="0.82" arrival="259.00" arrivalLane="nt14_np11_0" arrivalPos="75.00" arrivalSpeed="11.34" duration="160.00" routeLength="894.13" waitingTime="34.00" waitingCount="5" stopTime="0.00" timeLoss="96.82" rerouteNo="0" devices="tripinfo_f_0_3.12" vType="type1" speedFactor="1.19" vaporized=""/>
    <tripinfo id="f_0_3.13" depart="107.00" departLane="np3_nt3_0" departPos="3.49" departSpeed="0.00" departDelay="0.63" arrival="262.00" arrivalLane="nt14_np11_0" arrivalPos="75.00" arrivalSpeed="8.66" duration="155.00" routeLength="947.60" waitingTime="29.00" waitingCount="3" stopTime="0.00" timeLoss="68.03" rerouteNo="0" devices="tripinfo_f_0_3.13" vType="type1" speedFactor="0.91" vaporized=""/>
    <tripinfo id="f_0_2.2" depart="17.00" departLane="np2_nt2_0" departPos="8.74" departSpeed="0.00" departDelay="0.64" arrival="263.00" arrivalLane="nt15_np10_0" arrivalPos="75.00" arrivalSpeed="8.60" duration="246.00" routeLength="942.34" waitingTime="116.00" waitingCount="7" stopTime="0.00" timeLoss="158.34" rerouteNo="0" devices="tripinfo_f_0_2.2" vType="type1" speedFactor="0.91" vaporized=""/>
    <tripinfo id="f_0_3.14" depart="115.00" departLane="np3_nt3_0" departPos="24.99" departSpeed="0.00" departDelay="0.45" arrival="264.00" arrivalLane="nt14_np11_0" arrivalPos="75.00" arrivalSpeed="11.16" duration="149.00" routeLength="926.10" waitingTime="25.00" waitingCount="4" stopTime="0.00" timeLoss="75.31" rerouteNo="0" devices="tripinfo_f_0_3.14" vType="type1" speedFactor="1.05" vaporized=""/>
    <tripinfo id="f_0_2.3" depart="25.00" departLane="np2_nt2_0" departPos="30.62" departSpeed="0.00" departDelay="0.45" arrival="265.00" arrivalLane="nt15_np10_0" arrivalPos="75.00" arrivalSpeed="9.98" duration="240.00" routeLength="920.46" waitingTime="110.00" waitingCount="7" stopTime="0.00" timeLoss="169.62" rerouteNo="0" devices="tripinfo_f_0_2.3" vType="type1" speedFactor="1.10" vaporized=""/>
    <tripinfo id="f_0_2.4" depart="33.00" departLane="np2_nt2_0" departPos="22.36" departSpeed="0.00" departDelay="0.27" arrival="273.00" arrivalLane="nt15_np10_0" arrivalPos="75.00" arrivalSpeed="9.69" duration="240.00" routeLength="928.72" waitingTime="94.00" waitingCount="7" stopTime="0.00" timeLoss="160.21" rerouteNo="0" devices="tripinfo_f_0_2.4" vType="type1" speedFactor="0.99" vaporized=""/>
    <tripinfo id="f_0_2.5" depart="41.00" departLane="np2_nt2_0" departPos="15.74" departSpeed="0.00" departDelay="0.09" arrival="276.00" arrivalLane="nt15_np10_0" arrivalPos="75.00" arrivalSpeed="9.41" duration="235.00" routeLength="935.34" waitingTime="95.00" waitingCount="9" stopTime="0.00" timeLoss="148.81" rerouteNo="0" devices="tripinfo_f_0_2.5" vType="type1" speedFactor="0.92" vaporized=""/>
    <tripinfo id="f_0_3.15" depart="123.00" departLane="np3_nt3_0" departPos="11.30" departSpeed="0.00" departDelay="0.27" arrival="277.00" arrivalLane="nt14_np11_0" arrivalPos="75.00" arrivalSpeed="10.18" duration="154.00" routeLength="939.79" waitingTime="29.00" waitingCount="5" stopTime="0.00" timeLoss="70.60" rerouteNo="0" devices="tripinfo_f_0_3.15" vType="type1" speedFactor="0.94" vaporized=""/>
    <tripinfo id="f_0_2.6" depart="50.00" departLane="np2_nt2_0" departPos="11.80" departSpeed="0.00" departDelay="0.91" arrival="278.00" arrivalLane="nt15_np10_0" arrivalPos="75.00" arrivalSpeed="8.46" duration="228.00" routeLength="939.28" waitingTime="89.00" waitingCount="7" stopTime="0.00" timeLoss="143.46" rerouteNo="0" devices="tripinfo_f_0_2.6" vType="type1" speedFactor="0.94" vaporized=""/>
    <tripinfo id="f_0_2.7" depart="58.00" departLane="np2_nt2_0" departPos="27.59" departSpeed="0.00" departDelay="0.73" arrival="279.00" arrivalLane="nt15_np10_0" arrivalPos="75.00" arrivalSpeed="10.48" duration="221.00" routeLength="923.49" waitingTime="88.00" waitingCount="7" stopTime="0.00" timeLoss="142.89" rerouteNo="0" devices="tripinfo_f_0_2.7" vType="type1" speedFactor="0.99" vaporized=""/>
    <tripinfo id="f_0_3.16" depart="131.00" departLane="np3_nt3_0" departPos="16.19" departSpeed="0.00" departDelay="0.09" arrival="280.00" arrivalLane="nt14_np11_0" arrivalPos="75.00" arrivalSpeed="8.81" duration="149.00" routeLength="934.90" waitingTime="41.00" waitingCount="4" stopTime="0.00" timeLoss="70.22" rerouteNo="0" devices="tripinfo_f_0_3.16" vType="type1" speedFactor="1.00" vaporized=""/>
    <tripinfo id="f_0_3.17" depart="140.00" departLane="np3_nt3_0" departPos="46.51" departSpeed="0.00" departDelay="0.91" arrival="286.00" arrivalLane="nt14_np11_0" arrivalPos="75.00" arrivalSpeed="11.35" duration="146.00" routeLength="904.58" waitingTime="36.00" waitingCount="5" stopTime="0.00" timeLoss="82.16" rerouteNo="0" devices="tripinfo_f_0_3.17" vType="type1" speedFactor="1.19" vaporized=""/>
    <tripinfo id="f_0_1.3" depart="41.00" departLane="np16_nt1_0" departPos="39.89" departSpeed="0.00" departDelay="0.09" arrival="287.00" arrivalLane="nt16_np8_0" arrivalPos="75.00" arrivalSpeed="21.74" duration="246.00" routeLength="1307.99" waitingTime="94.00" waitingCount="9" stopTime="0.00" timeLoss="162.30" rerouteNo="0" devices="tripinfo_f_0_1.3" vType="type1" speedFactor="1.10" vaporized=""/>
    <tripinfo id="f_0_3.18" depart="148.00" departLane="np3_nt3_0" departPos="0.26" departSpeed="0.00" departDelay="0.72" arrival="288.00" arrivalLane="nt14_np11_0" arrivalPos="75.00" arrivalSpeed="10.52" duration="140.00" routeLength="950.83" waitingTime="21.00" waitingCount="6" stopTime="0.00" timeLoss="65.67" rerouteNo="0" devices="tripinfo_f_0_3.18" vType="type1" speedFactor="1.07" vaporized=""/>
    <tripinfo id="f_0_2.8" depart="66.00" departLane="np2_nt2_0" departPos="30.01" departSpeed="0.00" departDelay="0.54" arrival="290.00" arrivalLane="nt15_np10_0" arrivalPos="75.00" arrivalSpeed="9.82" duration="224.00" routeLength="921.07" waitingTime="56.00" waitingCount="12" stopTime="0.00" timeLoss="148.52" rerouteNo="0" devices="tripinfo_f_0_2.8" vType="type1" speedFactor="1.02" vaporized=""/>
    <tripinfo id="f_0_2.9" depart="74.00" departLane="np2_nt2_0" departPos="24.50" departSpeed="0.00" departDelay="0.36" arrival="292.00" arrivalLane="nt15_np10_0" arrivalPos="75.00" arrivalSpeed="10.04" duration="218.00" routeLength="926.58" waitingTime="44.00" waitingCount="9" stopTime="0.00" timeLoss="144.97" rerouteNo="0" devices="tripinfo_f_0_2.9" vType="type1" speedFactor="1.06" vaporized=""/>
    <tripinfo id="f_0_2.10" depart="82.00" departLane="np2_nt2_0" departPos="35.33" departSpeed="0.00" departDelay="0.18" arrival="295.00" arrivalLane="nt15_np10_0" arrivalPos="75.00" arrivalSpeed="9.95" duration="213.00" routeLength="915.75" waitingTime="48.00" waitingCount="10" stopTime="0.00" timeLoss="131.25" rerouteNo="0" devices="tripinfo_f_0_2.10" vType="type1" speedFactor="0.94" vaporized=""/>
    <tripinfo id="f_0_1.4" depart="55.00" departLane="np16_nt1_0" departPos="13.87" departSpeed="0.00" departDelay="0.46" arrival="299.00" arrivalLane="nt16_np8_0" arrivalPos="75.00" arrivalSpeed="18.03" duration="244.00" routeLength="1334.01" waitingTime="76.00" waitingCount="9" stopTime="0.00" timeLoss="151.47" rerouteNo="0" devices="tripinfo_f_0_1.4" vType="type1" speedFactor="1.01" vaporized=""/>
    <tripinfo id="f_0_2.11" depart="90.00" departLane="np2_nt2_0" departPos="37.55" departSpeed="0.00" departDelay="0.00" arrival="299.00" arrivalLane="nt15_np10_0" arrivalPos="75.00" arrivalSpeed="9.15" duration="209.00" routeLength="913.53" waitingTime="32.00" waitingCount="6" stopTime="0.00" timeLoss="130.92" rerouteNo="0" devices="tripinfo_f_0_2.11" vType="type1" speedFactor="0.98" vaporized=""/>
    <tripinfo id="f_0_1.5" depart="69.00" departLane="np16_nt1_0" departPos="48.41" departSpeed="0.00" departDelay="0.82" arrival="301.00" arrivalLane="nt16_np8_0" arrivalPos="75.00" arrivalSpeed="14.50" duration="232.00" routeLength="1299.47" waitingTime="59.00" waitingCount="9" stopTime="0.00" timeLoss="123.55" rerouteNo="0" devices="tripinfo_f_0_1.5" vType="type1" speedFactor="0.84" vaporized=""/>
    <tripinfo id="f_0_0.9" depart="123.00" departLane="np13_nt13_0" departPos="37.32" departSpeed="0.00" departDelay="0.28" arrival="303.00" arrivalLane="nt4_np5_0" arrivalPos="75.00" arrivalSpeed="18.03" duration="180.00" routeLength="1310.57" waitingTime="45.00" waitingCount="5" stopTime="0.00" timeLoss="81.33" rerouteNo="0" devices="tripinfo_f_0_0.9" vType="type1" speedFactor="0.92" vaporized=""/>
    <tripinfo id="f_0_1.6" depart="82.00" departLane="np16_nt1_0" departPos="10.29" departSpeed="0.00" departDelay="0.18" arrival="304.00" arrivalLane="nt16_np8_0" arrivalPos="75.00" arrivalSpeed="18.98" duration="222.00" routeLength="1337.59" waitingTime="36.00" waitingCount="7" stopTime="0.00" timeLoss="130.36" rerouteNo="0" devices="tripinfo_f_0_1.6" vType="type1" speedFactor="1.02" vaporized=""/>
    <tripinfo id="f_0_0.10" depart="137.00" departLane="np13_nt13_0" departPos="35.79" departSpeed="0.00" departDelay="0.64" arrival="305.00" arrivalLane="nt4_np5_0" arrivalPos="75.00" arrivalSpeed="19.78" duration="168.00" routeLength="1312.10" waitingTime="45.00" waitingCount="6" stopTime="0.00" timeLoss="84.31" rerouteNo="0" devices="tripinfo_f_0_0.10" vType="type1" speedFactor="1.09" vaporized=""/>
    <tripinfo id="f_0_2.12" depart="99.00" departLane="np2_nt2_0" departPos="1.67" departSpeed="0.00" departDelay="0.82" arrival="307.00" arrivalLane="nt15_np10_0" arrivalPos="75.00" arrivalSpeed="10.10" duration="208.00" routeLength="949.41" waitingTime="34.00" waitingCount="6" stopTime="0.00" timeLoss="128.27" rerouteNo="0" devices="tripinfo_f_0_2.12" vType="type1" speedFactor="1.00" vaporized=""/>
    <tripinfo id="f_0_2.13" depart="107.00" departLane="np2_nt2_0" departPos="33.90" departSpeed="0.00" departDelay="0.63" arrival="313.00" arrivalLane="nt15_np10_0" arrivalPos="75.00" arrivalSpeed="11.55" duration="206.00" routeLength="917.18" waitingTime="52.00" waitingCount="7" stopTime="0.00" timeLoss="138.28" rerouteNo="0" devices="tripinfo_f_0_2.13" vType="type1" speedFactor="1.13" vaporized=""/>
    <tripinfo id="f_0_3.19" depart="156.00" departLane="np3_nt3_0" departPos="35.40" departSpeed="0.00" departDelay="0.54" arrival="316.00" arrivalLane="nt14_np11_0" arrivalPos="75.00" arrivalSpeed="11.70" duration="160.00" routeLength="915.69" waitingTime="44.00" waitingCount="6" stopTime="0.00" timeLoss="91.71" rerouteNo="0" devices="tripinfo_f_0_3.19" vType="type1" speedFactor="1.13" vaporized=""/>
    <tripinfo id="f_0_1.7" depart="96.00" departLane="np16_nt1_0" departPos="62.08" departSpeed="0.00" departDelay="0.55" arrival="318.00" arrivalLane="nt16_np8_0" arrivalPos="75.00" arrivalSpeed="17.79" duration="222.00" routeLength="1285.80" waitingTime="36.00" waitingCount="5" stopTime="0.00" timeLoss="129.66" rerouteNo="0" devices="tripinfo_f_0_1.7" vType="type1" speedFactor="0.99" vaporized=""/>
    <tripinfo id="f_0_1.8" depart="110.00" departLane="np16_nt1_0" departPos="8.27" departSpeed="0.00" departDelay="0.91" arrival="319.00" arrivalLane="nt16_np8_0" arrivalPos="75.00" arrivalSpeed="20.07" duration="209.00" routeLength="1339.61" waitingTime="23.00" waitingCount="4" stopTime="0.00" timeLoss="118.81" rerouteNo="0" devices="tripinfo_f_0_1.8" vType="type1" speedFactor="1.03" vaporized=""/>
    <tripinfo id="f_0_3.20" depart="164.00" departLane="np3_nt3_0" departPos="44.72" departSpeed="0.00" departDelay="0.36" arrival="319.00" arrivalLane="nt14_np11_0" arrivalPos="75.00" arrivalSpeed="10.68" duration="155.00" routeLength="906.37" waitingTime="51.00" waitingCount="5" stopTime="0.00" timeLoss="77.88" rerouteNo="0" devices="tripinfo_f_0_3.20" vType="type1" speedFactor="0.98" vaporized=""/>
    <tripinfo id="f_0_2.14" depart="115.00" departLane="np2_nt2_0" departPos="13.32" departSpeed="0.00" departDelay="0.45" arrival="322.00" arrivalLane="nt15_np10_0" arrivalPos="75.00" arrivalSpeed="10.94" duration="207.00" routeLength="937.76" waitingTime="40.00" waitingCount="5" stopTime="0.00" timeLoss="133.57" rerouteNo="0" devices="tripinfo_f_0_2.14" vType="type1" speedFactor="1.07" vaporized=""/>
    <tripinfo id="f_0_2.15" depart="123.00" departLane="np2_nt2_0" departPos="46.20" departSpeed="0.00" departDelay="0.27" arrival="324.00" arrivalLane="nt15_np10_0" arrivalPos="75.00" arrivalSpeed="11.79" duration="201.00" routeLength="904.88" waitingTime="51.00" waitingCount="6" stopTime="0.00" timeLoss="135.82" rerouteNo="0" devices="tripinfo_f_0_2.15" vType="type1" speedFactor="1.18" vaporized=""/>
    <tripinfo id="f_0_0.11" depart="150.00" departLane="np13_nt13_0" departPos="53.14" departSpeed="0.00" departDelay="0.00" arrival="330.00" arrivalLane="nt4_np5_0" arrivalPos="75.00" arrivalSpeed="19.64" duration="180.00" routeLength="1294.75" waitingTime="63.00" waitingCount="5" stopTime="0.00" timeLoss="91.99" rerouteNo="0" devices="tripinfo_f_0_0.11" vType="type1" speedFactor="1.03" vaporized=""/>
    <tripinfo id="f_0_2.16" depart="131.00" departLane="np2_nt2_0" departPos="8.17" departSpeed="0.00" departDelay="0.09" arrival="332.00" arrivalLane="nt15_np10_0" arrivalPos="75.00" arrivalSpeed="8.67" duration="201.00" routeLength="942.91" waitingTime="53.00" waitingCount="5" stopTime="0.00" timeLoss="105.13" rerouteNo="0" devices="tripinfo_f_0_2.16" vType="type1" speedFactor="0.83" vaporized=""/>
    <tripinfo id="f_0_3.21" depart="172.00" departLane="np3_nt3_0" departPos="8.54" departSpeed="0.00" departDelay="0.18" arrival="332.00" arrivalLane="nt14_np11_0" arrivalPos="75.00" arrivalSpeed="10.22" duration="160.00" routeLength="942.55" waitingTime="45.00" waitingCount="5" stopTime="0.00" timeLoss="79.12" rerouteNo="0" devices="tripinfo_f_0_3.21" vType="type1" speedFactor="0.98" vaporized=""/>
    <tripinfo id="f_0_1.9" depart="123.00" departLane="np16_nt1_0" departPos="21.34" departSpeed="0.00" departDelay="0.28" arrival="334.00" arrivalLane="nt16_np8_0" arrivalPos="75.00" arrivalSpeed="20.76" duration="211.00" routeLength="1326.54" waitingTime="58.00" waitingCount="5" stopTime="0.00" timeLoss="122.87" rerouteNo="0" devices="tripinfo_f_0_1.9" vType="type1" speedFactor="1.05" vaporized=""/>
    <tripinfo id="f_0_2.17" depart="140.00" departLane="np2_nt2_0" departPos="12.57" departSpeed="0.00" departDelay="0.91" arrival="334.00" arrivalLane="nt15_np10_0" arrivalPos="75.00" arrivalSpeed="11.83" duration="194.00" routeLength="938.51" waitingTime="63.00" waitingCount="5" stopTime="0.00" timeLoss="124.49" rerouteNo="0" devices="tripinfo_f_0_2.17" vType="type1" speedFactor="1.14" vaporized=""/>
    <tripinfo id="f_0_3.22" depart="180.00" departLane="np3_nt3_0" departPos="6.87" departSpeed="0.00" departDelay="0.00" arrival="335.00" arrivalLane="nt14_np11_0" arrivalPos="75.00" arrivalSpeed="8.03" duration="155.00" routeLength="944.22" waitingTime="30.00" waitingCount="6" stopTime="0.00" timeLoss="68.97" rerouteNo="0" devices="tripinfo_f_0_3.22" vType="type1" speedFactor="0.92" vaporized=""/>
    <tripinfo id="f_0_2.18" depart="148.00" departLane="np2_nt2_0" departPos="39.45" departSpeed="0.00" departDelay="0.72" arrival="336.00" arrivalLane="nt15_np10_0" arrivalPos="75.00" arrivalSpeed="11.01" duration="188.00" routeLength="911.63" waitingTime="61.00" waitingCount="6" stopTime="0.00" timeLoss="122.42" rerouteNo="0" devices="tripinfo_f_0_2.18" vType="type1" speedFactor="1.17" vaporized=""/>
    <tripinfo id="f_0_3.23" depart="189.00" departLane="np3_nt3_0" departPos="32.20" departSpeed="0.00" departDelay="0.81" arrival="337.00" arrivalLane="nt14_np11_0" arrivalPos="75.00" arrivalSpeed="9.40" duration="148.00" routeLength="918.89" waitingTime="19.00" waitingCount="5" stopTime="0.00" timeLoss="63.75" rerouteNo="0" devices="tripinfo_f_0_3.23" vType="type1" speedFactor="0.91" vaporized=""/>
    <tripinfo id="f_0_3.24" depart="197.00" departLane="np3_nt3_0" departPos="2.36" departSpeed="0.00" departDelay="0.63" arrival="339.00" arrivalLane="nt14_np11_0" arrivalPos="75.00" arrivalSpeed="9.59" duration="142.00" routeLength="948.73" waitingTime="29.00" waitingCount="3" stopTime="0.00" timeLoss="58.03" rerouteNo="0" devices="tripinfo_f_0_3.24" vType="type1" speedFactor="0.95" vaporized=""/>
    <tripinfo id="f_0_3.25" depart="205.00" departLane="np3_nt3_0" departPos="4.22" departSpeed="0.00" departDelay="0.45" arrival="342.00" arrivalLane="nt14_np11_0" arrivalPos="75.00" arrivalSpeed="9.04" duration="137.00" routeLength="946.87" waitingTime="34.00" waitingCount="5" stopTime="0.00" timeLoss="60.61" rerouteNo="0" devices="tripinfo_f_0_3.25" vType="type1" speedFactor="1.04" vaporized=""/>
    <tripinfo id="f_0_3.26" depart="213.00" departLane="np3_nt3_0" departPos="30.44" departSpeed="0.00" departDelay="0.27" arrival="346.00" arrivalLane="nt14_np11_0" arrivalPos="75.00" arrivalSpeed="8.90" duration="133.00" routeLength="920.65" waitingTime="24.00" waitingCount="5" stopTime="0.00" timeLoss="54.22" rerouteNo="0" devices="tripinfo_f_0_3.26" vType="type1" speedFactor="0.98" vaporized=""/>
    <tripinfo id="f_0_0.12" depart="164.00" departLane="np13_nt13_0" departPos="36.48" departSpeed="0.00" departDelay="0.37" arrival="347.00" arrivalLane="nt4_np5_0" arrivalPos="75.00" arrivalSpeed="18.67" duration="183.00" routeLength="1311.41" waitingTime="46.00" waitingCount="5" stopTime="0.00" timeLoss="85.35" rerouteNo="0" devices="tripinfo_f_0_0.12" vType="type1" speedFactor="0.94" vaporized=""/>
    <tripinfo id="f_0_0.13" depart="178.00" departLane="np13_nt13_0" departPos="23.52" departSpeed="0.00" departDelay="0.73" arrival="350.00" arrivalLane="nt4_np5_0" arrivalPos="75.00" arrivalSpeed="17.32" duration="172.00" routeLength="1324.37" waitingTime="28.00" waitingCount="5" stopTime="0.00" timeLoss="69.19" rerouteNo="0" devices="tripinfo_f_0_0.13" vType="type1" speedFactor="0.89" vaporized=""/>
    <tripinfo id="f_0_2.19" depart="156.00" departLane="np2_nt2_0" departPos="16.18" departSpeed="0.00" departDelay="0.54" arrival="356.00" arrivalLane="nt15_np10_0" arrivalPos="75.00" arrivalSpeed="11.78" duration="200.00" routeLength="934.90" waitingTime="85.00" waitingCount="8" stopTime="0.00" timeLoss="128.52" rerouteNo="0" devices="tripinfo_f_0_2.19" vType="type1" speedFactor="1.09" vaporized=""/>