<?xml version="1.0" encoding="UTF-8"?>

<!-- generated on 2023-08-23 16:15:53 by Eclipse SUMO libsumo Version 1.18.0
<configuration xmlns:xsi="http://www.w3.org/2001/XMLSchema-instance" xsi:noNamespaceSchemaLocation="http://sumo.dlr.de/xsd/libsumoConfiguration.xsd">

    <input>
        <net-file value="/home/stefan/RESCO/./environments/arterial4x4/arterial4x4.net.xml"/>
        <route-files value="/home/stefan/RESCO/./environments/arterial4x4/arterial4x4_32.rou.xml"/>
    </input>

    <output>
        <tripinfo-output value="/home/stefan/results/IDDQN-tr0-arterial4x4-0-drq_norm-wait_norm/tripinfo_32.xml"/>
        <tripinfo-output.write-unfinished value="true"/>
    </output>

    <processing>
        <time-to-teleport value="-1"/>
    </processing>

    <report>
        <no-warnings value="True"/>
        <no-step-log value="True"/>
    </report>

    <random_number>
        <random value="true"/>
    </random_number>

</configuration>
-->

<tripinfos xmlns:xsi="http://www.w3.org/2001/XMLSchema-instance" xsi:noNamespaceSchemaLocation="http://sumo.dlr.de/xsd/tripinfo_file.xsd">
    <tripinfo id="f_0_2.0" depart="0.00" departLane="np2_nt2_0" departPos="39.09" departSpeed="0.00" departDelay="0.00" arrival="94.00" arrivalLane="nt15_np10_0" arrivalPos="75.00" arrivalSpeed="10.43" duration="94.00" routeLength="911.99" waitingTime="0.00" waitingCount="0" stopTime="0.00" timeLoss="18.49" rerouteNo="0" devices="tripinfo_f_0_2.0" vType="type1" speedFactor="1.01" vaporized=""/>
    <tripinfo id="f_0_3.0" depart="0.00" departLane="np3_nt3_0" departPos="35.29" departSpeed="0.00" departDelay="0.00" arrival="150.00" arrivalLane="nt14_np11_0" arrivalPos="75.00" arrivalSpeed="7.20" duration="150.00" routeLength="915.80" waitingTime="32.00" waitingCount="4" stopTime="0.00" timeLoss="58.98" rerouteNo="0" devices="tripinfo_f_0_3.0" vType="type1" speedFactor="0.84" vaporized=""/>
    <tripinfo id="f_0_2.1" depart="9.00" departLane="np2_nt2_0" departPos="51.94" departSpeed="0.00" departDelay="0.82" arrival="152.00" arrivalLane="nt15_np10_0" arrivalPos="75.00" arrivalSpeed="10.67" duration="143.00" routeLength="899.14" waitingTime="48.00" waitingCount="3" stopTime="0.00" timeLoss="70.63" rerouteNo="0" devices="tripinfo_f_0_2.1" vType="type1" speedFactor="1.04" vaporized=""/>
    <tripinfo id="f_0_3.1" depart="9.00" departLane="np3_nt3_0" departPos="33.27" departSpeed="0.00" departDelay="0.82" arrival="152.00" arrivalLane="nt14_np11_0" arrivalPos="75.00" arrivalSpeed="10.18" duration="143.00" routeLength="917.82" waitingTime="33.00" waitingCount="3" stopTime="0.00" timeLoss="67.85" rerouteNo="0" devices="tripinfo_f_0_3.1" vType="type1" speedFactor="1.03" vaporized=""/>
    <tripinfo id="f_0_3.2" depart="17.00" departLane="np3_nt3_0" departPos="35.06" departSpeed="0.00" departDelay="0.64" arrival="157.00" arrivalLane="nt14_np11_0" arrivalPos="75.00" arrivalSpeed="8.85" duration="140.00" routeLength="916.03" waitingTime="34.00" waitingCount="5" stopTime="0.00" timeLoss="64.83" rerouteNo="0" devices="tripinfo_f_0_3.2" vType="type1" speedFactor="1.02" vaporized=""/>
    <tripinfo id="f_0_3.3" depart="25.00" departLane="np3_nt3_0" departPos="20.17" departSpeed="0.00" departDelay="0.45" arrival="159.00" arrivalLane="nt14_np11_0" arrivalPos="75.00" arrivalSpeed="10.41" duration="134.00" routeLength="930.92" waitingTime="25.00" waitingCount="4" stopTime="0.00" timeLoss="60.24" rerouteNo="0" devices="tripinfo_f_0_3.3" vType="type1" speedFactor="1.06" vaporized=""/>
    <tripinfo id="f_0_3.4" depart="33.00" departLane="np3_nt3_0" departPos="47.39" departSpeed="0.00" departDelay="0.27" arrival="161.00" arrivalLane="nt14_np11_0" arrivalPos="75.00" arrivalSpeed="10.61" duration="128.00" routeLength="903.70" waitingTime="22.00" waitingCount="5" stopTime="0.00" timeLoss="57.19" rerouteNo="0" devices="tripinfo_f_0_3.4" vType="type1" speedFactor="1.07" vaporized=""/>
    <tripinfo id="f_0_3.5" depart="41.00" departLane="np3_nt3_0" departPos="30.37" departSpeed="0.00" departDelay="0.09" arrival="163.00" arrivalLane="nt14_np11_0" arrivalPos="75.00" arrivalSpeed="10.84" duration="122.00" routeLength="920.72" waitingTime="17.00" waitingCount="4" stopTime="0.00" timeLoss="54.43" rerouteNo="0" devices="tripinfo_f_0_3.5" vType="type1" speedFactor="1.15" vaporized=""/>
    <tripinfo id="f_0_0.0" depart="0.00" departLane="np13_nt13_0" departPos="24.89" departSpeed="0.00" departDelay="0.00" arrival="189.00" arrivalLane="nt4_np5_0" arrivalPos="75.00" arrivalSpeed="16.13" duration="189.00" routeLength="1323.00" waitingTime="50.00" waitingCount="4" stopTime="0.00" timeLoss="87.03" rerouteNo="0" devices="tripinfo_f_0_0.0" vType="type1" speedFactor="0.91" vaporized=""/>
    <tripinfo id="f_0_3.6" depart="50.00" departLane="np3_nt3_0" departPos="48.66" departSpeed="0.00" departDelay="0.91" arrival="192.00" arrivalLane="nt14_np11_0" arrivalPos="75.00" arrivalSpeed="10.76" duration="142.00" routeLength="902.43" waitingTime="37.00" waitingCount="4" stopTime="0.00" timeLoss="70.67" rerouteNo="0" devices="tripinfo_f_0_3.6" vType="type1" speedFactor="1.06" vaporized=""/>
    <tripinfo id="f_0_0.1" depart="14.00" departLane="np13_nt13_0" departPos="47.80" departSpeed="0.00" departDelay="0.36" arrival="199.00" arrivalLane="nt4_np5_0" arrivalPos="75.00" arrivalSpeed="20.74" duration="185.00" routeLength="1300.09" waitingTime="59.00" waitingCount="5" stopTime="0.00" timeLoss="100.38" rerouteNo="0" devices="tripinfo_f_0_0.1" vType="type1" speedFactor="1.07" vaporized=""/>
    <tripinfo id="f_0_0.2" depart="28.00" departLane="np13_nt13_0" departPos="56.42" departSpeed="0.00" departDelay="0.73" arrival="205.00" arrivalLane="nt4_np5_0" arrivalPos="75.00" arrivalSpeed="15.77" duration="177.00" routeLength="1291.47" waitingTime="39.00" waitingCount="5" stopTime="0.00" timeLoss="75.31" rerouteNo="0" devices="tripinfo_f_0_0.2" vType="type1" speedFactor="0.89" vaporized=""/>
    <tripinfo id="f_0_0.3" depart="41.00" departLane="np13_nt13_0" departPos="58.01" departSpeed="0.00" departDelay="0.09" arrival="207.00" arrivalLane="nt4_np5_0" arrivalPos="75.00" arrivalSpeed="17.45" duration="166.00" routeLength="1289.88" waitingTime="31.00" waitingCount="4" stopTime="0.00" timeLoss="68.39" rerouteNo="0" devices="tripinfo_f_0_0.3" vType="type1" speedFactor="0.93" vaporized=""/>
    <tripinfo id="f_0_0.4" depart="55.00" departLane="np13_nt13_0" departPos="41.29" departSpeed="0.00" departDelay="0.46" arrival="208.00" arrivalLane="nt4_np5_0" arrivalPos="75.00" arrivalSpeed="20.35" duration="153.00" routeLength="1306.60" waitingTime="27.00" waitingCount="4" stopTime="0.00" timeLoss="68.23" rerouteNo="0" devices="tripinfo_f_0_0.4" vType="type1" speedFactor="1.08" vaporized=""/>
    <tripinfo id="f_0_3.7" depart="58.00" departLane="np3_nt3_0" departPos="16.94" departSpeed="0.00" departDelay="0.73" arrival="209.00" arrivalLane="nt14_np11_0" arrivalPos="75.00" arrivalSpeed="7.66" duration="151.00" routeLength="934.15" waitingTime="24.00" waitingCount="5" stopTime="0.00" timeLoss="59.21" rerouteNo="0" devices="tripinfo_f_0_3.7" vType="type1" speedFactor="0.85" vaporized=""/>
    <tripinfo id="f_0_3.8" depart="66.00" departLane="np3_nt3_0" departPos="19.90" departSpeed="0.00" departDelay="0.54" arrival="211.00" arrivalLane="nt14_np11_0" arrivalPos="75.00" arrivalSpeed="8.16" duration="145.00" routeLength="931.19" waitingTime="22.00" waitingCount="5" stopTime="0.00" timeLoss="63.87" rerouteNo="0" devices="tripinfo_f_0_3.8" vType="type1" speedFactor="0.96" vaporized=""/>
    <tripinfo id="f_0_3.9" depart="74.00" departLane="np3_nt3_0" departPos="57.07" departSpeed="0.00" departDelay="0.36" arrival="213.00" arrivalLane="nt14_np11_0" arrivalPos="75.00" arrivalSpeed="10.56" duration="139.00" routeLength="894.02" waitingTime="37.00" waitingCount="3" stopTime="0.00" timeLoss="71.46" rerouteNo="0" devices="tripinfo_f_0_3.9" vType="type1" speedFactor="1.11" vaporized=""/>
    <tripinfo id="f_0_3.10" depart="82.00" departLane="np3_nt3_0" departPos="9.58" departSpeed="0.00" departDelay="0.18" arrival="215.00" arrivalLane="nt14_np11_0" arrivalPos="75.00" arrivalSpeed="10.22" duration="133.00" routeLength="941.51" waitingTime="28.00" waitingCount="3" stopTime="0.00" timeLoss="57.84" rerouteNo="0" devices="tripinfo_f_0_3.10" vType="type1" speedFactor="1.06" vaporized=""/>
    <tripinfo id="f_0_2.2" depart="17.00" departLane="np2_nt2_0" departPos="39.07" departSpeed="0.00" departDelay="0.64" arrival="216.00" arrivalLane="nt15_np10_0" arrivalPos="75.00" arrivalSpeed="11.79" duration="199.00" routeLength="912.01" waitingTime="99.00" waitingCount="6" stopTime="0.00" timeLoss="137.73" rerouteNo="0" devices="tripinfo_f_0_2.2" vType="type1" speedFactor="1.25" vaporized=""/>
    <tripinfo id="f_0_2.3" depart="25.00" departLane="np2_nt2_0" departPos="19.39" departSpeed="0.00" departDelay="0.45" arrival="219.00" arrivalLane="nt15_np10_0" arrivalPos="75.00" arrivalSpeed="11.48" duration="194.00" routeLength="931.69" waitingTime="85.00" waitingCount="5" stopTime="0.00" timeLoss="119.14" rerouteNo="0" devices="tripinfo_f_0_2.3" vType="type1" speedFactor="1.06" vaporized=""/>
    <tripinfo id="f_0_2.4" depart="33.00" departLane="np2_nt2_0" departPos="54.10" departSpeed="0.00" departDelay="0.27" arrival="224.00" arrivalLane="nt15_np10_0" arrivalPos="75.00" arrivalSpeed="10.25" duration="191.00" routeLength="896.98" waitingTime="71.00" waitingCount="8" stopTime="0.00" timeLoss="115.51" rerouteNo="0" devices="tripinfo_f_0_2.4" vType="type1" speedFactor="1.00" vaporized=""/>
    <tripinfo id="f_0_2.5" depart="41.00" departLane="np2_nt2_0" departPos="37.54" departSpeed="0.00" departDelay="0.09" arrival="226.00" arrivalLane="nt15_np10_0" arrivalPos="75.00" arrivalSpeed="9.54" duration="185.00" routeLength="913.54" waitingTime="66.00" waitingCount="6" stopTime="0.00" timeLoss="112.67" rerouteNo="0" devices="tripinfo_f_0_2.5" vType="type1" speedFactor="1.06" vaporized=""/>
    <tripinfo id="f_0_1.0" depart="0.00" departLane="np16_nt1_0" departPos="47.71" departSpeed="0.00" departDelay="0.00" arrival="227.00" arrivalLane="nt16_np8_0" arrivalPos="75.00" arrivalSpeed="22.60" duration="227.00" routeLength="1300.17" waitingTime="93.00" waitingCount="6" stopTime="0.00" timeLoss="152.07" rerouteNo="0" devices="tripinfo_f_0_1.0" vType="type1" speedFactor="1.22" vaporized=""/>
    <tripinfo id="f_0_3.11" depart="90.00" departLane="np3_nt3_0" departPos="32.77" departSpeed="0.00" departDelay="0.00" arrival="232.00" arrivalLane="nt14_np11_0" arrivalPos="75.00" arrivalSpeed="10.36" duration="142.00" routeLength="918.32" waitingTime="39.00" waitingCount="4" stopTime="0.00" timeLoss="68.96" rerouteNo="0" devices="tripinfo_f_0_3.11" vType="type1" speedFactor="1.05" vaporized=""/>
    <tripinfo id="f_0_3.12" depart="99.00" departLane="np3_nt3_0" departPos="31.25" departSpeed="0.00" departDelay="0.82" arrival="234.00" arrivalLane="nt14_np11_0" arrivalPos="75.00" arrivalSpeed="11.99" duration="135.00" routeLength="919.84" waitingTime="32.00" waitingCount="4" stopTime="0.00" timeLoss="64.06" rerouteNo="0" devices="tripinfo_f_0_3.12" vType="type1" speedFactor="1.10" vaporized=""/>
    <tripinfo id="f_0_1.1" depart="14.00" departLane="np16_nt1_0" departPos="19.51" departSpeed="0.00" departDelay="0.36" arrival="253.00" arrivalLane="nt16_np8_0" arrivalPos="75.00" arrivalSpeed="21.06" duration="239.00" routeLength="1328.37" waitingTime="96.00" waitingCount="8" stopTime="0.00" timeLoss="155.56" rerouteNo="0" devices="tripinfo_f_0_1.1" vType="type1" speedFactor="1.11" vaporized=""/>
    <tripinfo id="f_0_0.5" depart="69.00" departLane="np13_nt13_0" departPos="55.99" departSpeed="0.00" departDelay="0.82" arrival="259.00" arrivalLane="nt4_np5_0" arrivalPos="75.00" arrivalSpeed="14.60" duration="190.00" routeLength="1291.90" waitingTime="46.00" waitingCount="6" stopTime="0.00" timeLoss="82.30" rerouteNo="0" devices="tripinfo_f_0_0.5" vType="type1" speedFactor="0.84" vaporized=""/>
    <tripinfo id="f_0_1.2" depart="28.00" departLane="np16_nt1_0" departPos="3.45" departSpeed="0.00" departDelay="0.73" arrival="278.00" arrivalLane="nt16_np8_0" arrivalPos="75.00" arrivalSpeed="21.39" duration="250.00" routeLength="1344.43" waitingTime="100.00" waitingCount="9" stopTime="0.00" timeLoss="168.12" rerouteNo="0" devices="tripinfo_f_0_1.2" vType="type1" speedFactor="1.13" vaporized=""/>
    <tripinfo id="f_0_0.6" depart="82.00" departLane="np13_nt13_0" departPos="46.00" departSpeed="0.00" departDelay="0.18" arrival="279.00" arrivalLane="nt4_np5_0" arrivalPos="75.00" arrivalSpeed="15.45" duration="197.00" routeLength="1301.89" waitingTime="54.00" waitingCount="5" stopTime="0.00" timeLoss="94.35" rerouteNo="0" devices="tripinfo_f_0_0.6" vType="type1" speedFactor="0.89" vaporized=""/>
    <tripinfo id="f_0_1.3" depart="41.00" departLane="np16_nt1_0" departPos="29.45" departSpeed="0.00" departDelay="0.09" arrival="280.00" arrivalLane="nt16_np8_0" arrivalPos="75.00" arrivalSpeed="18.00" duration="239.00" routeLength="1318.43" waitingTime="82.00" waitingCount="8" stopTime="0.00" timeLoss="148.03" rerouteNo="0" devices="tripinfo_f_0_1.3" vType="type1" speedFactor="1.01" vaporized=""/>
    <tripinfo id="f_0_0.7" depart="96.00" departLane="np13_nt13_0" departPos="46.32" departSpeed="0.00" departDelay="0.55" arrival="280.00" arrivalLane="nt4_np5_0" arrivalPos="75.00" arrivalSpeed="19.34" duration="184.00" routeLength="1301.57" waitingTime="56.00" waitingCount="5" stopTime="0.00" timeLoss="99.82" rerouteNo="0" devices="tripinfo_f_0_0.7" vType="type1" speedFactor="1.07" vaporized=""/>
    <tripinfo id="f_0_2.6" depart="50.00" departLane="np2_nt2_0" departPos="33.93" departSpeed="0.00" departDelay="0.91" arrival="282.00" arrivalLane="nt15_np10_0" arrivalPos="75.00" arrivalSpeed="9.46" duration="232.00" routeLength="917.15" waitingTime="92.00" waitingCount="6" stopTime="0.00" timeLoss="156.47" rerouteNo="0" devices="tripinfo_f_0_2.6" vType="type1" speedFactor="1.02" vaporized=""/>
    <tripinfo id="f_0_3.13" depart="107.00" departLane="np3_nt3_0" departPos="15.78" departSpeed="0.00" departDelay="0.63" arrival="282.00" arrivalLane="nt14_np11_0" arrivalPos="75.00" arrivalSpeed="9.62" duration="175.00" routeLength="935.31" waitingTime="70.00" waitingCount="3" stopTime="0.00" timeLoss="96.44" rerouteNo="0" devices="tripinfo_f_0_3.13" vType="type1" speedFactor="1.00" vaporized=""/>
    <tripinfo id="f_0_2.7" depart="58.00" departLane="np2_nt2_0" departPos="55.99" departSpeed="0.00" departDelay="0.73" arrival="284.00" arrivalLane="nt15_np10_0" arrivalPos="75.00" arrivalSpeed="11.29" duration="226.00" routeLength="895.09" waitingTime="85.00" waitingCount="6" stopTime="0.00" timeLoss="159.06" rerouteNo="0" devices="tripinfo_f_0_2.7" vType="type1" speedFactor="1.13" vaporized=""/>
    <tripinfo id="f_0_3.14" depart="115.00" departLane="np3_nt3_0" departPos="40.03" departSpeed="0.00" departDelay="0.45" arrival="284.00" arrivalLane="nt14_np11_0" arrivalPos="75.00" arrivalSpeed="11.27" duration="169.00" routeLength="911.06" waitingTime="70.00" waitingCount="4" stopTime="0.00" timeLoss="104.45" rerouteNo="0" devices="tripinfo_f_0_3.14" vType="type1" speedFactor="1.18" vaporized=""/>
    <tripinfo id="f_0_2.8" depart="66.00" departLane="np2_nt2_0" departPos="21.75" departSpeed="0.00" departDelay="0.54" arrival="287.00" arrivalLane="nt15_np10_0" arrivalPos="75.00" arrivalSpeed="8.36" duration="221.00" routeLength="929.33" waitingTime="82.00" waitingCount="5" stopTime="0.00" timeLoss="140.21" rerouteNo="0" devices="tripinfo_f_0_2.8" vType="type1" speedFactor="0.96" vaporized=""/>
    <tripinfo id="f_0_2.9" depart="74.00" departLane="np2_nt2_0" departPos="32.64" departSpeed="0.00" departDelay="0.36" arrival="291.00" arrivalLane="nt15_np10_0" arrivalPos="75.00" arrivalSpeed="10.58" duration="217.00" routeLength="918.44" waitingTime="82.00" waitingCount="6" stopTime="0.00" timeLoss="144.95" rerouteNo="0" devices="tripinfo_f_0_2.9" vType="type1" speedFactor="1.07" vaporized=""/>
    <tripinfo id="f_0_0.8" depart="110.00" departLane="np13_nt13_0" departPos="48.97" departSpeed="0.00" departDelay="0.91" arrival="294.00" arrivalLane="nt4_np5_0" arrivalPos="75.00" arrivalSpeed="19.03" duration="184.00" routeLength="1298.92" waitingTime="51.00" waitingCount="6" stopTime="0.00" timeLoss="93.45" rerouteNo="0" devices="tripinfo_f_0_0.8" vType="type1" speedFactor="1.01" vaporized=""/>
    <tripinfo id="f_0_1.4" depart="55.00" departLane="np16_nt1_0" departPos="52.10" departSpeed="0.00" departDelay="0.46" arrival="297.00" arrivalLane="nt16_np8_0" arrivalPos="75.00" arrivalSpeed="18.18" duration="242.00" routeLength="1295.78" waitingTime="86.00" waitingCount="5" stopTime="0.00" timeLoss="152.05" rerouteNo="0" devices="tripinfo_f_0_1.4" vType="type1" speedFactor="1.01" vaporized=""/>
    <tripinfo id="f_0_1.5" depart="69.00" departLane="np16_nt1_0" departPos="33.31" departSpeed="0.00" departDelay="0.82" arrival="300.00" arrivalLane="nt16_np8_0" arrivalPos="75.00" arrivalSpeed="21.08" duration="231.00" routeLength="1314.57" waitingTime="78.00" waitingCount="6" stopTime="0.00" timeLoss="144.98" rerouteNo="0" devices="tripinfo_f_0_1.5" vType="type1" speedFactor="1.06" vaporized=""/>
    <tripinfo id="f_0_2.10" depart="82.00" departLane="np2_nt2_0" departPos="7.07" departSpeed="0.00" departDelay="0.18" arrival="303.00" arrivalLane="nt15_np10_0" arrivalPos="75.00" arrivalSpeed="6.82" duration="221.00" routeLength="944.01" waitingTime="75.00" waitingCount="5" stopTime="0.00" timeLoss="121.38" rerouteNo="0" devices="tripinfo_f_0_2.10" vType="type1" speedFactor="0.80" vaporized=""/>
    <tripinfo id="f_0_2.11" depart="90.00" departLane="np2_nt2_0" departPos="46.51" departSpeed="0.00" departDelay="0.00" arrival="304.00" arrivalLane="nt15_np10_0" arrivalPos="75.00" arrivalSpeed="10.45" duration="214.00" routeLength="904.57" waitingTime="81.00" waitingCount="9" stopTime="0.00" timeLoss="141.99" rerouteNo="0" devices="tripinfo_f_0_2.11" vType="type1" speedFactor="1.05" vaporized=""/>
    <tripinfo id="f_0_2.12" depart="99.00" departLane="np2_nt2_0" departPos="12.91" departSpeed="0.00" departDelay="0.82" arrival="306.00" arrivalLane="nt15_np10_0" arrivalPos="75.00" arrivalSpeed="8.86" duration="207.00" routeLength="938.17" waitingTime="65.00" waitingCount="8" stopTime="0.00" timeLoss="127.65" rerouteNo="0" devices="tripinfo_f_0_2.12" vType="type1" speedFactor="1.00" vaporized=""/>
    <tripinfo id="f_0_2.13" depart="107.00" departLane="np2_nt2_0" departPos="34.58" departSpeed="0.00" departDelay="0.63" arrival="317.00" arrivalLane="nt15_np10_0" arrivalPos="75.00" arrivalSpeed="8.66" duration="210.00" routeLength="916.50" waitingTime="76.00" waitingCount="10" stopTime="0.00" timeLoss="131.71" rerouteNo="0" devices="tripinfo_f_0_2.13" vType="type1" speedFactor="0.98" vaporized=""/>
    <tripinfo id="f_0_1.6" depart="82.00" departLane="np16_nt1_0" departPos="58.70" departSpeed="0.00" departDelay="0.18" arrival="323.00" arrivalLane="nt16_np8_0" arrivalPos="75.00" arrivalSpeed="18.68" duration="241.00" routeLength="1289.18" waitingTime="90.00" waitingCount="6" stopTime="0.00" timeLoss="148.25" rerouteNo="0" devices="tripinfo_f_0_1.6" vType="type1" speedFactor="0.98" vaporized=""/>
    <tripinfo id="f_0_0.9" depart="123.00" departLane="np13_nt13_0" departPos="37.82" departSpeed="0.00" departDelay="0.28" arrival="323.00" arrivalLane="nt4_np5_0" arrivalPos="75.00" arrivalSpeed="17.42" duration="200.00" routeLength="1310.07" waitingTime="67.00" waitingCount="5" stopTime="0.00" timeLoss="105.89" rerouteNo="0" devices="tripinfo_f_0_0.9" vType="type1" speedFactor="0.97" vaporized=""/>
    <tripinfo id="f_0_1.7" depart="96.00" departLane="np16_nt1_0" departPos="50.09" departSpeed="0.00" departDelay="0.55" arrival="325.00" arrivalLane="nt16_np8_0" arrivalPos="75.00" arrivalSpeed="18.33" duration="229.00" routeLength="1297.79" waitingTime="87.00" waitingCount="9" stopTime="0.00" timeLoss="141.41" rerouteNo="0" devices="tripinfo_f_0_1.7" vType="type1" speedFactor="1.03" vaporized=""/>
    <tripinfo id="f_0_2.14" depart="115.00" departLane="np2_nt2_0" departPos="34.95" departSpeed="0.00" departDelay="0.45" arrival="327.00" arrivalLane="nt15_np10_0" arrivalPos="75.00" arrivalSpeed="10.77" duration="212.00" routeLength="916.13" waitingTime="68.00" waitingCount="8" stopTime="0.00" timeLoss="135.40" rerouteNo="0" devices="tripinfo_f_0_2.14" vType="type1" speedFactor="1.01" vaporized=""/>
    <tripinfo id="f_0_2.15" depart="123.00" departLane="np2_nt2_0" departPos="48.51" departSpeed="0.00" departDelay="0.27" arrival="330.00" arrivalLane="nt15_np10_0" arrivalPos="75.00" arrivalSpeed="8.51" duration="207.00" routeLength="902.57" waitingTime="56.00" waitingCount="8" stopTime="0.00" timeLoss="122.88" rerouteNo="0" devices="tripinfo_f_0_2.15" vType="type1" speedFactor="0.91" vaporized=""/>
    <tripinfo id="f_0_2.16" depart="131.00" departLane="np2_nt2_0" departPos="19.38" departSpeed="0.00" departDelay="0.09" arrival="332.00" arrivalLane="nt15_np10_0" arrivalPos="75.00" arrivalSpeed="11.38" duration="201.00" routeLength="931.70" waitingTime="44.00" waitingCount="8" stopTime="0.00" timeLoss="128.14" rerouteNo="0" devices="tripinfo_f_0_2.16" vType="type1" speedFactor="1.09" vaporized=""/>
    <tripinfo id="f_0_2.17" depart="140.00" departLane="np2_nt2_0" departPos="3.42" departSpeed="0.00" departDelay="0.91" arrival="334.00" arrivalLane="nt15_np10_0" arrivalPos="75.00" arrivalSpeed="8.61" duration="194.00" routeLength="947.66" waitingTime="32.00" waitingCount="8" stopTime="0.00" timeLoss="109.15" rerouteNo="0" devices="tripinfo_f_0_2.17" vType="type1" speedFactor="0.94" vaporized=""/>
    <tripinfo id="f_0_0.10" depart="137.00" departLane="np13_nt13_0" departPos="52.68" departSpeed="0.00" departDelay="0.64" arrival="338.00" arrivalLane="nt4_np5_0" arrivalPos="75.00" arrivalSpeed="18.65" duration="201.00" routeLength="1295.21" waitingTime="67.00" waitingCount="6" stopTime="0.00" timeLoss="112.56" rerouteNo="0" devices="tripinfo_f_0_0.10" vType="type1" speedFactor="1.02" vaporized=""/>
    <tripinfo id="f_0_3.15" depart="123.00" departLane="np3_nt3_0" departPos="22.79" departSpeed="0.00" departDelay="0.27" arrival="346.00" arrivalLane="nt14_np11_0" arrivalPos="75.00" arrivalSpeed="11.57" duration="223.00" routeLength="928.30" waitingTime="125.00" waitingCount="5" stopTime="0.00" timeLoss="154.39" rerouteNo="0" devices="tripinfo_f_0_3.15" vType="type1" speedFactor="1.13" vaporized=""/>
    <tripinfo id="f_0_2.18" depart="148.00" departLane="np2_nt2_0" departPos="52.30" departSpeed="0.00" departDelay="0.72" arrival="349.00" arrivalLane="nt15_np10_0" arrivalPos="75.00" arrivalSpeed="8.90" duration="201.00" routeLength="898.78" waitingTime="38.00" waitingCount="6" stopTime="0.00" timeLoss="117.83" rerouteNo="0" devices="tripinfo_f_0_2.18" vType="type1" speedFactor="0.91" vaporized=""/>
    <tripinfo id="f_0_2.19" depart="156.00" departLane="np2_nt2_0" departPos="23.11" departSpeed="0.00" departDelay="0.54" arrival="351.00" arrivalLane="nt15_np10_0" arrivalPos="75.00" arrivalSpeed="10.18" duration="195.00" routeLength="927.97" waitingTime="60.00" waitingCount="7" stopTime="0.00" timeLoss="119.53" rerouteNo="0" devices="tripinfo_f_0_2.19" vType="type1" speedFactor="1.04" vaporized=""/>
    <tripinfo id="f_0_3.16" depart="131.00" departLane="np3_nt3_0" departPos="24.21" departSpeed="0.00" departDelay="0.09" arrival="358.00" arrivalLane="nt14_np11_0" arrivalPos="75.00" arrivalSpeed="8.85" duration="227.00" routeLength="926.88" waitingTime="115.00" waitingCount="5" stopTime="0.00" timeLoss="144.48" rerouteNo="0" devices="tripinfo_f_0_3.16" vType="type1" speedFactor="0.95" vaporized=""/>
    <tripinfo id="f_0_0.11" depart="150.00" departLane="np13_nt13_0" departPos="3.43" departSpeed="0.00" departDelay="0.00" arrival="359.00" arrivalLane="nt4_np5_0" arrivalPos="75.00" arrivalSpeed="15.47" duration="209.00" routeLength="1344.46" waitingTime="48.00" waitingCount="4" stopTime="0.00" timeLoss="90.78" rerouteNo="0" devices="tripinfo_f_0_0.11" vType="type1" speedFactor="0.78" vaporized=""/>
    <tripinfo id="f_0_3.17" depart="140.00" departLane="np3_nt3_0" departPos="43.14" departSpeed="0.00" departDelay="0.91" arrival="360.00" arrivalLane="nt14_np11_0" arrivalPos="75.00" arrivalSpeed="11.72" duration="220.00" routeLength="907.95" waitingTime="112.00" waitingCount="6" stopTime="0.00" timeLoss="153.76" rerouteNo="0" devices="tripinfo_f_0_3.17" vType="type1" speedFactor="1.15" vaporized=""/>
    <tripinfo id="f_0_3.18" depart="148.00" departLane="np3_nt3_0" departPos="2.62" departSpeed="0.00" departDelay="0.72" arrival="362.00" arrivalLane="nt14_np11_0" arrivalPos="75.00" arrivalSpeed="11.28" duration="214.00" routeLength="948.47" waitingTime="96.00" waitingCount="7" stopTime="0.00" timeLoss="143.06" rerouteNo="0" devices="tripinfo_f_0_3.18" vType="type1" speedFactor="1.12" vaporized=""/>
    <tripinfo id="f_0_3.19" depart="156.00" departLane="np3_nt3_0" departPos="19.02" departSpeed="0.00" departDelay="0.54" arrival="364.00" arrivalLane="nt14_np11_0" arrivalPos="75.00" arrivalSpeed="7.76" duration="208.00" routeLength="932.07" waitingTime="90.00" waitingCount="5" stopTime="0.00" timeLoss="124.40" rerouteNo="0" devices="tripinfo_f_0_3.19" vType="type1" speedFactor="0.93" vaporized=""/>
    <tripinfo id="f_0_1.8" depart="110.00" departLane="np16_nt1_0" departPos="55.38" departSpeed="0.00" departDelay="0.91" arrival="368.00" arrivalLane="nt16_np8_0" arrivalPos="75.00" arrivalSpeed="18.96" duration="258.00" routeLength="1292.50" waitingTime="80.00" waitingCount="9" stopTime="0.00" timeLoss="166.29" rerouteNo="0" devices="tripinfo_f_0_1.8" vType="type1" speedFactor="0.99" vaporized=""/>
    <tripinfo id="f_0_1.9" depart="123.00" departLane="np16_nt1_0" departPos="5.43" departSpeed="0.00" departDelay="0.28" arrival="370.00" arrivalLane="nt16_np8_0" arrivalPos="75.00" arrivalSpeed="19.23" duration="247.00" routeLength="1342.45" waitingTime="57.00" waitingCount="8" stopTime="0.00" timeLoss="152.56" rerouteNo="0" devices="tripinfo_f_0_1.9" vType="type1" speedFactor="0.99" vaporized=""/>
    <tripinfo id="f_0_0.12" depart="164.00" departLane="np13_nt13_0" departPos="40.29" departSpeed="0.00" departDelay="0.37" arrival="373.00" arrivalLane="nt4_np5_0" arrivalPos="75.00" arrivalSpeed="21.57" duration="209.00" routeLength="1307.60" waitingTime="66.00" waitingCount="6" stopTime="0.00" timeLoss="127.45" rerouteNo="0" devices="tripinfo_f_0_0.12" vType="type1" speedFactor="1.13" vaporized=""/>
    <tripinfo id="f_0_3.20" depart="164.00" departLane="np3_nt3_0" departPos="19.65" departSpeed="0.00" departDelay="0.36" arrival="373.00" arrivalLane="nt14_np11_0" arrivalPos="75.00" arrivalSpeed="8.51" duration="209.00" routeLength="931.44" waitingTime="82.00" waitingCount="7" stopTime="0.00" timeLoss="127.95" rerouteNo="0" devices="tripinfo_f_0_3.20" vType="type1" speedFactor="0.97" vaporized=""/>
    <tripinfo id="f_0_3.21" depart="172.00" departLane="np3_nt3_0" departPos="34.08" departSpeed="0.00" departDelay="0.18" arrival="375.00" arrivalLane="nt14_np11_0" arrivalPos="75.00" arrivalSpeed="10.26" duration="203.00" routeLength="917.01" waitingTime="75.00" waitingCount="7" stopTime="0.00" timeLoss="122.11" rerouteNo="0" devices="tripinfo_f_0_3.21" vType="type1" speedFactor="0.95" vaporized=""/>
    <tripinfo id="f_0_3.22" depart="180.00" departLane="np3_nt3_0" departPos="21.61" departSpeed="0.00" departDelay="0.00" arrival="377.00" arrivalLane="nt14_np11_0" arrivalPos="75.00" arrivalSpeed="10.20" duration="197.00" routeLength="929.48" waitingTime="59.00" waitingCount="7" stopTime="0.00" timeLoss="115.40" rerouteNo="0" devices="tripinfo_f_0_3.22" vType="type1" speedFactor="0.96" vaporized=""/>
    <tripinfo id="f_0_3.23" depart="189.00" departLane="np3_nt3_0" departPos="20.96" departSpeed="0.00" departDelay="0.81" arrival="379.00" arrivalLane="nt14_np11_0" arrivalPos="75.00" arrivalSpeed="9.51" duration="190.00" routeLength="930.13" waitingTime="62.00" waitingCount="5" stopTime="0.00" timeLoss="104.22" rerouteNo="0" devices="tripinfo_f_0_3.23" vType="type1" speedFactor="0.91" vaporized=""/>
    <tripinfo id="f_0_1.10" depart="137.00" departLane="np16_nt1_0" departPos="1.00" departSpeed="0.00" departDelay="0.64" arrival="384.00" arrivalLane="nt16_np8_0" arrivalPos="75.00" arrivalSpeed="19.05" duration="247.00" routeLength="1346.88" waitingTime="58.00" waitingCount="7" stopTime="0.00" timeLoss="155.06" rerouteNo="0" devices="tripinfo_f_0_1.10" vType="type1" speedFactor="1.02" vaporized=""/>
    <tripinfo id="f_0_3.24" depart="197.00" departLane="np3_nt3_0" departPos="36.32" departSpeed="0.00" departDelay="0.63" arrival="385.00" arrivalLane="nt14_np11_0" arrivalPos="75.00" arrivalSpeed="11.52" duration="188.00" routeLength="914.77" waitingTime="71.00" waitingCount="9" stopTime="0.00" timeLoss="123.38" rerouteNo="0" devices="tripinfo_f_0_3.24" vType="type1" speedFactor="1.18" vaporized=""/>
    <tripinfo id="f_0_3.25" depart="205.00" departLane="np3_nt3_0" departPos="32.32" departSpeed="0.00" departDelay="0.45" arrival="388.00" arrivalLane="nt14_np11_0" arrivalPos="75.00" arrivalSpeed="10.90" duration="183.00" routeLength="918.77" waitingTime="54.00" waitingCount="9" stopTime="0.00" timeLoss="112.44" rerouteNo="0" devices="tripinfo_f_0_3.25" vType="type1" speedFactor="1.09" vaporized=""/>
    <tripinfo id="f_0_1.11" depart="150.00" departLane="np16_nt1_0" departPos="45.68" departSpeed="0.00" departDelay="0.00" arrival="393.00" arrivalLane="nt16_np8_0" arrivalPos="75.00" arrivalSpeed="22.16" duration="243.00" routeLength="1302.20" waitingTime="89.00" waitingCount="11" stopTime="0.00" timeLoss="165.09" rerouteNo="0" devices="tripinfo_f_0_1.11" vType="type1" speedFactor="1.17" vaporized=""/>