<?xml version="1.0" encoding="UTF-8"?>

<!-- generated on 2023-08-23 16:02:29 by Eclipse SUMO libsumo Version 1.18.0
<configuration xmlns:xsi="http://www.w3.org/2001/XMLSchema-instance" xsi:noNamespaceSchemaLocation="http://sumo.dlr.de/xsd/libsumoConfiguration.xsd">

    <input>
        <net-file value="/home/stefan/RESCO/./environments/arterial4x4/arterial4x4.net.xml"/>
        <route-files value="/home/stefan/RESCO/./environments/arterial4x4/arterial4x4_16.rou.xml"/>
    </input>

    <output>
        <tripinfo-output value="/home/stefan/results/IDDQN-tr0-arterial4x4-0-drq_norm-wait_norm/tripinfo_16.xml"/>
        <tripinfo-output.write-unfinished value="true"/>
    </output>

    <processing>
        <time-to-teleport value="-1"/>
    </processing>

    <report>
        <no-warnings value="True"/>
        <no-step-log value="True"/>
    </report>

    <random_number>
        <random value="true"/>
    </random_number>

</configuration>
-->

<tripinfos xmlns:xsi="http://www.w3.org/2001/XMLSchema-instance" xsi:noNamespaceSchemaLocation="http://sumo.dlr.de/xsd/tripinfo_file.xsd">
    <tripinfo id="f_0_3.0" depart="0.00" departLane="np3_nt3_0" departPos="41.92" departSpeed="0.00" departDelay="0.00" arrival="98.00" arrivalLane="nt14_np11_0" arrivalPos="75.00" arrivalSpeed="10.39" duration="98.00" routeLength="909.17" waitingTime="7.00" waitingCount="1" stopTime="0.00" timeLoss="22.45" rerouteNo="0" devices="tripinfo_f_0_3.0" vType="type1" speedFactor="1.01" vaporized=""/>
    <tripinfo id="f_0_3.1" depart="9.00" departLane="np3_nt3_0" departPos="47.12" departSpeed="0.00" departDelay="0.82" arrival="121.00" arrivalLane="nt14_np11_0" arrivalPos="75.00" arrivalSpeed="10.59" duration="112.00" routeLength="903.97" waitingTime="22.00" waitingCount="4" stopTime="0.00" timeLoss="42.16" rerouteNo="0" devices="tripinfo_f_0_3.1" vType="type1" speedFactor="1.07" vaporized=""/>
    <tripinfo id="f_0_2.0" depart="0.00" departLane="np2_nt2_0" departPos="60.41" departSpeed="0.00" departDelay="0.00" arrival="148.00" arrivalLane="nt15_np10_0" arrivalPos="75.00" arrivalSpeed="7.91" duration="148.00" routeLength="890.67" waitingTime="49.00" waitingCount="1" stopTime="0.00" timeLoss="68.56" rerouteNo="0" devices="tripinfo_f_0_2.0" vType="type1" speedFactor="0.93" vaporized=""/>
    <tripinfo id="f_0_0.0" depart="0.00" departLane="np13_nt13_0" departPos="43.05" departSpeed="0.00" departDelay="0.00" arrival="183.00" arrivalLane="nt4_np5_0" arrivalPos="75.00" arrivalSpeed="19.73" duration="183.00" routeLength="1304.84" waitingTime="59.00" waitingCount="7" stopTime="0.00" timeLoss="95.29" rerouteNo="0" devices="tripinfo_f_0_0.0" vType="type1" speedFactor="1.04" vaporized=""/>
    <tripinfo id="f_0_2.1" depart="9.00" departLane="np2_nt2_0" departPos="25.91" departSpeed="0.00" departDelay="0.82" arrival="183.00" arrivalLane="nt15_np10_0" arrivalPos="75.00" arrivalSpeed="9.48" duration="174.00" routeLength="925.17" waitingTime="62.00" waitingCount="5" stopTime="0.00" timeLoss="87.43" rerouteNo="0" devices="tripinfo_f_0_2.1" vType="type1" speedFactor="0.90" vaporized=""/>
    <tripinfo id="f_0_0.1" depart="14.00" departLane="np13_nt13_0" departPos="19.48" departSpeed="0.00" departDelay="0.36" arrival="185.00" arrivalLane="nt4_np5_0" arrivalPos="75.00" arrivalSpeed="18.43" duration="171.00" routeLength="1328.41" waitingTime="35.00" waitingCount="6" stopTime="0.00" timeLoss="75.34" rerouteNo="0" devices="tripinfo_f_0_0.1" vType="type1" speedFactor="0.96" vaporized=""/>
    <tripinfo id="f_0_1.0" depart="0.00" departLane="np16_nt1_0" departPos="9.61" departSpeed="0.00" departDelay="0.00" arrival="193.00" arrivalLane="nt16_np8_0" arrivalPos="75.00" arrivalSpeed="20.70" duration="193.00" routeLength="1338.27" waitingTime="74.00" waitingCount="5" stopTime="0.00" timeLoss="104.66" rerouteNo="0" devices="tripinfo_f_0_1.0" vType="type1" speedFactor="1.05" vaporized=""/>
    <tripinfo id="f_0_3.2" depart="17.00" departLane="np3_nt3_0" departPos="29.86" departSpeed="0.00" departDelay="0.64" arrival="193.00" arrivalLane="nt14_np11_0" arrivalPos="75.00" arrivalSpeed="7.99" duration="176.00" routeLength="921.23" waitingTime="64.00" waitingCount="4" stopTime="0.00" timeLoss="92.86" rerouteNo="0" devices="tripinfo_f_0_3.2" vType="type1" speedFactor="0.93" vaporized=""/>
    <tripinfo id="f_0_3.3" depart="25.00" departLane="np3_nt3_0" departPos="31.33" departSpeed="0.00" departDelay="0.45" arrival="195.00" arrivalLane="nt14_np11_0" arrivalPos="75.00" arrivalSpeed="8.44" duration="170.00" routeLength="919.76" waitingTime="58.00" waitingCount="4" stopTime="0.00" timeLoss="84.35" rerouteNo="0" devices="tripinfo_f_0_3.3" vType="type1" speedFactor="0.90" vaporized=""/>
    <tripinfo id="f_0_3.4" depart="33.00" departLane="np3_nt3_0" departPos="7.86" departSpeed="0.00" departDelay="0.27" arrival="197.00" arrivalLane="nt14_np11_0" arrivalPos="75.00" arrivalSpeed="11.46" duration="164.00" routeLength="943.23" waitingTime="60.00" waitingCount="4" stopTime="0.00" timeLoss="91.02" rerouteNo="0" devices="tripinfo_f_0_3.4" vType="type1" speedFactor="1.08" vaporized=""/>
    <tripinfo id="f_0_3.5" depart="41.00" departLane="np3_nt3_0" departPos="21.15" departSpeed="0.00" departDelay="0.09" arrival="213.00" arrivalLane="nt14_np11_0" arrivalPos="75.00" arrivalSpeed="9.19" duration="172.00" routeLength="929.94" waitingTime="59.00" waitingCount="6" stopTime="0.00" timeLoss="87.81" rerouteNo="0" devices="tripinfo_f_0_3.5" vType="type1" speedFactor="0.93" vaporized=""/>
    <tripinfo id="f_0_3.6" depart="50.00" departLane="np3_nt3_0" departPos="24.34" departSpeed="0.00" departDelay="0.91" arrival="223.00" arrivalLane="nt14_np11_0" arrivalPos="75.00" arrivalSpeed="8.60" duration="173.00" routeLength="926.75" waitingTime="53.00" waitingCount="6" stopTime="0.00" timeLoss="88.28" rerouteNo="0" devices="tripinfo_f_0_3.6" vType="type1" speedFactor="0.92" vaporized=""/>
    <tripinfo id="f_0_2.2" depart="17.00" departLane="np2_nt2_0" departPos="23.82" departSpeed="0.00" departDelay="0.64" arrival="224.00" arrivalLane="nt15_np10_0" arrivalPos="75.00" arrivalSpeed="9.12" duration="207.00" routeLength="927.26" waitingTime="82.00" waitingCount="6" stopTime="0.00" timeLoss="114.05" rerouteNo="0" devices="tripinfo_f_0_2.2" vType="type1" speedFactor="0.84" vaporized=""/>
    <tripinfo id="f_0_2.3" depart="25.00" departLane="np2_nt2_0" departPos="24.71" departSpeed="0.00" departDelay="0.45" arrival="227.00" arrivalLane="nt15_np10_0" arrivalPos="75.00" arrivalSpeed="8.40" duration="202.00" routeLength="926.37" waitingTime="66.00" waitingCount="7" stopTime="0.00" timeLoss="107.62" rerouteNo="0" devices="tripinfo_f_0_2.3" vType="type1" speedFactor="0.83" vaporized=""/>
    <tripinfo id="f_0_2.4" depart="33.00" departLane="np2_nt2_0" departPos="38.83" departSpeed="0.00" departDelay="0.27" arrival="235.00" arrivalLane="nt15_np10_0" arrivalPos="75.00" arrivalSpeed="12.45" duration="202.00" routeLength="912.25" waitingTime="81.00" waitingCount="7" stopTime="0.00" timeLoss="137.27" rerouteNo="0" devices="tripinfo_f_0_2.4" vType="type1" speedFactor="1.18" vaporized=""/>
    <tripinfo id="f_0_2.5" depart="41.00" departLane="np2_nt2_0" departPos="46.85" departSpeed="0.00" departDelay="0.09" arrival="249.00" arrivalLane="nt15_np10_0" arrivalPos="75.00" arrivalSpeed="10.10" duration="208.00" routeLength="904.23" waitingTime="78.00" waitingCount="11" stopTime="0.00" timeLoss="134.22" rerouteNo="0" devices="tripinfo_f_0_2.5" vType="type1" speedFactor="1.03" vaporized=""/>
    <tripinfo id="f_0_1.1" depart="14.00" departLane="np16_nt1_0" departPos="10.70" departSpeed="0.00" departDelay="0.36" arrival="259.00" arrivalLane="nt16_np8_0" arrivalPos="75.00" arrivalSpeed="16.62" duration="245.00" routeLength="1337.18" waitingTime="83.00" waitingCount="9" stopTime="0.00" timeLoss="142.23" rerouteNo="0" devices="tripinfo_f_0_1.1" vType="type1" speedFactor="0.91" vaporized=""/>
    <tripinfo id="f_0_3.7" depart="58.00" departLane="np3_nt3_0" departPos="35.84" departSpeed="0.00" departDelay="0.73" arrival="259.00" arrivalLane="nt14_np11_0" arrivalPos="75.00" arrivalSpeed="7.59" duration="201.00" routeLength="915.25" waitingTime="77.00" waitingCount="7" stopTime="0.00" timeLoss="114.62" rerouteNo="0" devices="tripinfo_f_0_3.7" vType="type1" speedFactor="0.89" vaporized=""/>
    <tripinfo id="f_0_1.2" depart="28.00" departLane="np16_nt1_0" departPos="19.72" departSpeed="0.00" departDelay="0.73" arrival="260.00" arrivalLane="nt16_np8_0" arrivalPos="75.00" arrivalSpeed="18.42" duration="232.00" routeLength="1328.16" waitingTime="77.00" waitingCount="11" stopTime="0.00" timeLoss="140.13" rerouteNo="0" devices="tripinfo_f_0_1.2" vType="type1" speedFactor="1.00" vaporized=""/>
    <tripinfo id="f_0_0.2" depart="28.00" departLane="np13_nt13_0" departPos="30.64" departSpeed="0.00" departDelay="0.73" arrival="264.00" arrivalLane="nt4_np5_0" arrivalPos="75.00" arrivalSpeed="19.54" duration="236.00" routeLength="1317.25" waitingTime="114.00" waitingCount="5" stopTime="0.00" timeLoss="145.78" rerouteNo="0" devices="tripinfo_f_0_0.2" vType="type1" speedFactor="1.02" vaporized=""/>
    <tripinfo id="f_0_2.6" depart="50.00" departLane="np2_nt2_0" departPos="26.59" departSpeed="0.00" departDelay="0.91" arrival="264.00" arrivalLane="nt15_np10_0" arrivalPos="75.00" arrivalSpeed="8.15" duration="214.00" routeLength="924.49" waitingTime="69.00" waitingCount="9" stopTime="0.00" timeLoss="126.58" rerouteNo="0" devices="tripinfo_f_0_2.6" vType="type1" speedFactor="0.90" vaporized=""/>
    <tripinfo id="f_0_2.7" depart="58.00" departLane="np2_nt2_0" departPos="36.07" departSpeed="0.00" departDelay="0.73" arrival="266.00" arrivalLane="nt15_np10_0" arrivalPos="75.00" arrivalSpeed="8.05" duration="208.00" routeLength="915.01" waitingTime="54.00" waitingCount="10" stopTime="0.00" timeLoss="122.56" rerouteNo="0" devices="tripinfo_f_0_2.7" vType="type1" speedFactor="0.91" vaporized=""/>
    <tripinfo id="f_0_2.8" depart="66.00" departLane="np2_nt2_0" departPos="0.44" departSpeed="0.00" departDelay="0.54" arrival="268.00" arrivalLane="nt15_np10_0" arrivalPos="75.00" arrivalSpeed="10.56" duration="202.00" routeLength="950.64" waitingTime="66.00" waitingCount="6" stopTime="0.00" timeLoss="119.82" rerouteNo="0" devices="tripinfo_f_0_2.8" vType="type1" speedFactor="0.98" vaporized=""/>
    <tripinfo id="f_0_3.8" depart="66.00" departLane="np3_nt3_0" departPos="3.94" departSpeed="0.00" departDelay="0.54" arrival="277.00" arrivalLane="nt14_np11_0" arrivalPos="75.00" arrivalSpeed="10.44" duration="211.00" routeLength="947.15" waitingTime="79.00" waitingCount="7" stopTime="0.00" timeLoss="130.99" rerouteNo="0" devices="tripinfo_f_0_3.8" vType="type1" speedFactor="1.00" vaporized=""/>
    <tripinfo id="f_0_3.9" depart="74.00" departLane="np3_nt3_0" departPos="37.96" departSpeed="0.00" departDelay="0.36" arrival="281.00" arrivalLane="nt14_np11_0" arrivalPos="75.00" arrivalSpeed="8.87" duration="207.00" routeLength="913.13" waitingTime="79.00" waitingCount="7" stopTime="0.00" timeLoss="117.28" rerouteNo="0" devices="tripinfo_f_0_3.9" vType="type1" speedFactor="0.86" vaporized=""/>
    <tripinfo id="f_0_1.3" depart="41.00" departLane="np16_nt1_0" departPos="64.20" departSpeed="0.00" departDelay="0.09" arrival="283.00" arrivalLane="nt16_np8_0" arrivalPos="75.00" arrivalSpeed="18.80" duration="242.00" routeLength="1283.68" waitingTime="89.00" waitingCount="10" stopTime="0.00" timeLoss="155.17" rerouteNo="0" devices="tripinfo_f_0_1.3" vType="type1" speedFactor="1.03" vaporized=""/>
    <tripinfo id="f_0_3.10" depart="82.00" departLane="np3_nt3_0" departPos="53.58" departSpeed="0.00" departDelay="0.18" arrival="287.00" arrivalLane="nt14_np11_0" arrivalPos="75.00" arrivalSpeed="9.26" duration="205.00" routeLength="897.51" waitingTime="95.00" waitingCount="8" stopTime="0.00" timeLoss="127.61" rerouteNo="0" devices="tripinfo_f_0_3.10" vType="type1" speedFactor="0.97" vaporized=""/>
    <tripinfo id="f_0_3.11" depart="90.00" departLane="np3_nt3_0" departPos="48.25" departSpeed="0.00" departDelay="0.00" arrival="290.00" arrivalLane="nt14_np11_0" arrivalPos="75.00" arrivalSpeed="9.03" duration="200.00" routeLength="902.84" waitingTime="79.00" waitingCount="7" stopTime="0.00" timeLoss="120.95" rerouteNo="0" devices="tripinfo_f_0_3.11" vType="type1" speedFactor="0.96" vaporized=""/>
    <tripinfo id="f_0_2.9" depart="74.00" departLane="np2_nt2_0" departPos="40.69" departSpeed="0.00" departDelay="0.36" arrival="293.00" arrivalLane="nt15_np10_0" arrivalPos="75.00" arrivalSpeed="8.52" duration="219.00" routeLength="910.39" waitingTime="84.00" waitingCount="7" stopTime="0.00" timeLoss="134.00" rerouteNo="0" devices="tripinfo_f_0_2.9" vType="type1" speedFactor="0.89" vaporized=""/>
    <tripinfo id="f_0_2.10" depart="82.00" departLane="np2_nt2_0" departPos="12.27" departSpeed="0.00" departDelay="0.18" arrival="300.00" arrivalLane="nt15_np10_0" arrivalPos="75.00" arrivalSpeed="9.72" duration="218.00" routeLength="938.81" waitingTime="77.00" waitingCount="6" stopTime="0.00" timeLoss="135.42" rerouteNo="0" devices="tripinfo_f_0_2.10" vType="type1" speedFactor="0.96" vaporized=""/>
    <tripinfo id="f_0_3.12" depart="99.00" departLane="np3_nt3_0" departPos="9.98" departSpeed="0.00" departDelay="0.82" arrival="301.00" arrivalLane="nt14_np11_0" arrivalPos="75.00" arrivalSpeed="11.04" duration="202.00" routeLength="941.11" waitingTime="78.00" waitingCount="7" stopTime="0.00" timeLoss="132.30" rerouteNo="0" devices="tripinfo_f_0_3.12" vType="type1" speedFactor="1.13" vaporized=""/>
    <tripinfo id="f_0_3.13" depart="107.00" departLane="np3_nt3_0" departPos="19.47" departSpeed="0.00" departDelay="0.63" arrival="304.00" arrivalLane="nt14_np11_0" arrivalPos="75.00" arrivalSpeed="8.93" duration="197.00" routeLength="931.62" waitingTime="72.00" waitingCount="8" stopTime="0.00" timeLoss="115.84" rerouteNo="0" devices="tripinfo_f_0_3.13" vType="type1" speedFactor="0.96" vaporized=""/>
    <tripinfo id="f_0_3.14" depart="115.00" departLane="np3_nt3_0" departPos="17.03" departSpeed="0.00" departDelay="0.45" arrival="306.00" arrivalLane="nt14_np11_0" arrivalPos="75.00" arrivalSpeed="11.50" duration="191.00" routeLength="934.06" waitingTime="66.00" waitingCount="8" stopTime="0.00" timeLoss="116.17" rerouteNo="0" devices="tripinfo_f_0_3.14" vType="type1" speedFactor="1.05" vaporized=""/>
    <tripinfo id="f_0_0.3" depart="41.00" departLane="np13_nt13_0" departPos="47.20" departSpeed="0.00" departDelay="0.09" arrival="307.00" arrivalLane="nt4_np5_0" arrivalPos="75.00" arrivalSpeed="18.40" duration="266.00" routeLength="1300.69" waitingTime="134.00" waitingCount="6" stopTime="0.00" timeLoss="171.13" rerouteNo="0" devices="tripinfo_f_0_0.3" vType="type1" speedFactor="0.96" vaporized=""/>
    <tripinfo id="f_0_1.4" depart="55.00" departLane="np16_nt1_0" departPos="67.03" departSpeed="0.00" departDelay="0.46" arrival="308.00" arrivalLane="nt16_np8_0" arrivalPos="75.00" arrivalSpeed="19.57" duration="253.00" routeLength="1280.85" waitingTime="104.00" waitingCount="10" stopTime="0.00" timeLoss="169.04" rerouteNo="0" devices="tripinfo_f_0_1.4" vType="type1" speedFactor="1.07" vaporized=""/>
    <tripinfo id="f_0_3.15" depart="123.00" departLane="np3_nt3_0" departPos="16.98" departSpeed="0.00" departDelay="0.27" arrival="309.00" arrivalLane="nt14_np11_0" arrivalPos="75.00" arrivalSpeed="9.36" duration="186.00" routeLength="934.11" waitingTime="57.00" waitingCount="9" stopTime="0.00" timeLoss="106.43" rerouteNo="0" devices="tripinfo_f_0_3.15" vType="type1" speedFactor="0.99" vaporized=""/>
    <tripinfo id="f_0_2.11" depart="90.00" departLane="np2_nt2_0" departPos="35.60" departSpeed="0.00" departDelay="0.00" arrival="311.00" arrivalLane="nt15_np10_0" arrivalPos="75.00" arrivalSpeed="11.87" duration="221.00" routeLength="915.48" waitingTime="80.00" waitingCount="8" stopTime="0.00" timeLoss="151.51" rerouteNo="0" devices="tripinfo_f_0_2.11" vType="type1" speedFactor="1.10" vaporized=""/>
    <tripinfo id="f_0_1.5" depart="69.00" departLane="np16_nt1_0" departPos="1.66" departSpeed="0.00" departDelay="0.82" arrival="318.00" arrivalLane="nt16_np8_0" arrivalPos="75.00" arrivalSpeed="19.65" duration="249.00" routeLength="1346.22" waitingTime="87.00" waitingCount="8" stopTime="0.00" timeLoss="154.80" rerouteNo="0" devices="tripinfo_f_0_1.5" vType="type1" speedFactor="1.00" vaporized=""/>
    <tripinfo id="f_0_2.12" depart="99.00" departLane="np2_nt2_0" departPos="53.86" departSpeed="0.00" departDelay="0.82" arrival="336.00" arrivalLane="nt15_np10_0" arrivalPos="75.00" arrivalSpeed="11.58" duration="237.00" routeLength="897.22" waitingTime="94.00" waitingCount="7" stopTime="0.00" timeLoss="165.97" rerouteNo="0" devices="tripinfo_f_0_2.12" vType="type1" speedFactor="1.06" vaporized=""/>
    <tripinfo id="f_0_3.16" depart="131.00" departLane="np3_nt3_0" departPos="25.65" departSpeed="0.00" departDelay="0.09" arrival="337.00" arrivalLane="nt14_np11_0" arrivalPos="75.00" arrivalSpeed="10.88" duration="206.00" routeLength="925.44" waitingTime="77.00" waitingCount="11" stopTime="0.00" timeLoss="127.93" rerouteNo="0" devices="tripinfo_f_0_3.16" vType="type1" speedFactor="0.99" vaporized=""/>
    <tripinfo id="f_0_2.13" depart="107.00" departLane="np2_nt2_0" departPos="27.08" departSpeed="0.00" departDelay="0.63" arrival="339.00" arrivalLane="nt15_np10_0" arrivalPos="75.00" arrivalSpeed="9.62" duration="232.00" routeLength="924.00" waitingTime="87.00" waitingCount="9" stopTime="0.00" timeLoss="157.32" rerouteNo="0" devices="tripinfo_f_0_2.13" vType="type1" speedFactor="1.04" vaporized=""/>
    <tripinfo id="f_0_3.17" depart="140.00" departLane="np3_nt3_0" departPos="18.00" departSpeed="0.00" departDelay="0.91" arrival="339.00" arrivalLane="nt14_np11_0" arrivalPos="75.00" arrivalSpeed="10.38" duration="199.00" routeLength="933.09" waitingTime="57.00" waitingCount="11" stopTime="0.00" timeLoss="124.74" rerouteNo="0" devices="tripinfo_f_0_3.17" vType="type1" speedFactor="1.06" vaporized=""/>
    <tripinfo id="f_0_3.18" depart="148.00" departLane="np3_nt3_0" departPos="11.54" departSpeed="0.00" departDelay="0.72" arrival="343.00" arrivalLane="nt14_np11_0" arrivalPos="75.00" arrivalSpeed="8.43" duration="195.00" routeLength="939.55" waitingTime="48.00" waitingCount="10" stopTime="0.00" timeLoss="110.05" rerouteNo="0" devices="tripinfo_f_0_3.18" vType="type1" speedFactor="0.93" vaporized=""/>
    <tripinfo id="f_0_3.19" depart="156.00" departLane="np3_nt3_0" departPos="5.50" departSpeed="0.00" departDelay="0.54" arrival="344.00" arrivalLane="nt14_np11_0" arrivalPos="75.00" arrivalSpeed="10.17" duration="188.00" routeLength="945.59" waitingTime="44.00" waitingCount="6" stopTime="0.00" timeLoss="115.67" rerouteNo="0" devices="tripinfo_f_0_3.19" vType="type1" speedFactor="1.09" vaporized=""/>
    <tripinfo id="f_0_0.4" depart="55.00" departLane="np13_nt13_0" departPos="21.27" departSpeed="0.00" departDelay="0.46" arrival="348.00" arrivalLane="nt4_np5_0" arrivalPos="75.00" arrivalSpeed="18.82" duration="293.00" routeLength="1326.62" waitingTime="153.00" waitingCount="11" stopTime="0.00" timeLoss="203.79" rerouteNo="0" devices="tripinfo_f_0_0.4" vType="type1" speedFactor="1.03" vaporized=""/>
    <tripinfo id="f_0_0.5" depart="69.00" departLane="np13_nt13_0" departPos="10.28" departSpeed="0.00" departDelay="0.82" arrival="350.00" arrivalLane="nt4_np5_0" arrivalPos="75.00" arrivalSpeed="20.03" duration="281.00" routeLength="1337.61" waitingTime="132.00" waitingCount="8" stopTime="0.00" timeLoss="192.35" rerouteNo="0" devices="tripinfo_f_0_0.5" vType="type1" speedFactor="1.05" vaporized=""/>
    <tripinfo id="f_0_1.6" depart="82.00" departLane="np16_nt1_0" departPos="43.92" departSpeed="0.00" departDelay="0.18" arrival="353.00" arrivalLane="nt16_np8_0" arrivalPos="75.00" arrivalSpeed="18.21" duration="271.00" routeLength="1303.96" waitingTime="94.00" waitingCount="10" stopTime="0.00" timeLoss="177.21" rerouteNo="0" devices="tripinfo_f_0_1.6" vType="type1" speedFactor="0.97" vaporized=""/>
    <tripinfo id="f_0_0.6" depart="82.00" departLane="np13_nt13_0" departPos="59.54" departSpeed="0.00" departDelay="0.18" arrival="358.00" arrivalLane="nt4_np5_0" arrivalPos="75.00" arrivalSpeed="20.09" duration="276.00" routeLength="1288.35" waitingTime="118.00" waitingCount="10" stopTime="0.00" timeLoss="186.22" rerouteNo="0" devices="tripinfo_f_0_0.6" vType="type1" speedFactor="1.01" vaporized=""/>
    <tripinfo id="f_0_0.7" depart="96.00" departLane="np13_nt13_0" departPos="2.36" departSpeed="0.00" departDelay="0.55" arrival="360.00" arrivalLane="nt4_np5_0" arrivalPos="75.00" arrivalSpeed="17.79" duration="264.00" routeLength="1345.53" waitingTime="110.00" waitingCount="7" stopTime="0.00" timeLoss="161.60" rerouteNo="0" devices="tripinfo_f_0_0.7" vType="type1" speedFactor="0.91" vaporized=""/>
    <tripinfo id="f_0_3.20" depart="164.00" departLane="np3_nt3_0" departPos="6.95" departSpeed="0.00" departDelay="0.36" arrival="367.00" arrivalLane="nt14_np11_0" arrivalPos="75.00" arrivalSpeed="9.00" duration="203.00" routeLength="944.14" waitingTime="77.00" waitingCount="7" stopTime="0.00" timeLoss="123.37" rerouteNo="0" devices="tripinfo_f_0_3.20" vType="type1" speedFactor="0.99" vaporized=""/>
    <tripinfo id="f_0_3.21" depart="172.00" departLane="np3_nt3_0" departPos="14.57" departSpeed="0.00" departDelay="0.18" arrival="369.00" arrivalLane="nt14_np11_0" arrivalPos="75.00" arrivalSpeed="10.01" duration="197.00" routeLength="936.52" waitingTime="80.00" waitingCount="8" stopTime="0.00" timeLoss="127.30" rerouteNo="0" devices="tripinfo_f_0_3.21" vType="type1" speedFactor="1.12" vaporized=""/>
    <tripinfo id="f_0_3.22" depart="180.00" departLane="np3_nt3_0" departPos="16.42" departSpeed="0.00" departDelay="0.00" arrival="371.00" arrivalLane="nt14_np11_0" arrivalPos="75.00" arrivalSpeed="11.62" duration="191.00" routeLength="934.67" waitingTime="78.00" waitingCount="7" stopTime="0.00" timeLoss="125.95" rerouteNo="0" devices="tripinfo_f_0_3.22" vType="type1" speedFactor="1.20" vaporized=""/>
    <tripinfo id="f_0_2.14" depart="115.00" departLane="np2_nt2_0" departPos="11.51" departSpeed="0.00" departDelay="0.45" arrival="372.00" arrivalLane="nt15_np10_0" arrivalPos="75.00" arrivalSpeed="8.95" duration="257.00" routeLength="939.57" waitingTime="101.00" waitingCount="9" stopTime="0.00" timeLoss="179.75" rerouteNo="0" devices="tripinfo_f_0_2.14" vType="type1" speedFactor="1.02" vaporized=""/>
    <tripinfo id="f_0_0.8" depart="110.00" departLane="np13_nt13_0" departPos="12.37" departSpeed="0.00" departDelay="0.91" arrival="373.00" arrivalLane="nt4_np5_0" arrivalPos="75.00" arrivalSpeed="15.17" duration="263.00" routeLength="1335.52" waitingTime="102.00" waitingCount="8" stopTime="0.00" timeLoss="155.87" rerouteNo="0" devices="tripinfo_f_0_0.8" vType="type1" speedFactor="0.86" vaporized=""/>
    <tripinfo id="f_0_0.9" depart="123.00" departLane="np13_nt13_0" departPos="51.35" departSpeed="0.00" departDelay="0.28" arrival="374.00" arrivalLane="nt4_np5_0" arrivalPos="75.00" arrivalSpeed="20.27" duration="251.00" routeLength="1296.54" waitingTime="96.00" waitingCount="9" stopTime="0.00" timeLoss="166.33" rerouteNo="0" devices="tripinfo_f_0_0.9" vType="type1" speedFactor="1.06" vaporized=""/>
    <tripinfo id="f_0_2.15" depart="123.00" departLane="np2_nt2_0" departPos="40.31" departSpeed="0.00" departDelay="0.27" arrival="374.00" arrivalLane="nt15_np10_0" arrivalPos="75.00" arrivalSpeed="11.61" duration="251.00" routeLength="910.77" waitingTime="97.00" waitingCount="10" stopTime="0.00" timeLoss="179.56" rerouteNo="0" devices="tripinfo_f_0_2.15" vType="type1" speedFactor="1.07" vaporized=""/>
    <tripinfo id="f_0_2.16" depart="131.00" departLane="np2_nt2_0" departPos="6.59" departSpeed="0.00" departDelay="0.09" arrival="376.00" arrivalLane="nt15_np10_0" arrivalPos="75.00" arrivalSpeed="10.22" duration="245.00" routeLength="944.49" waitingTime="102.00" waitingCount="10" stopTime="0.00" timeLoss="166.85" rerouteNo="0" devices="tripinfo_f_0_2.16" vType="type1" speedFactor="1.02" vaporized=""/>
    <tripinfo id="f_0_0.10" depart="137.00" departLane="np13_nt13_0" departPos="44.01" departSpeed="0.00" departDelay="0.64" arrival="376.00" arrivalLane="nt4_np5_0" arrivalPos="75.00" arrivalSpeed="20.82" duration="239.00" routeLength="1303.88" waitingTime="90.00" waitingCount="9" stopTime="0.00" timeLoss="153.09" rerouteNo="0" devices="tripinfo_f_0_0.10" vType="type1" speedFactor="1.06" vaporized=""/>
    <tripinfo id="f_0_0.11" depart="150.00" departLane="np13_nt13_0" departPos="33.13" departSpeed="0.00" departDelay="0.00" arrival="380.00" arrivalLane="nt4_np5_0" arrivalPos="75.00" arrivalSpeed="17.08" duration="230.00" routeLength="1314.76" waitingTime="73.00" waitingCount="7" stopTime="0.00" timeLoss="127.47" rerouteNo="0" devices="tripinfo_f_0_0.11" vType="type1" speedFactor="0.90" vaporized=""/>
    <tripinfo id="f_0_1.7" depart="96.00" departLane="np16_nt1_0" departPos="1.25" departSpeed="0.00" departDelay="0.55" arrival="384.00" arrivalLane="nt16_np8_0" arrivalPos="75.00" arrivalSpeed="21.65" duration="288.00" routeLength="1346.63" waitingTime="116.00" waitingCount="12" stopTime="0.00" timeLoss="209.45" rerouteNo="0" devices="tripinfo_f_0_1.7" vType="type1" speedFactor="1.20" vaporized=""/>
    <tripinfo id="f_0_0.12" depart="164.00" departLane="np13_nt13_0" departPos="14.03" departSpeed="0.00" departDelay="0.37" arrival="403.00" arrivalLane="nt4_np5_0" arrivalPos="75.00" arrivalSpeed="19.96" duration="239.00" routeLength="1333.86" waitingTime="89.00" waitingCount="7" stopTime="0.00" timeLoss="152.68" rerouteNo="0" devices="tripinfo_f_0_0.12" vType="type1" speedFactor="1.08" vaporized=""/>
    <tripinfo id="f_0_0.13" depart="178.00" departLane="np13_nt13_0" departPos="3.12" departSpeed="0.00" departDelay="0.73" arrival="406.00" arrivalLane="nt4_np5_0" arrivalPos="75.00" arrivalSpeed="16.09" duration="228.00" routeLength="1344.77" waitingTime="65.00" waitingCount="8" stopTime="0.00" timeLoss="118.70" rerouteNo="0" devices="tripinfo_f_0_0.13" vType="type1" speedFactor="0.86" vaporized=""/>
    <tripinfo id="f_0_0.14" depart="191.00" departLane="np13_nt13_0" departPos="32.82" departSpeed="0.00" departDelay="0.10" arrival="407.00" arrivalLane="nt4_np5_0" arrivalPos="75.00" arrivalSpeed="19.02" duration="216.00" routeLength="1315.07" waitingTime="53.00" waitingCount="8" stopTime="0.00" timeLoss="128.15" rerouteNo="0" devices="tripinfo_f_0_0.14" vType="type1" speedFactor="1.04" vaporized=""/>
    <tripinfo id="f_0_1.8" depart="110.00" departLane="np16_nt1_0" departPos="22.99" departSpeed="0.00" departDelay="0.91" arrival="409.00" arrivalLane="nt16_np8_0" arrivalPos="75.00" arrivalSpeed="24.01" duration="299.00" routeLength="1324.89" waitingTime="131.00" waitingCount="12" stopTime="0.00" timeLoss="223.59" rerouteNo="0" devices="tripinfo_f_0_1.8" vType="type1" speedFactor="1.21" vaporized=""/>
    <tripinfo id="f_0_0.15" depart="205.00" departLane="np13_nt13_0" departPos="44.21" departSpeed="0.00" departDelay="0.46" arrival="409.00" arrivalLane="nt4_np5_0" arrivalPos="75.00" arrivalSpeed="16.01" duration="204.00" routeLength="1303.68" waitingTime="44.00" waitingCount="8" stopTime="0.00" timeLoss="98.42" rerouteNo="0" devices="tripinfo_f_0_0.15" vType="type1" speedFactor="0.86" vaporized=""/>
    <tripinfo id="f_0_0.16" depart="219.00" departLane="np13_nt13_0" departPos="48.41" departSpeed="0.00" departDelay="0.82" arrival="434.00" arrivalLane="nt4_np5_0" arrivalPos="75.00" arrivalSpeed="17.59" duration="215.00" routeLength="1299.48" waitingTime="85.00" waitingCount="6" stopTime="0.00" timeLoss="117.78" rerouteNo="0" devices="tripinfo_f_0_0.16" vType="type1" speedFactor="0.94" vaporized=""/>
    <tripinfo id="f_0_0.17" depart="232.00" departLane="np13_nt13_0" departPos="66.25" departSpeed="0.00" departDelay="0.19" arrival="443.00" arrivalLane="nt4_np5_0" arrivalPos="75.00" arrivalSpeed="22.00" duration="211.00" routeLength="1281.64" waitingTime="83.00" waitingCount="6" stopTime="0.00" timeLoss="130.63" rerouteNo="0" devices="tripinfo_f_0_0.17" vType="type1" speedFactor="1.12" vaporized=""/>
    <tripinfo id="f_0_1.9" depart="123.00" departLane="np16_nt1_0" departPos="7.94" departSpeed="0.00" departDelay="0.28" arrival="448.00" arrivalLane="nt16_np8_0" arrivalPos="75.00" arrivalSpeed="19.14" duration="325.00" routeLength="1339.94" waitingTime="136.00" waitingCount="12" stopTime="0.00" timeLoss="232.13" rerouteNo="0" devices="tripinfo_f_0_1.9" vType="type1" speedFactor="1.00" vaporized=""/>
    <tripinfo id="f_0_3.23" depart="189.00" departLane="np3_nt3_0" departPos="21.02" departSpeed="0.00" departDelay="0.81" arrival="454.00" arrivalLane="nt14_np11_0" arrivalPos="75.00" arrivalSpeed="7.53" duration="265.00" routeLength="930.07" waitingTime="142.00" waitingCount="6" stopTime="0.00" timeLoss="177.08" rerouteNo="0" devices="tripinfo_f_0_3.23" vType="type1" speedFactor="0.89" vaporized=""/>
    <tripinfo id="f_0_0.18" depart="246.00" departLane="np13_nt13_0" departPos="62.62" departSpeed="0.00" departDelay="0.55" arrival="458.00" arrivalLane="nt4_np5_0" arrivalPos="75.00" arrivalSpeed="16.73" duration="212.00" routeLength="1285.27" waitingTime="69.00" waitingCount="6" stopTime="0.00" timeLoss="108.21" rerouteNo="0" devices="tripinfo_f_0_0.18" vType="type1" speedFactor="0.86" vaporized=""/>
    <tripinfo id="f_0_2.17" depart="140.00" departLane="np2_nt2_0" departPos="3.71" departSpeed="0.00" departDelay="0.91" arrival="462.00" arrivalLane="nt15_np10_0" arrivalPos="75.00" arrivalSpeed="11.18" duration="322.00" routeLength="947.37" waitingTime="157.00" waitingCount="11" stopTime="0.00" timeLoss="244.21" rerouteNo="0" devices="tripinfo_f_0_2.17" vType="type1" speedFactor="1.02" vaporized=""/>