<?xml version="1.0" encoding="UTF-8"?>

<!-- generated on 2023-08-23 16:01:39 by Eclipse SUMO libsumo Version 1.18.0
<configuration xmlns:xsi="http://www.w3.org/2001/XMLSchema-instance" xsi:noNamespaceSchemaLocation="http://sumo.dlr.de/xsd/libsumoConfiguration.xsd">

    <input>
        <net-file value="/home/stefan/RESCO/./environments/arterial4x4/arterial4x4.net.xml"/>
        <route-files value="/home/stefan/RESCO/./environments/arterial4x4/arterial4x4_15.rou.xml"/>
    </input>

    <output>
        <tripinfo-output value="/home/stefan/results/IDDQN-tr0-arterial4x4-0-drq_norm-wait_norm/tripinfo_15.xml"/>
        <tripinfo-output.write-unfinished value="true"/>
    </output>

    <processing>
        <time-to-teleport value="-1"/>
    </processing>

    <report>
        <no-warnings value="True"/>
        <no-step-log value="True"/>
    </report>

    <random_number>
        <random value="true"/>
    </random_number>

</configuration>
-->

<tripinfos xmlns:xsi="http://www.w3.org/2001/XMLSchema-instance" xsi:noNamespaceSchemaLocation="http://sumo.dlr.de/xsd/tripinfo_file.xsd">
    <tripinfo id="f_0_3.0" depart="0.00" departLane="np3_nt3_0" departPos="57.15" departSpeed="0.00" departDelay="0.00" arrival="122.00" arrivalLane="nt14_np11_0" arrivalPos="75.00" arrivalSpeed="10.19" duration="122.00" routeLength="893.94" waitingTime="32.00" waitingCount="4" stopTime="0.00" timeLoss="52.70" rerouteNo="0" devices="tripinfo_f_0_3.0" vType="type1" speedFactor="1.08" vaporized=""/>
    <tripinfo id="f_0_2.0" depart="0.00" departLane="np2_nt2_0" departPos="4.63" departSpeed="0.00" departDelay="0.00" arrival="132.00" arrivalLane="nt15_np10_0" arrivalPos="75.00" arrivalSpeed="9.20" duration="132.00" routeLength="946.45" waitingTime="30.00" waitingCount="4" stopTime="0.00" timeLoss="55.18" rerouteNo="0" devices="tripinfo_f_0_2.0" vType="type1" speedFactor="1.03" vaporized=""/>
    <tripinfo id="f_0_2.1" depart="9.00" departLane="np2_nt2_0" departPos="53.11" departSpeed="0.00" departDelay="0.82" arrival="134.00" arrivalLane="nt15_np10_0" arrivalPos="75.00" arrivalSpeed="12.46" duration="125.00" routeLength="897.97" waitingTime="32.00" waitingCount="4" stopTime="0.00" timeLoss="61.08" rerouteNo="0" devices="tripinfo_f_0_2.1" vType="type1" speedFactor="1.17" vaporized=""/>
    <tripinfo id="f_0_1.0" depart="0.00" departLane="np16_nt1_0" departPos="45.84" departSpeed="0.00" departDelay="0.00" arrival="147.00" arrivalLane="nt16_np8_0" arrivalPos="75.00" arrivalSpeed="19.80" duration="147.00" routeLength="1302.04" waitingTime="34.00" waitingCount="4" stopTime="0.00" timeLoss="59.77" rerouteNo="0" devices="tripinfo_f_0_1.0" vType="type1" speedFactor="1.04" vaporized=""/>
    <tripinfo id="f_0_3.1" depart="9.00" departLane="np3_nt3_0" departPos="53.33" departSpeed="0.00" departDelay="0.82" arrival="150.00" arrivalLane="nt14_np11_0" arrivalPos="75.00" arrivalSpeed="7.73" duration="141.00" routeLength="897.76" waitingTime="29.00" waitingCount="3" stopTime="0.00" timeLoss="53.66" rerouteNo="0" devices="tripinfo_f_0_3.1" vType="type1" speedFactor="0.87" vaporized=""/>
    <tripinfo id="f_0_0.0" depart="0.00" departLane="np13_nt13_0" departPos="13.97" departSpeed="0.00" departDelay="0.00" arrival="169.00" arrivalLane="nt4_np5_0" arrivalPos="75.00" arrivalSpeed="16.20" duration="169.00" routeLength="1333.92" waitingTime="25.00" waitingCount="5" stopTime="0.00" timeLoss="65.07" rerouteNo="0" devices="tripinfo_f_0_0.0" vType="type1" speedFactor="0.89" vaporized=""/>
    <tripinfo id="f_0_0.1" depart="14.00" departLane="np13_nt13_0" departPos="45.78" departSpeed="0.00" departDelay="0.36" arrival="170.00" arrivalLane="nt4_np5_0" arrivalPos="75.00" arrivalSpeed="18.32" duration="156.00" routeLength="1302.11" waitingTime="13.00" waitingCount="4" stopTime="0.00" timeLoss="69.14" rerouteNo="0" devices="tripinfo_f_0_0.1" vType="type1" speedFactor="1.04" vaporized=""/>
    <tripinfo id="f_0_2.2" depart="17.00" departLane="np2_nt2_0" departPos="26.70" departSpeed="0.00" departDelay="0.64" arrival="173.00" arrivalLane="nt15_np10_0" arrivalPos="75.00" arrivalSpeed="10.10" duration="156.00" routeLength="924.38" waitingTime="54.00" waitingCount="4" stopTime="0.00" timeLoss="79.08" rerouteNo="0" devices="tripinfo_f_0_2.2" vType="type1" speedFactor="1.01" vaporized=""/>
    <tripinfo id="f_0_0.2" depart="28.00" departLane="np13_nt13_0" departPos="42.72" departSpeed="0.00" departDelay="0.73" arrival="190.00" arrivalLane="nt4_np5_0" arrivalPos="75.00" arrivalSpeed="19.70" duration="162.00" routeLength="1305.17" waitingTime="44.00" waitingCount="5" stopTime="0.00" timeLoss="72.55" rerouteNo="0" devices="tripinfo_f_0_0.2" vType="type1" speedFactor="1.02" vaporized=""/>
    <tripinfo id="f_0_1.1" depart="14.00" departLane="np16_nt1_0" departPos="60.97" departSpeed="0.00" departDelay="0.36" arrival="202.00" arrivalLane="nt16_np8_0" arrivalPos="75.00" arrivalSpeed="18.73" duration="188.00" routeLength="1286.91" waitingTime="72.00" waitingCount="5" stopTime="0.00" timeLoss="99.86" rerouteNo="0" devices="tripinfo_f_0_1.1" vType="type1" speedFactor="1.03" vaporized=""/>
    <tripinfo id="f_0_2.3" depart="25.00" departLane="np2_nt2_0" departPos="37.89" departSpeed="0.00" departDelay="0.45" arrival="212.00" arrivalLane="nt15_np10_0" arrivalPos="75.00" arrivalSpeed="9.13" duration="187.00" routeLength="913.19" waitingTime="75.00" waitingCount="6" stopTime="0.00" timeLoss="112.50" rerouteNo="0" devices="tripinfo_f_0_2.3" vType="type1" speedFactor="1.03" vaporized=""/>
    <tripinfo id="f_0_2.4" depart="33.00" departLane="np2_nt2_0" departPos="54.91" departSpeed="0.00" departDelay="0.27" arrival="216.00" arrivalLane="nt15_np10_0" arrivalPos="75.00" arrivalSpeed="7.51" duration="183.00" routeLength="896.17" waitingTime="60.00" waitingCount="6" stopTime="0.00" timeLoss="91.68" rerouteNo="0" devices="tripinfo_f_0_2.4" vType="type1" speedFactor="0.82" vaporized=""/>
    <tripinfo id="f_0_2.5" depart="41.00" departLane="np2_nt2_0" departPos="7.21" departSpeed="0.00" departDelay="0.09" arrival="218.00" arrivalLane="nt15_np10_0" arrivalPos="75.00" arrivalSpeed="10.71" duration="177.00" routeLength="943.87" waitingTime="48.00" waitingCount="6" stopTime="0.00" timeLoss="98.48" rerouteNo="0" devices="tripinfo_f_0_2.5" vType="type1" speedFactor="1.01" vaporized=""/>
    <tripinfo id="f_0_0.3" depart="41.00" departLane="np13_nt13_0" departPos="6.10" departSpeed="0.00" departDelay="0.09" arrival="220.00" arrivalLane="nt4_np5_0" arrivalPos="75.00" arrivalSpeed="15.40" duration="179.00" routeLength="1341.79" waitingTime="27.00" waitingCount="2" stopTime="0.00" timeLoss="61.14" rerouteNo="0" devices="tripinfo_f_0_0.3" vType="type1" speedFactor="0.79" vaporized=""/>
    <tripinfo id="f_0_1.2" depart="28.00" departLane="np16_nt1_0" departPos="52.19" departSpeed="0.00" departDelay="0.73" arrival="226.00" arrivalLane="nt16_np8_0" arrivalPos="75.00" arrivalSpeed="20.09" duration="198.00" routeLength="1295.69" waitingTime="53.00" waitingCount="6" stopTime="0.00" timeLoss="113.49" rerouteNo="0" devices="tripinfo_f_0_1.2" vType="type1" speedFactor="1.07" vaporized=""/>
    <tripinfo id="f_0_3.2" depart="17.00" departLane="np3_nt3_0" departPos="43.54" departSpeed="0.00" departDelay="0.64" arrival="227.00" arrivalLane="nt14_np11_0" arrivalPos="75.00" arrivalSpeed="9.36" duration="210.00" routeLength="907.55" waitingTime="112.00" waitingCount="5" stopTime="0.00" timeLoss="139.04" rerouteNo="0" devices="tripinfo_f_0_3.2" vType="type1" speedFactor="1.07" vaporized=""/>
    <tripinfo id="f_0_2.6" depart="50.00" departLane="np2_nt2_0" departPos="22.19" departSpeed="0.00" departDelay="0.91" arrival="228.00" arrivalLane="nt15_np10_0" arrivalPos="75.00" arrivalSpeed="8.19" duration="178.00" routeLength="928.89" waitingTime="46.00" waitingCount="6" stopTime="0.00" timeLoss="94.02" rerouteNo="0" devices="tripinfo_f_0_2.6" vType="type1" speedFactor="0.93" vaporized=""/>
    <tripinfo id="f_0_3.3" depart="25.00" departLane="np3_nt3_0" departPos="16.25" departSpeed="0.00" departDelay="0.45" arrival="232.00" arrivalLane="nt14_np11_0" arrivalPos="75.00" arrivalSpeed="8.51" duration="207.00" routeLength="934.84" waitingTime="77.00" waitingCount="7" stopTime="0.00" timeLoss="111.42" rerouteNo="0" devices="tripinfo_f_0_3.3" vType="type1" speedFactor="0.82" vaporized=""/>
    <tripinfo id="f_0_0.4" depart="55.00" departLane="np13_nt13_0" departPos="64.56" departSpeed="0.00" departDelay="0.46" arrival="233.00" arrivalLane="nt4_np5_0" arrivalPos="75.00" arrivalSpeed="17.87" duration="178.00" routeLength="1283.33" waitingTime="39.00" waitingCount="4" stopTime="0.00" timeLoss="88.93" rerouteNo="0" devices="tripinfo_f_0_0.4" vType="type1" speedFactor="1.01" vaporized=""/>
    <tripinfo id="f_0_3.4" depart="33.00" departLane="np3_nt3_0" departPos="46.13" departSpeed="0.00" departDelay="0.27" arrival="248.00" arrivalLane="nt14_np11_0" arrivalPos="75.00" arrivalSpeed="8.58" duration="215.00" routeLength="904.96" waitingTime="91.00" waitingCount="8" stopTime="0.00" timeLoss="131.62" rerouteNo="0" devices="tripinfo_f_0_3.4" vType="type1" speedFactor="0.90" vaporized=""/>
    <tripinfo id="f_0_2.7" depart="58.00" departLane="np2_nt2_0" departPos="37.80" departSpeed="0.00" departDelay="0.73" arrival="254.00" arrivalLane="nt15_np10_0" arrivalPos="75.00" arrivalSpeed="7.71" duration="196.00" routeLength="913.28" waitingTime="54.00" waitingCount="5" stopTime="0.00" timeLoss="103.91" rerouteNo="0" devices="tripinfo_f_0_2.7" vType="type1" speedFactor="0.83" vaporized=""/>
    <tripinfo id="f_0_3.5" depart="41.00" departLane="np3_nt3_0" departPos="40.54" departSpeed="0.00" departDelay="0.09" arrival="256.00" arrivalLane="nt14_np11_0" arrivalPos="75.00" arrivalSpeed="12.39" duration="215.00" routeLength="910.55" waitingTime="89.00" waitingCount="11" stopTime="0.00" timeLoss="150.36" rerouteNo="0" devices="tripinfo_f_0_3.5" vType="type1" speedFactor="1.18" vaporized=""/>
    <tripinfo id="f_0_2.8" depart="66.00" departLane="np2_nt2_0" departPos="45.73" departSpeed="0.00" departDelay="0.54" arrival="256.00" arrivalLane="nt15_np10_0" arrivalPos="75.00" arrivalSpeed="9.05" duration="190.00" routeLength="905.35" waitingTime="44.00" waitingCount="5" stopTime="0.00" timeLoss="116.72" rerouteNo="0" devices="tripinfo_f_0_2.8" vType="type1" speedFactor="1.04" vaporized=""/>
    <tripinfo id="f_0_1.3" depart="41.00" departLane="np16_nt1_0" departPos="12.40" departSpeed="0.00" departDelay="0.09" arrival="259.00" arrivalLane="nt16_np8_0" arrivalPos="75.00" arrivalSpeed="15.39" duration="218.00" routeLength="1335.48" waitingTime="49.00" waitingCount="6" stopTime="0.00" timeLoss="105.40" rerouteNo="0" devices="tripinfo_f_0_1.3" vType="type1" speedFactor="0.82" vaporized=""/>
    <tripinfo id="f_0_3.6" depart="50.00" departLane="np3_nt3_0" departPos="6.22" departSpeed="0.00" departDelay="0.91" arrival="259.00" arrivalLane="nt14_np11_0" arrivalPos="75.00" arrivalSpeed="10.89" duration="209.00" routeLength="944.87" waitingTime="73.00" waitingCount="11" stopTime="0.00" timeLoss="128.74" rerouteNo="0" devices="tripinfo_f_0_3.6" vType="type1" speedFactor="0.99" vaporized=""/>
    <tripinfo id="f_0_3.7" depart="58.00" departLane="np3_nt3_0" departPos="9.51" departSpeed="0.00" departDelay="0.73" arrival="262.00" arrivalLane="nt14_np11_0" arrivalPos="75.00" arrivalSpeed="10.47" duration="204.00" routeLength="941.58" waitingTime="67.00" waitingCount="11" stopTime="0.00" timeLoss="122.23" rerouteNo="0" devices="tripinfo_f_0_3.7" vType="type1" speedFactor="0.97" vaporized=""/>
    <tripinfo id="f_0_2.9" depart="74.00" departLane="np2_nt2_0" departPos="15.85" departSpeed="0.00" departDelay="0.36" arrival="262.00" arrivalLane="nt15_np10_0" arrivalPos="75.00" arrivalSpeed="10.78" duration="188.00" routeLength="935.23" waitingTime="45.00" waitingCount="5" stopTime="0.00" timeLoss="111.55" rerouteNo="0" devices="tripinfo_f_0_2.9" vType="type1" speedFactor="1.04" vaporized=""/>
    <tripinfo id="f_0_3.8" depart="66.00" departLane="np3_nt3_0" departPos="14.46" departSpeed="0.00" departDelay="0.54" arrival="265.00" arrivalLane="nt14_np11_0" arrivalPos="75.00" arrivalSpeed="9.27" duration="199.00" routeLength="936.63" waitingTime="65.00" waitingCount="8" stopTime="0.00" timeLoss="110.31" rerouteNo="0" devices="tripinfo_f_0_3.8" vType="type1" speedFactor="0.88" vaporized=""/>
    <tripinfo id="f_0_2.10" depart="82.00" departLane="np2_nt2_0" departPos="18.09" departSpeed="0.00" departDelay="0.18" arrival="268.00" arrivalLane="nt15_np10_0" arrivalPos="75.00" arrivalSpeed="8.19" duration="186.00" routeLength="932.99" waitingTime="45.00" waitingCount="7" stopTime="0.00" timeLoss="101.05" rerouteNo="0" devices="tripinfo_f_0_2.10" vType="type1" speedFactor="0.92" vaporized=""/>
    <tripinfo id="f_0_3.9" depart="74.00" departLane="np3_nt3_0" departPos="18.23" departSpeed="0.00" departDelay="0.36" arrival="273.00" arrivalLane="nt14_np11_0" arrivalPos="75.00" arrivalSpeed="7.26" duration="199.00" routeLength="932.86" waitingTime="56.00" waitingCount="8" stopTime="0.00" timeLoss="110.49" rerouteNo="0" devices="tripinfo_f_0_3.9" vType="type1" speedFactor="0.88" vaporized=""/>
    <tripinfo id="f_0_2.11" depart="90.00" departLane="np2_nt2_0" departPos="15.06" departSpeed="0.00" departDelay="0.00" arrival="277.00" arrivalLane="nt15_np10_0" arrivalPos="75.00" arrivalSpeed="10.06" duration="187.00" routeLength="936.02" waitingTime="46.00" waitingCount="7" stopTime="0.00" timeLoss="112.84" rerouteNo="0" devices="tripinfo_f_0_2.11" vType="type1" speedFactor="1.06" vaporized=""/>
    <tripinfo id="f_0_1.4" depart="55.00" departLane="np16_nt1_0" departPos="27.30" departSpeed="0.00" departDelay="0.46" arrival="293.00" arrivalLane="nt16_np8_0" arrivalPos="75.00" arrivalSpeed="18.83" duration="238.00" routeLength="1320.58" waitingTime="69.00" waitingCount="7" stopTime="0.00" timeLoss="145.39" rerouteNo="0" devices="tripinfo_f_0_1.4" vType="type1" speedFactor="0.99" vaporized=""/>
    <tripinfo id="f_0_3.10" depart="82.00" departLane="np3_nt3_0" departPos="0.00" departSpeed="0.00" departDelay="0.18" arrival="297.00" arrivalLane="nt14_np11_0" arrivalPos="75.00" arrivalSpeed="9.96" duration="215.00" routeLength="951.09" waitingTime="86.00" waitingCount="6" stopTime="0.00" timeLoss="135.23" rerouteNo="0" devices="tripinfo_f_0_3.10" vType="type1" speedFactor="1.00" vaporized=""/>
    <tripinfo id="f_0_0.5" depart="69.00" departLane="np13_nt13_0" departPos="24.99" departSpeed="0.00" departDelay="0.82" arrival="299.00" arrivalLane="nt4_np5_0" arrivalPos="75.00" arrivalSpeed="17.05" duration="230.00" routeLength="1322.90" waitingTime="96.00" waitingCount="6" stopTime="0.00" timeLoss="129.82" rerouteNo="0" devices="tripinfo_f_0_0.5" vType="type1" speedFactor="0.92" vaporized=""/>
    <tripinfo id="f_0_3.11" depart="90.00" departLane="np3_nt3_0" departPos="8.31" departSpeed="0.00" departDelay="0.00" arrival="299.00" arrivalLane="nt14_np11_0" arrivalPos="75.00" arrivalSpeed="10.39" duration="209.00" routeLength="942.78" waitingTime="76.00" waitingCount="6" stopTime="0.00" timeLoss="135.95" rerouteNo="0" devices="tripinfo_f_0_3.11" vType="type1" speedFactor="1.09" vaporized=""/>
    <tripinfo id="f_0_2.12" depart="99.00" departLane="np2_nt2_0" departPos="26.37" departSpeed="0.00" departDelay="0.82" arrival="299.00" arrivalLane="nt15_np10_0" arrivalPos="75.00" arrivalSpeed="7.18" duration="200.00" routeLength="924.71" waitingTime="58.00" waitingCount="8" stopTime="0.00" timeLoss="108.77" rerouteNo="0" devices="tripinfo_f_0_2.12" vType="type1" speedFactor="0.85" vaporized=""/>
    <tripinfo id="f_0_0.6" depart="82.00" departLane="np13_nt13_0" departPos="27.75" departSpeed="0.00" departDelay="0.18" arrival="300.00" arrivalLane="nt4_np5_0" arrivalPos="75.00" arrivalSpeed="18.49" duration="218.00" routeLength="1320.14" waitingTime="80.00" waitingCount="6" stopTime="0.00" timeLoss="121.38" rerouteNo="0" devices="tripinfo_f_0_0.6" vType="type1" speedFactor="0.95" vaporized=""/>
    <tripinfo id="f_0_0.7" depart="96.00" departLane="np13_nt13_0" departPos="11.46" departSpeed="0.00" departDelay="0.55" arrival="302.00" arrivalLane="nt4_np5_0" arrivalPos="75.00" arrivalSpeed="19.76" duration="206.00" routeLength="1336.43" waitingTime="75.00" waitingCount="6" stopTime="0.00" timeLoss="116.35" rerouteNo="0" devices="tripinfo_f_0_0.7" vType="type1" speedFactor="1.04" vaporized=""/>
    <tripinfo id="f_0_0.8" depart="110.00" departLane="np13_nt13_0" departPos="34.56" departSpeed="0.00" departDelay="0.91" arrival="303.00" arrivalLane="nt4_np5_0" arrivalPos="75.00" arrivalSpeed="18.65" duration="193.00" routeLength="1313.33" waitingTime="61.00" waitingCount="4" stopTime="0.00" timeLoss="98.59" rerouteNo="0" devices="tripinfo_f_0_0.8" vType="type1" speedFactor="0.97" vaporized=""/>
    <tripinfo id="f_0_1.5" depart="69.00" departLane="np16_nt1_0" departPos="27.98" departSpeed="0.00" departDelay="0.82" arrival="319.00" arrivalLane="nt16_np8_0" arrivalPos="75.00" arrivalSpeed="17.71" duration="250.00" routeLength="1319.90" waitingTime="94.00" waitingCount="8" stopTime="0.00" timeLoss="151.02" rerouteNo="0" devices="tripinfo_f_0_1.5" vType="type1" speedFactor="0.93" vaporized=""/>
    <tripinfo id="f_0_1.6" depart="82.00" departLane="np16_nt1_0" departPos="37.91" departSpeed="0.00" departDelay="0.18" arrival="320.00" arrivalLane="nt16_np8_0" arrivalPos="75.00" arrivalSpeed="17.87" duration="238.00" routeLength="1309.97" waitingTime="88.00" waitingCount="7" stopTime="0.00" timeLoss="140.59" rerouteNo="0" devices="tripinfo_f_0_1.6" vType="type1" speedFactor="0.93" vaporized=""/>
    <tripinfo id="f_0_2.13" depart="107.00" departLane="np2_nt2_0" departPos="55.87" departSpeed="0.00" departDelay="0.63" arrival="337.00" arrivalLane="nt15_np10_0" arrivalPos="75.00" arrivalSpeed="10.62" duration="230.00" routeLength="895.21" waitingTime="111.00" waitingCount="7" stopTime="0.00" timeLoss="156.90" rerouteNo="0" devices="tripinfo_f_0_2.13" vType="type1" speedFactor="1.02" vaporized=""/>
    <tripinfo id="f_0_2.14" depart="115.00" departLane="np2_nt2_0" departPos="12.50" departSpeed="0.00" departDelay="0.45" arrival="339.00" arrivalLane="nt15_np10_0" arrivalPos="75.00" arrivalSpeed="10.61" duration="224.00" routeLength="938.58" waitingTime="113.00" waitingCount="7" stopTime="0.00" timeLoss="149.26" rerouteNo="0" devices="tripinfo_f_0_2.14" vType="type1" speedFactor="1.07" vaporized=""/>
    <tripinfo id="f_0_2.15" depart="123.00" departLane="np2_nt2_0" departPos="8.14" departSpeed="0.00" departDelay="0.27" arrival="347.00" arrivalLane="nt15_np10_0" arrivalPos="75.00" arrivalSpeed="10.54" duration="224.00" routeLength="942.94" waitingTime="99.00" waitingCount="9" stopTime="0.00" timeLoss="145.14" rerouteNo="0" devices="tripinfo_f_0_2.15" vType="type1" speedFactor="1.01" vaporized=""/>
    <tripinfo id="f_0_3.12" depart="99.00" departLane="np3_nt3_0" departPos="24.75" departSpeed="0.00" departDelay="0.82" arrival="348.00" arrivalLane="nt14_np11_0" arrivalPos="75.00" arrivalSpeed="9.72" duration="249.00" routeLength="926.34" waitingTime="133.00" waitingCount="7" stopTime="0.00" timeLoss="165.24" rerouteNo="0" devices="tripinfo_f_0_3.12" vType="type1" speedFactor="0.93" vaporized=""/>
    <tripinfo id="f_0_3.13" depart="107.00" departLane="np3_nt3_0" departPos="0.00" departSpeed="0.00" departDelay="0.63" arrival="350.00" arrivalLane="nt14_np11_0" arrivalPos="75.00" arrivalSpeed="9.96" duration="243.00" routeLength="951.09" waitingTime="114.00" waitingCount="8" stopTime="0.00" timeLoss="157.68" rerouteNo="0" devices="tripinfo_f_0_3.13" vType="type1" speedFactor="0.94" vaporized=""/>
    <tripinfo id="f_0_0.9" depart="123.00" departLane="np13_nt13_0" departPos="41.38" departSpeed="0.00" departDelay="0.28" arrival="352.00" arrivalLane="nt4_np5_0" arrivalPos="75.00" arrivalSpeed="17.61" duration="229.00" routeLength="1306.51" waitingTime="95.00" waitingCount="6" stopTime="0.00" timeLoss="131.93" rerouteNo="0" devices="tripinfo_f_0_0.9" vType="type1" speedFactor="0.94" vaporized=""/>
    <tripinfo id="f_0_0.10" depart="137.00" departLane="np13_nt13_0" departPos="42.21" departSpeed="0.00" departDelay="0.64" arrival="354.00" arrivalLane="nt4_np5_0" arrivalPos="75.00" arrivalSpeed="16.31" duration="217.00" routeLength="1305.68" waitingTime="78.00" waitingCount="4" stopTime="0.00" timeLoss="118.71" rerouteNo="0" devices="tripinfo_f_0_0.10" vType="type1" speedFactor="0.93" vaporized=""/>
    <tripinfo id="f_0_2.16" depart="131.00" departLane="np2_nt2_0" departPos="15.63" departSpeed="0.00" departDelay="0.09" arrival="356.00" arrivalLane="nt15_np10_0" arrivalPos="75.00" arrivalSpeed="12.03" duration="225.00" routeLength="935.45" waitingTime="84.00" waitingCount="9" stopTime="0.00" timeLoss="155.16" rerouteNo="0" devices="tripinfo_f_0_2.16" vType="type1" speedFactor="1.13" vaporized=""/>
    <tripinfo id="f_0_3.14" depart="115.00" departLane="np3_nt3_0" departPos="4.78" departSpeed="0.00" departDelay="0.45" arrival="357.00" arrivalLane="nt14_np11_0" arrivalPos="75.00" arrivalSpeed="9.50" duration="242.00" routeLength="946.31" waitingTime="113.00" waitingCount="6" stopTime="0.00" timeLoss="162.62" rerouteNo="0" devices="tripinfo_f_0_3.14" vType="type1" speedFactor="1.00" vaporized=""/>
    <tripinfo id="f_0_3.15" depart="123.00" departLane="np3_nt3_0" departPos="11.07" departSpeed="0.00" departDelay="0.27" arrival="359.00" arrivalLane="nt14_np11_0" arrivalPos="75.00" arrivalSpeed="11.11" duration="236.00" routeLength="940.02" waitingTime="106.00" waitingCount="7" stopTime="0.00" timeLoss="165.10" rerouteNo="0" devices="tripinfo_f_0_3.15" vType="type1" speedFactor="1.11" vaporized=""/>
    <tripinfo id="f_0_2.17" depart="140.00" departLane="np2_nt2_0" departPos="25.32" departSpeed="0.00" departDelay="0.91" arrival="360.00" arrivalLane="nt15_np10_0" arrivalPos="75.00" arrivalSpeed="10.04" duration="220.00" routeLength="925.76" waitingTime="75.00" waitingCount="9" stopTime="0.00" timeLoss="138.77" rerouteNo="0" devices="tripinfo_f_0_2.17" vType="type1" speedFactor="0.96" vaporized=""/>
    <tripinfo id="f_0_2.18" depart="148.00" departLane="np2_nt2_0" departPos="24.19" departSpeed="0.00" departDelay="0.72" arrival="362.00" arrivalLane="nt15_np10_0" arrivalPos="75.00" arrivalSpeed="9.15" duration="214.00" routeLength="926.89" waitingTime="69.00" waitingCount="8" stopTime="0.00" timeLoss="137.18" rerouteNo="0" devices="tripinfo_f_0_2.18" vType="type1" speedFactor="1.02" vaporized=""/>
    <tripinfo id="f_0_1.7" depart="96.00" departLane="np16_nt1_0" departPos="20.72" departSpeed="0.00" departDelay="0.55" arrival="369.00" arrivalLane="nt16_np8_0" arrivalPos="75.00" arrivalSpeed="18.43" duration="273.00" routeLength="1327.16" waitingTime="110.00" waitingCount="11" stopTime="0.00" timeLoss="173.41" rerouteNo="0" devices="tripinfo_f_0_1.7" vType="type1" speedFactor="0.93" vaporized=""/>
    <tripinfo id="f_0_1.8" depart="110.00" departLane="np16_nt1_0" departPos="28.82" departSpeed="0.00" departDelay="0.91" arrival="383.00" arrivalLane="nt16_np8_0" arrivalPos="75.00" arrivalSpeed="20.78" duration="273.00" routeLength="1319.06" waitingTime="105.00" waitingCount="8" stopTime="0.00" timeLoss="187.30" rerouteNo="0" devices="tripinfo_f_0_1.8" vType="type1" speedFactor="1.07" vaporized=""/>
    <tripinfo id="f_0_3.16" depart="131.00" departLane="np3_nt3_0" departPos="0.00" departSpeed="0.00" departDelay="0.09" arrival="383.00" arrivalLane="nt14_np11_0" arrivalPos="75.00" arrivalSpeed="8.65" duration="252.00" routeLength="951.09" waitingTime="119.00" waitingCount="9" stopTime="0.00" timeLoss="165.07" rerouteNo="0" devices="tripinfo_f_0_3.16" vType="type1" speedFactor="0.92" vaporized=""/>
    <tripinfo id="f_0_1.9" depart="123.00" departLane="np16_nt1_0" departPos="47.57" departSpeed="0.00" departDelay="0.28" arrival="385.00" arrivalLane="nt16_np8_0" arrivalPos="75.00" arrivalSpeed="19.08" duration="262.00" routeLength="1300.31" waitingTime="91.00" waitingCount="9" stopTime="0.00" timeLoss="176.99" rerouteNo="0" devices="tripinfo_f_0_1.9" vType="type1" speedFactor="1.07" vaporized=""/>
    <tripinfo id="f_0_1.10" depart="137.00" departLane="np16_nt1_0" departPos="56.75" departSpeed="0.00" departDelay="0.64" arrival="387.00" arrivalLane="nt16_np8_0" arrivalPos="75.00" arrivalSpeed="15.00" duration="250.00" routeLength="1291.13" waitingTime="73.00" waitingCount="9" stopTime="0.00" timeLoss="143.63" rerouteNo="0" devices="tripinfo_f_0_1.10" vType="type1" speedFactor="0.85" vaporized=""/>
    <tripinfo id="f_0_0.11" depart="150.00" departLane="np13_nt13_0" departPos="40.91" departSpeed="0.00" departDelay="0.00" arrival="388.00" arrivalLane="nt4_np5_0" arrivalPos="75.00" arrivalSpeed="23.83" duration="238.00" routeLength="1306.98" waitingTime="105.00" waitingCount="6" stopTime="0.00" timeLoss="162.41" rerouteNo="0" devices="tripinfo_f_0_0.11" vType="type1" speedFactor="1.21" vaporized=""/>
    <tripinfo id="f_0_2.19" depart="156.00" departLane="np2_nt2_0" departPos="40.09" departSpeed="0.00" departDelay="0.54" arrival="392.00" arrivalLane="nt15_np10_0" arrivalPos="75.00" arrivalSpeed="10.44" duration="236.00" routeLength="910.99" waitingTime="80.00" waitingCount="8" stopTime="0.00" timeLoss="164.78" rerouteNo="0" devices="tripinfo_f_0_2.19" vType="type1" speedFactor="1.07" vaporized=""/>
    <tripinfo id="f_0_3.17" depart="142.00" departLane="np3_nt3_0" departPos="0.00" departSpeed="0.00" departDelay="2.91" arrival="404.00" arrivalLane="nt14_np11_0" arrivalPos="75.00" arrivalSpeed="7.17" duration="262.00" routeLength="951.09" waitingTime="128.00" waitingCount="8" stopTime="0.00" timeLoss="169.94" rerouteNo="0" devices="tripinfo_f_0_3.17" vType="type1" speedFactor="0.87" vaporized=""/>
    <tripinfo id="f_0_0.12" depart="164.00" departLane="np13_nt13_0" departPos="38.61" departSpeed="0.00" departDelay="0.37" arrival="408.00" arrivalLane="nt4_np5_0" arrivalPos="75.00" arrivalSpeed="21.69" duration="244.00" routeLength="1309.28" waitingTime="117.00" waitingCount="8" stopTime="0.00" timeLoss="159.40" rerouteNo="0" devices="tripinfo_f_0_0.12" vType="type1" speedFactor="1.08" vaporized=""/>
    <tripinfo id="f_0_2.20" depart="164.00" departLane="np2_nt2_0" departPos="0.68" departSpeed="0.00" departDelay="0.36" arrival="408.00" arrivalLane="nt15_np10_0" arrivalPos="75.00" arrivalSpeed="10.01" duration="244.00" routeLength="950.40" waitingTime="97.00" waitingCount="8" stopTime="0.00" timeLoss="155.88" rerouteNo="0" devices="tripinfo_f_0_2.20" vType="type1" speedFactor="0.91" vaporized=""/>
    <tripinfo id="f_0_0.13" depart="178.00" departLane="np13_nt13_0" departPos="10.49" departSpeed="0.00" departDelay="0.73" arrival="409.00" arrivalLane="nt4_np5_0" arrivalPos="75.00" arrivalSpeed="20.41" duration="231.00" routeLength="1337.40" waitingTime="98.00" waitingCount="8" stopTime="0.00" timeLoss="144.88" rerouteNo="0" devices="tripinfo_f_0_0.13" vType="type1" speedFactor="1.07" vaporized=""/>
    <tripinfo id="f_0_2.21" depart="172.00" departLane="np2_nt2_0" departPos="43.73" departSpeed="0.00" departDelay="0.18" arrival="410.00" arrivalLane="nt15_np10_0" arrivalPos="75.00" arrivalSpeed="9.68" duration="238.00" routeLength="907.35" waitingTime="91.00" waitingCount="7" stopTime="0.00" timeLoss="159.55" rerouteNo="0" devices="tripinfo_f_0_2.21" vType="type1" speedFactor="0.98" vaporized=""/>
    <tripinfo id="f_0_0.14" depart="191.00" departLane="np13_nt13_0" departPos="7.71" departSpeed="0.00" departDelay="0.10" arrival="438.00" arrivalLane="nt4_np5_0" arrivalPos="75.00" arrivalSpeed="16.89" duration="247.00" routeLength="1340.18" waitingTime="100.00" waitingCount="7" stopTime="0.00" timeLoss="137.78" rerouteNo="0" devices="tripinfo_f_0_0.14" vType="type1" speedFactor="0.85" vaporized=""/>
    <tripinfo id="f_0_1.11" depart="150.00" departLane="np16_nt1_0" departPos="21.98" departSpeed="0.00" departDelay="0.00" arrival="444.00" arrivalLane="nt16_np8_0" arrivalPos="75.00" arrivalSpeed="19.37" duration="294.00" routeLength="1325.90" waitingTime="115.00" waitingCount="11" stopTime="0.00" timeLoss="200.07" rerouteNo="0" devices="tripinfo_f_0_1.11" vType="type1" speedFactor="0.98" vaporized=""/>
    <tripinfo id="f_0_3.18" depart="148.00" departLane="np3_nt3_0" departPos="5.02" departSpeed="0.00" departDelay="0.72" arrival="447.00" arrivalLane="nt14_np11_0" arrivalPos="75.00" arrivalSpeed="10.43" duration="299.00" routeLength="946.07" waitingTime="174.00" waitingCount="9" stopTime="0.00" timeLoss="218.03" rerouteNo="0" devices="tripinfo_f_0_3.18" vType="type1" speedFactor="0.98" vaporized=""/>
    <tripinfo id="f_0_3.19" depart="156.00" departLane="np3_nt3_0" departPos="5.29" departSpeed="0.00" departDelay="0.54" arrival="449.00" arrivalLane="nt14_np11_0" arrivalPos="75.00" arrivalSpeed="10.63" duration="293.00" routeLength="945.80" waitingTime="161.00" waitingCount="9" stopTime="0.00" timeLoss="216.20" rerouteNo="0" devices="tripinfo_f_0_3.19" vType="type1" speedFactor="1.03" vaporized=""/>
    <tripinfo id="f_0_0.15" depart="205.00" departLane="np13_nt13_0" departPos="52.85" departSpeed="0.00" departDelay="0.46" arrival="452.00" arrivalLane="nt4_np5_0" arrivalPos="75.00" arrivalSpeed="19.04" duration="247.00" routeLength="1295.04" waitingTime="102.00" waitingCount="8" stopTime="0.00" timeLoss="154.04" rerouteNo="0" devices="tripinfo_f_0_0.15" vType="type1" speedFactor="0.97" vaporized=""/>
    <tripinfo id="f_0_3.20" depart="164.00" departLane="np3_nt3_0" departPos="0.00" departSpeed="0.00" departDelay="0.36" arrival="461.00" arrivalLane="nt14_np11_0" arrivalPos="75.00" arrivalSpeed="12.24" duration="297.00" routeLength="951.09" waitingTime="158.00" waitingCount="10" stopTime="0.00" timeLoss="226.31" rerouteNo="0" devices="tripinfo_f_0_3.20" vType="type1" speedFactor="1.13" vaporized=""/>