<?xml version="1.0" encoding="UTF-8"?>

<!-- generated on 2023-08-23 16:21:43 by Eclipse SUMO libsumo Version 1.18.0
<configuration xmlns:xsi="http://www.w3.org/2001/XMLSchema-instance" xsi:noNamespaceSchemaLocation="http://sumo.dlr.de/xsd/libsumoConfiguration.xsd">

    <input>
        <net-file value="/home/stefan/RESCO/./environments/arterial4x4/arterial4x4.net.xml"/>
        <route-files value="/home/stefan/RESCO/./environments/arterial4x4/arterial4x4_39.rou.xml"/>
    </input>

    <output>
        <tripinfo-output value="/home/stefan/results/IDDQN-tr0-arterial4x4-0-drq_norm-wait_norm/tripinfo_39.xml"/>
        <tripinfo-output.write-unfinished value="true"/>
    </output>

    <processing>
        <time-to-teleport value="-1"/>
    </processing>

    <report>
        <no-warnings value="True"/>
        <no-step-log value="True"/>
    </report>

    <random_number>
        <random value="true"/>
    </random_number>

</configuration>
-->

<tripinfos xmlns:xsi="http://www.w3.org/2001/XMLSchema-instance" xsi:noNamespaceSchemaLocation="http://sumo.dlr.de/xsd/tripinfo_file.xsd">
    <tripinfo id="f_0_2.0" depart="0.00" departLane="np2_nt2_0" departPos="45.85" departSpeed="0.00" departDelay="0.00" arrival="117.00" arrivalLane="nt15_np10_0" arrivalPos="75.00" arrivalSpeed="9.19" duration="117.00" routeLength="905.23" waitingTime="12.00" waitingCount="5" stopTime="0.00" timeLoss="44.52" rerouteNo="0" devices="tripinfo_f_0_2.0" vType="type1" speedFactor="1.04" vaporized=""/>
    <tripinfo id="f_0_3.0" depart="0.00" departLane="np3_nt3_0" departPos="47.66" departSpeed="0.00" departDelay="0.00" arrival="148.00" arrivalLane="nt14_np11_0" arrivalPos="75.00" arrivalSpeed="8.64" duration="148.00" routeLength="903.43" waitingTime="41.00" waitingCount="4" stopTime="0.00" timeLoss="69.58" rerouteNo="0" devices="tripinfo_f_0_3.0" vType="type1" speedFactor="0.96" vaporized=""/>
    <tripinfo id="f_0_3.1" depart="9.00" departLane="np3_nt3_0" departPos="11.04" departSpeed="0.00" departDelay="0.82" arrival="150.00" arrivalLane="nt14_np11_0" arrivalPos="75.00" arrivalSpeed="9.65" duration="141.00" routeLength="940.05" waitingTime="33.00" waitingCount="4" stopTime="0.00" timeLoss="66.80" rerouteNo="0" devices="tripinfo_f_0_3.1" vType="type1" speedFactor="1.06" vaporized=""/>
    <tripinfo id="f_0_2.1" depart="9.00" departLane="np2_nt2_0" departPos="14.65" departSpeed="0.00" departDelay="0.82" arrival="152.00" arrivalLane="nt15_np10_0" arrivalPos="75.00" arrivalSpeed="10.24" duration="143.00" routeLength="936.43" waitingTime="40.00" waitingCount="4" stopTime="0.00" timeLoss="64.64" rerouteNo="0" devices="tripinfo_f_0_2.1" vType="type1" speedFactor="1.01" vaporized=""/>
    <tripinfo id="f_0_2.2" depart="17.00" departLane="np2_nt2_0" departPos="55.72" departSpeed="0.00" departDelay="0.64" arrival="154.00" arrivalLane="nt15_np10_0" arrivalPos="75.00" arrivalSpeed="9.99" duration="137.00" routeLength="895.36" waitingTime="34.00" waitingCount="5" stopTime="0.00" timeLoss="62.02" rerouteNo="0" devices="tripinfo_f_0_2.2" vType="type1" speedFactor="0.99" vaporized=""/>
    <tripinfo id="f_0_0.0" depart="0.00" departLane="np13_nt13_0" departPos="50.62" departSpeed="0.00" departDelay="0.00" arrival="173.00" arrivalLane="nt4_np5_0" arrivalPos="75.00" arrivalSpeed="19.94" duration="173.00" routeLength="1297.27" waitingTime="53.00" waitingCount="6" stopTime="0.00" timeLoss="89.91" rerouteNo="0" devices="tripinfo_f_0_0.0" vType="type1" speedFactor="1.09" vaporized=""/>
    <tripinfo id="f_0_3.2" depart="17.00" departLane="np3_nt3_0" departPos="23.72" departSpeed="0.00" departDelay="0.64" arrival="173.00" arrivalLane="nt14_np11_0" arrivalPos="75.00" arrivalSpeed="9.74" duration="156.00" routeLength="927.37" waitingTime="45.00" waitingCount="5" stopTime="0.00" timeLoss="78.15" rerouteNo="0" devices="tripinfo_f_0_3.2" vType="type1" speedFactor="1.00" vaporized=""/>
    <tripinfo id="f_0_3.3" depart="25.00" departLane="np3_nt3_0" departPos="50.04" departSpeed="0.00" departDelay="0.45" arrival="175.00" arrivalLane="nt14_np11_0" arrivalPos="75.00" arrivalSpeed="10.27" duration="150.00" routeLength="901.05" waitingTime="50.00" waitingCount="6" stopTime="0.00" timeLoss="78.76" rerouteNo="0" devices="tripinfo_f_0_3.3" vType="type1" speedFactor="1.06" vaporized=""/>
    <tripinfo id="f_0_3.4" depart="33.00" departLane="np3_nt3_0" departPos="22.83" departSpeed="0.00" departDelay="0.27" arrival="179.00" arrivalLane="nt14_np11_0" arrivalPos="75.00" arrivalSpeed="6.62" duration="146.00" routeLength="928.26" waitingTime="16.00" waitingCount="5" stopTime="0.00" timeLoss="48.48" rerouteNo="0" devices="tripinfo_f_0_3.4" vType="type1" speedFactor="0.80" vaporized=""/>
    <tripinfo id="f_0_3.5" depart="41.00" departLane="np3_nt3_0" departPos="1.69" departSpeed="0.00" departDelay="0.09" arrival="181.00" arrivalLane="nt14_np11_0" arrivalPos="75.00" arrivalSpeed="8.73" duration="140.00" routeLength="949.40" waitingTime="9.00" waitingCount="3" stopTime="0.00" timeLoss="43.63" rerouteNo="0" devices="tripinfo_f_0_3.5" vType="type1" speedFactor="0.82" vaporized=""/>
    <tripinfo id="f_0_2.3" depart="25.00" departLane="np2_nt2_0" departPos="9.77" departSpeed="0.00" departDelay="0.45" arrival="185.00" arrivalLane="nt15_np10_0" arrivalPos="75.00" arrivalSpeed="10.00" duration="160.00" routeLength="941.31" waitingTime="47.00" waitingCount="5" stopTime="0.00" timeLoss="77.82" rerouteNo="0" devices="tripinfo_f_0_2.3" vType="type1" speedFactor="0.97" vaporized=""/>
    <tripinfo id="f_0_0.1" depart="14.00" departLane="np13_nt13_0" departPos="59.29" departSpeed="0.00" departDelay="0.36" arrival="188.00" arrivalLane="nt4_np5_0" arrivalPos="75.00" arrivalSpeed="19.37" duration="174.00" routeLength="1288.60" waitingTime="49.00" waitingCount="5" stopTime="0.00" timeLoss="83.61" rerouteNo="0" devices="tripinfo_f_0_0.1" vType="type1" speedFactor="1.00" vaporized=""/>
    <tripinfo id="f_0_3.6" depart="50.00" departLane="np3_nt3_0" departPos="0.84" departSpeed="0.00" departDelay="0.91" arrival="191.00" arrivalLane="nt14_np11_0" arrivalPos="75.00" arrivalSpeed="13.12" duration="141.00" routeLength="950.25" waitingTime="21.00" waitingCount="5" stopTime="0.00" timeLoss="76.64" rerouteNo="0" devices="tripinfo_f_0_3.6" vType="type1" speedFactor="1.24" vaporized=""/>
    <tripinfo id="f_0_2.4" depart="33.00" departLane="np2_nt2_0" departPos="52.18" departSpeed="0.00" departDelay="0.27" arrival="193.00" arrivalLane="nt15_np10_0" arrivalPos="75.00" arrivalSpeed="10.15" duration="160.00" routeLength="898.90" waitingTime="48.00" waitingCount="6" stopTime="0.00" timeLoss="88.87" rerouteNo="0" devices="tripinfo_f_0_2.4" vType="type1" speedFactor="1.06" vaporized=""/>
    <tripinfo id="f_0_2.5" depart="41.00" departLane="np2_nt2_0" departPos="24.08" departSpeed="0.00" departDelay="0.09" arrival="196.00" arrivalLane="nt15_np10_0" arrivalPos="75.00" arrivalSpeed="9.67" duration="155.00" routeLength="927.00" waitingTime="37.00" waitingCount="4" stopTime="0.00" timeLoss="74.54" rerouteNo="0" devices="tripinfo_f_0_2.5" vType="type1" speedFactor="0.97" vaporized=""/>
    <tripinfo id="f_0_1.0" depart="0.00" departLane="np16_nt1_0" departPos="67.54" departSpeed="0.00" departDelay="0.00" arrival="200.00" arrivalLane="nt16_np8_0" arrivalPos="75.00" arrivalSpeed="18.92" duration="200.00" routeLength="1280.34" waitingTime="64.00" waitingCount="7" stopTime="0.00" timeLoss="104.51" rerouteNo="0" devices="tripinfo_f_0_1.0" vType="type1" speedFactor="0.95" vaporized=""/>
    <tripinfo id="f_0_1.1" depart="14.00" departLane="np16_nt1_0" departPos="15.21" departSpeed="0.00" departDelay="0.36" arrival="208.00" arrivalLane="nt16_np8_0" arrivalPos="75.00" arrivalSpeed="19.88" duration="194.00" routeLength="1332.67" waitingTime="58.00" waitingCount="7" stopTime="0.00" timeLoss="110.37" rerouteNo="0" devices="tripinfo_f_0_1.1" vType="type1" speedFactor="1.10" vaporized=""/>
    <tripinfo id="f_0_2.6" depart="50.00" departLane="np2_nt2_0" departPos="33.33" departSpeed="0.00" departDelay="0.91" arrival="208.00" arrivalLane="nt15_np10_0" arrivalPos="75.00" arrivalSpeed="8.58" duration="158.00" routeLength="917.75" waitingTime="40.00" waitingCount="6" stopTime="0.00" timeLoss="77.81" rerouteNo="0" devices="tripinfo_f_0_2.6" vType="type1" speedFactor="0.96" vaporized=""/>
    <tripinfo id="f_0_0.2" depart="28.00" departLane="np13_nt13_0" departPos="62.08" departSpeed="0.00" departDelay="0.73" arrival="249.00" arrivalLane="nt4_np5_0" arrivalPos="75.00" arrivalSpeed="14.05" duration="221.00" routeLength="1285.81" waitingTime="78.00" waitingCount="4" stopTime="0.00" timeLoss="107.04" rerouteNo="0" devices="tripinfo_f_0_0.2" vType="type1" speedFactor="0.79" vaporized=""/>
    <tripinfo id="f_0_0.3" depart="41.00" departLane="np13_nt13_0" departPos="58.08" departSpeed="0.00" departDelay="0.09" arrival="251.00" arrivalLane="nt4_np5_0" arrivalPos="75.00" arrivalSpeed="19.57" duration="210.00" routeLength="1289.81" waitingTime="64.00" waitingCount="5" stopTime="0.00" timeLoss="127.52" rerouteNo="0" devices="tripinfo_f_0_0.3" vType="type1" speedFactor="1.10" vaporized=""/>
    <tripinfo id="f_0_2.7" depart="58.00" departLane="np2_nt2_0" departPos="56.95" departSpeed="0.00" departDelay="0.73" arrival="252.00" arrivalLane="nt15_np10_0" arrivalPos="75.00" arrivalSpeed="8.04" duration="194.00" routeLength="894.13" waitingTime="59.00" waitingCount="6" stopTime="0.00" timeLoss="102.07" rerouteNo="0" devices="tripinfo_f_0_2.7" vType="type1" speedFactor="0.82" vaporized=""/>
    <tripinfo id="f_0_0.4" depart="55.00" departLane="np13_nt13_0" departPos="2.91" departSpeed="0.00" departDelay="0.46" arrival="253.00" arrivalLane="nt4_np5_0" arrivalPos="75.00" arrivalSpeed="15.89" duration="198.00" routeLength="1344.98" waitingTime="49.00" waitingCount="6" stopTime="0.00" timeLoss="89.61" rerouteNo="0" devices="tripinfo_f_0_0.4" vType="type1" speedFactor="0.86" vaporized=""/>
    <tripinfo id="f_0_0.5" depart="69.00" departLane="np13_nt13_0" departPos="5.74" departSpeed="0.00" departDelay="0.82" arrival="254.00" arrivalLane="nt4_np5_0" arrivalPos="75.00" arrivalSpeed="19.56" duration="185.00" routeLength="1342.15" waitingTime="51.00" waitingCount="5" stopTime="0.00" timeLoss="94.24" rerouteNo="0" devices="tripinfo_f_0_0.5" vType="type1" speedFactor="1.02" vaporized=""/>
    <tripinfo id="f_0_3.7" depart="58.00" departLane="np3_nt3_0" departPos="18.03" departSpeed="0.00" departDelay="0.73" arrival="255.00" arrivalLane="nt14_np11_0" arrivalPos="75.00" arrivalSpeed="8.55" duration="197.00" routeLength="933.06" waitingTime="72.00" waitingCount="4" stopTime="0.00" timeLoss="97.58" rerouteNo="0" devices="tripinfo_f_0_3.7" vType="type1" speedFactor="0.79" vaporized=""/>
    <tripinfo id="f_0_2.8" depart="66.00" departLane="np2_nt2_0" departPos="21.67" departSpeed="0.00" departDelay="0.54" arrival="256.00" arrivalLane="nt15_np10_0" arrivalPos="75.00" arrivalSpeed="11.93" duration="190.00" routeLength="929.41" waitingTime="58.00" waitingCount="6" stopTime="0.00" timeLoss="119.96" rerouteNo="0" devices="tripinfo_f_0_2.8" vType="type1" speedFactor="1.11" vaporized=""/>
    <tripinfo id="f_0_0.6" depart="82.00" departLane="np13_nt13_0" departPos="32.07" departSpeed="0.00" departDelay="0.18" arrival="256.00" arrivalLane="nt4_np5_0" arrivalPos="75.00" arrivalSpeed="18.46" duration="174.00" routeLength="1315.82" waitingTime="33.00" waitingCount="5" stopTime="0.00" timeLoss="78.12" rerouteNo="0" devices="tripinfo_f_0_0.6" vType="type1" speedFactor="0.96" vaporized=""/>
    <tripinfo id="f_0_3.8" depart="66.00" departLane="np3_nt3_0" departPos="32.91" departSpeed="0.00" departDelay="0.54" arrival="257.00" arrivalLane="nt14_np11_0" arrivalPos="75.00" arrivalSpeed="10.04" duration="191.00" routeLength="918.18" waitingTime="84.00" waitingCount="4" stopTime="0.00" timeLoss="111.82" rerouteNo="0" devices="tripinfo_f_0_3.8" vType="type1" speedFactor="0.97" vaporized=""/>
    <tripinfo id="f_0_3.9" depart="74.00" departLane="np3_nt3_0" departPos="21.37" departSpeed="0.00" departDelay="0.36" arrival="259.00" arrivalLane="nt14_np11_0" arrivalPos="75.00" arrivalSpeed="9.42" duration="185.00" routeLength="929.72" waitingTime="76.00" waitingCount="4" stopTime="0.00" timeLoss="110.15" rerouteNo="0" devices="tripinfo_f_0_3.9" vType="type1" speedFactor="1.04" vaporized=""/>
    <tripinfo id="f_0_3.10" depart="82.00" departLane="np3_nt3_0" departPos="17.52" departSpeed="0.00" departDelay="0.18" arrival="261.00" arrivalLane="nt14_np11_0" arrivalPos="75.00" arrivalSpeed="10.16" duration="179.00" routeLength="933.57" waitingTime="66.00" waitingCount="4" stopTime="0.00" timeLoss="105.93" rerouteNo="0" devices="tripinfo_f_0_3.10" vType="type1" speedFactor="1.08" vaporized=""/>
    <tripinfo id="f_0_2.9" depart="74.00" departLane="np2_nt2_0" departPos="51.58" departSpeed="0.00" departDelay="0.36" arrival="268.00" arrivalLane="nt15_np10_0" arrivalPos="75.00" arrivalSpeed="11.20" duration="194.00" routeLength="899.50" waitingTime="65.00" waitingCount="7" stopTime="0.00" timeLoss="128.26" rerouteNo="0" devices="tripinfo_f_0_2.9" vType="type1" speedFactor="1.14" vaporized=""/>
    <tripinfo id="f_0_1.2" depart="28.00" departLane="np16_nt1_0" departPos="47.22" departSpeed="0.00" departDelay="0.73" arrival="284.00" arrivalLane="nt16_np8_0" arrivalPos="75.00" arrivalSpeed="17.82" duration="256.00" routeLength="1300.66" waitingTime="89.00" waitingCount="11" stopTime="0.00" timeLoss="158.08" rerouteNo="0" devices="tripinfo_f_0_1.2" vType="type1" speedFactor="0.93" vaporized=""/>
    <tripinfo id="f_0_1.7" depart="96.00" departLane="np16_nt1_0" departPos="33.02" departSpeed="0.00" departDelay="0.55" arrival="285.00" arrivalLane="nt16_np8_0" arrivalPos="75.00" arrivalSpeed="20.01" duration="189.00" routeLength="1314.86" waitingTime="45.00" waitingCount="6" stopTime="0.00" timeLoss="106.36" rerouteNo="0" devices="tripinfo_f_0_1.7" vType="type1" speedFactor="1.11" vaporized=""/>
    <tripinfo id="f_0_0.7" depart="96.00" departLane="np13_nt13_0" departPos="18.32" departSpeed="0.00" departDelay="0.55" arrival="287.00" arrivalLane="nt4_np5_0" arrivalPos="75.00" arrivalSpeed="17.73" duration="191.00" routeLength="1329.57" waitingTime="58.00" waitingCount="6" stopTime="0.00" timeLoss="97.29" rerouteNo="0" devices="tripinfo_f_0_0.7" vType="type1" speedFactor="0.99" vaporized=""/>
    <tripinfo id="f_0_0.8" depart="110.00" departLane="np13_nt13_0" departPos="39.98" departSpeed="0.00" departDelay="0.91" arrival="297.00" arrivalLane="nt4_np5_0" arrivalPos="75.00" arrivalSpeed="17.05" duration="187.00" routeLength="1307.91" waitingTime="45.00" waitingCount="7" stopTime="0.00" timeLoss="86.03" rerouteNo="0" devices="tripinfo_f_0_0.8" vType="type1" speedFactor="0.90" vaporized=""/>
    <tripinfo id="f_0_0.9" depart="123.00" departLane="np13_nt13_0" departPos="0.67" departSpeed="0.00" departDelay="0.28" arrival="299.00" arrivalLane="nt4_np5_0" arrivalPos="75.00" arrivalSpeed="21.38" duration="176.00" routeLength="1347.22" waitingTime="47.00" waitingCount="6" stopTime="0.00" timeLoss="91.29" rerouteNo="0" devices="tripinfo_f_0_0.9" vType="type1" speedFactor="1.10" vaporized=""/>
    <tripinfo id="f_0_1.3" depart="41.00" departLane="np16_nt1_0" departPos="41.04" departSpeed="0.00" departDelay="0.09" arrival="314.00" arrivalLane="nt16_np8_0" arrivalPos="75.00" arrivalSpeed="16.23" duration="273.00" routeLength="1306.84" waitingTime="97.00" waitingCount="11" stopTime="0.00" timeLoss="169.24" rerouteNo="0" devices="tripinfo_f_0_1.3" vType="type1" speedFactor="0.88" vaporized=""/>
    <tripinfo id="f_0_1.4" depart="55.00" departLane="np16_nt1_0" departPos="22.42" departSpeed="0.00" departDelay="0.46" arrival="315.00" arrivalLane="nt16_np8_0" arrivalPos="75.00" arrivalSpeed="18.77" duration="260.00" routeLength="1325.46" waitingTime="82.00" waitingCount="11" stopTime="0.00" timeLoss="173.53" rerouteNo="0" devices="tripinfo_f_0_1.4" vType="type1" speedFactor="1.06" vaporized=""/>
    <tripinfo id="f_0_1.9" depart="123.00" departLane="np16_nt1_0" departPos="39.93" departSpeed="0.00" departDelay="0.28" arrival="317.00" arrivalLane="nt16_np8_0" arrivalPos="75.00" arrivalSpeed="21.24" duration="194.00" routeLength="1307.95" waitingTime="57.00" waitingCount="9" stopTime="0.00" timeLoss="108.51" rerouteNo="0" devices="tripinfo_f_0_1.9" vType="type1" speedFactor="1.07" vaporized=""/>
    <tripinfo id="f_0_1.5" depart="69.00" departLane="np16_nt1_0" departPos="24.12" departSpeed="0.00" departDelay="0.82" arrival="318.00" arrivalLane="nt16_np8_0" arrivalPos="75.00" arrivalSpeed="20.03" duration="249.00" routeLength="1323.76" waitingTime="81.00" waitingCount="11" stopTime="0.00" timeLoss="163.30" rerouteNo="0" devices="tripinfo_f_0_1.5" vType="type1" speedFactor="1.08" vaporized=""/>
    <tripinfo id="f_0_3.11" depart="90.00" departLane="np3_nt3_0" departPos="10.47" departSpeed="0.00" departDelay="0.00" arrival="347.00" arrivalLane="nt14_np11_0" arrivalPos="75.00" arrivalSpeed="10.50" duration="257.00" routeLength="940.62" waitingTime="143.00" waitingCount="6" stopTime="0.00" timeLoss="185.38" rerouteNo="0" devices="tripinfo_f_0_3.11" vType="type1" speedFactor="1.12" vaporized=""/>
    <tripinfo id="f_0_3.12" depart="99.00" departLane="np3_nt3_0" departPos="13.46" departSpeed="0.00" departDelay="0.82" arrival="348.00" arrivalLane="nt14_np11_0" arrivalPos="75.00" arrivalSpeed="11.23" duration="249.00" routeLength="937.63" waitingTime="134.00" waitingCount="7" stopTime="0.00" timeLoss="179.26" rerouteNo="0" devices="tripinfo_f_0_3.12" vType="type1" speedFactor="1.13" vaporized=""/>
    <tripinfo id="f_0_3.13" depart="107.00" departLane="np3_nt3_0" departPos="14.63" departSpeed="0.00" departDelay="0.63" arrival="352.00" arrivalLane="nt14_np11_0" arrivalPos="75.00" arrivalSpeed="10.25" duration="245.00" routeLength="936.46" waitingTime="125.00" waitingCount="6" stopTime="0.00" timeLoss="162.74" rerouteNo="0" devices="tripinfo_f_0_3.13" vType="type1" speedFactor="0.96" vaporized=""/>
    <tripinfo id="f_0_3.14" depart="115.00" departLane="np3_nt3_0" departPos="4.86" departSpeed="0.00" departDelay="0.45" arrival="354.00" arrivalLane="nt14_np11_0" arrivalPos="75.00" arrivalSpeed="10.19" duration="239.00" routeLength="946.23" waitingTime="109.00" waitingCount="7" stopTime="0.00" timeLoss="154.08" rerouteNo="0" devices="tripinfo_f_0_3.14" vType="type1" speedFactor="0.94" vaporized=""/>
    <tripinfo id="f_0_2.10" depart="82.00" departLane="np2_nt2_0" departPos="24.20" departSpeed="0.00" departDelay="0.18" arrival="356.00" arrivalLane="nt15_np10_0" arrivalPos="75.00" arrivalSpeed="10.93" duration="274.00" routeLength="926.88" waitingTime="132.00" waitingCount="9" stopTime="0.00" timeLoss="201.48" rerouteNo="0" devices="tripinfo_f_0_2.10" vType="type1" speedFactor="1.08" vaporized=""/>
    <tripinfo id="f_0_2.11" depart="90.00" departLane="np2_nt2_0" departPos="21.18" departSpeed="0.00" departDelay="0.00" arrival="360.00" arrivalLane="nt15_np10_0" arrivalPos="75.00" arrivalSpeed="9.26" duration="270.00" routeLength="929.90" waitingTime="111.00" waitingCount="11" stopTime="0.00" timeLoss="183.62" rerouteNo="0" devices="tripinfo_f_0_2.11" vType="type1" speedFactor="0.91" vaporized=""/>
    <tripinfo id="f_0_3.15" depart="123.00" departLane="np3_nt3_0" departPos="7.86" departSpeed="0.00" departDelay="0.27" arrival="368.00" arrivalLane="nt14_np11_0" arrivalPos="75.00" arrivalSpeed="10.30" duration="245.00" routeLength="943.23" waitingTime="107.00" waitingCount="8" stopTime="0.00" timeLoss="160.62" rerouteNo="0" devices="tripinfo_f_0_3.15" vType="type1" speedFactor="0.94" vaporized=""/>
    <tripinfo id="f_0_0.10" depart="137.00" departLane="np13_nt13_0" departPos="66.82" departSpeed="0.00" departDelay="0.64" arrival="369.00" arrivalLane="nt4_np5_0" arrivalPos="75.00" arrivalSpeed="14.13" duration="232.00" routeLength="1281.07" waitingTime="82.00" waitingCount="6" stopTime="0.00" timeLoss="121.58" rerouteNo="0" devices="tripinfo_f_0_0.10" vType="type1" speedFactor="0.81" vaporized=""/>
    <tripinfo id="f_0_3.16" depart="131.00" departLane="np3_nt3_0" departPos="2.03" departSpeed="0.00" departDelay="0.09" arrival="370.00" arrivalLane="nt14_np11_0" arrivalPos="75.00" arrivalSpeed="9.08" duration="239.00" routeLength="949.06" waitingTime="105.00" waitingCount="9" stopTime="0.00" timeLoss="153.62" rerouteNo="0" devices="tripinfo_f_0_3.16" vType="type1" speedFactor="0.94" vaporized=""/>
    <tripinfo id="f_0_3.17" depart="148.00" departLane="np3_nt3_0" departPos="0.00" departSpeed="0.00" departDelay="8.91" arrival="372.00" arrivalLane="nt14_np11_0" arrivalPos="75.00" arrivalSpeed="9.99" duration="224.00" routeLength="951.09" waitingTime="91.00" waitingCount="9" stopTime="0.00" timeLoss="146.90" rerouteNo="0" devices="tripinfo_f_0_3.17" vType="type1" speedFactor="1.04" vaporized=""/>
    <tripinfo id="f_0_3.18" depart="167.00" departLane="np3_nt3_0" departPos="0.00" departSpeed="0.00" departDelay="19.72" arrival="376.00" arrivalLane="nt14_np11_0" arrivalPos="75.00" arrivalSpeed="9.28" duration="209.00" routeLength="951.09" waitingTime="96.00" waitingCount="6" stopTime="0.00" timeLoss="132.24" rerouteNo="0" devices="tripinfo_f_0_3.18" vType="type1" speedFactor="1.04" vaporized=""/>
    <tripinfo id="f_0_0.11" depart="150.00" departLane="np13_nt13_0" departPos="58.11" departSpeed="0.00" departDelay="0.00" arrival="378.00" arrivalLane="nt4_np5_0" arrivalPos="75.00" arrivalSpeed="20.67" duration="228.00" routeLength="1289.78" waitingTime="95.00" waitingCount="7" stopTime="0.00" timeLoss="142.82" rerouteNo="0" devices="tripinfo_f_0_0.11" vType="type1" speedFactor="1.06" vaporized=""/>
    <tripinfo id="f_0_3.19" depart="170.00" departLane="np3_nt3_0" departPos="0.00" departSpeed="0.00" departDelay="14.54" arrival="378.00" arrivalLane="nt14_np11_0" arrivalPos="75.00" arrivalSpeed="10.55" duration="208.00" routeLength="951.09" waitingTime="87.00" waitingCount="8" stopTime="0.00" timeLoss="134.11" rerouteNo="0" devices="tripinfo_f_0_3.19" vType="type1" speedFactor="1.08" vaporized=""/>
    <tripinfo id="f_0_2.12" depart="99.00" departLane="np2_nt2_0" departPos="8.59" departSpeed="0.00" departDelay="0.82" arrival="394.00" arrivalLane="nt15_np10_0" arrivalPos="75.00" arrivalSpeed="7.17" duration="295.00" routeLength="942.49" waitingTime="128.00" waitingCount="11" stopTime="0.00" timeLoss="201.16" rerouteNo="0" devices="tripinfo_f_0_2.12" vType="type1" speedFactor="0.85" vaporized=""/>
    <tripinfo id="f_0_3.20" depart="172.00" departLane="np3_nt3_0" departPos="0.34" departSpeed="0.00" departDelay="8.36" arrival="409.00" arrivalLane="nt14_np11_0" arrivalPos="75.00" arrivalSpeed="8.21" duration="237.00" routeLength="950.75" waitingTime="96.00" waitingCount="9" stopTime="0.00" timeLoss="148.31" rerouteNo="0" devices="tripinfo_f_0_3.20" vType="type1" speedFactor="0.90" vaporized=""/>
    <tripinfo id="f_0_3.21" depart="176.00" departLane="np3_nt3_0" departPos="0.00" departSpeed="0.00" departDelay="4.18" arrival="411.00" arrivalLane="nt14_np11_0" arrivalPos="75.00" arrivalSpeed="9.91" duration="235.00" routeLength="951.09" waitingTime="87.00" waitingCount="9" stopTime="0.00" timeLoss="147.52" rerouteNo="0" devices="tripinfo_f_0_3.21" vType="type1" speedFactor="0.92" vaporized=""/>
    <tripinfo id="f_0_1.6" depart="82.00" departLane="np16_nt1_0" departPos="38.13" departSpeed="0.00" departDelay="0.18" arrival="425.00" arrivalLane="nt16_np8_0" arrivalPos="75.00" arrivalSpeed="12.07" duration="343.00" routeLength="1309.75" waitingTime="131.00" waitingCount="12" stopTime="0.00" timeLoss="216.74" rerouteNo="0" devices="tripinfo_f_0_1.6" vType="type1" speedFactor="0.73" vaporized=""/>
    <tripinfo id="f_0_2.13" depart="107.00" departLane="np2_nt2_0" departPos="35.69" departSpeed="0.00" departDelay="0.63" arrival="432.00" arrivalLane="nt15_np10_0" arrivalPos="75.00" arrivalSpeed="9.95" duration="325.00" routeLength="915.39" waitingTime="141.00" waitingCount="13" stopTime="0.00" timeLoss="249.62" rerouteNo="0" devices="tripinfo_f_0_2.13" vType="type1" speedFactor="1.02" vaporized=""/>
    <tripinfo id="f_0_3.22" depart="208.00" departLane="np3_nt3_0" departPos="0.11" departSpeed="0.00" departDelay="28.00" arrival="437.00" arrivalLane="nt14_np11_0" arrivalPos="75.00" arrivalSpeed="9.94" duration="229.00" routeLength="950.98" waitingTime="101.00" waitingCount="8" stopTime="0.00" timeLoss="149.64" rerouteNo="0" devices="tripinfo_f_0_3.22" vType="type1" speedFactor="1.01" vaporized=""/>
    <tripinfo id="f_0_2.14" depart="115.00" departLane="np2_nt2_0" departPos="1.56" departSpeed="0.00" departDelay="0.45" arrival="442.00" arrivalLane="nt15_np10_0" arrivalPos="75.00" arrivalSpeed="8.98" duration="327.00" routeLength="949.52" waitingTime="129.00" waitingCount="12" stopTime="0.00" timeLoss="239.85" rerouteNo="0" devices="tripinfo_f_0_2.14" vType="type1" speedFactor="0.92" vaporized=""/>
    <tripinfo id="f_0_2.15" depart="123.00" departLane="np2_nt2_0" departPos="17.87" departSpeed="0.00" departDelay="0.27" arrival="445.00" arrivalLane="nt15_np10_0" arrivalPos="75.00" arrivalSpeed="7.41" duration="322.00" routeLength="933.21" waitingTime="116.00" waitingCount="10" stopTime="0.00" timeLoss="232.63" rerouteNo="0" devices="tripinfo_f_0_2.15" vType="type1" speedFactor="0.88" vaporized=""/>
    <tripinfo id="f_0_2.16" depart="131.00" departLane="np2_nt2_0" departPos="9.29" departSpeed="0.00" departDelay="0.09" arrival="447.00" arrivalLane="nt15_np10_0" arrivalPos="75.00" arrivalSpeed="9.03" duration="316.00" routeLength="941.79" waitingTime="112.00" waitingCount="10" stopTime="0.00" timeLoss="235.33" rerouteNo="0" devices="tripinfo_f_0_2.16" vType="type1" speedFactor="0.98" vaporized=""/>
    <tripinfo id="f_0_2.17" depart="140.00" departLane="np2_nt2_0" departPos="2.76" departSpeed="0.00" departDelay="0.91" arrival="451.00" arrivalLane="nt15_np10_0" arrivalPos="75.00" arrivalSpeed="9.77" duration="311.00" routeLength="948.32" waitingTime="106.00" waitingCount="10" stopTime="0.00" timeLoss="224.67" rerouteNo="0" devices="tripinfo_f_0_2.17" vType="type1" speedFactor="0.93" vaporized=""/>
    <tripinfo id="f_0_2.18" depart="148.00" departLane="np2_nt2_0" departPos="47.32" departSpeed="0.00" departDelay="0.72" arrival="453.00" arrivalLane="nt15_np10_0" arrivalPos="75.00" arrivalSpeed="9.54" duration="305.00" routeLength="903.76" waitingTime="102.00" waitingCount="11" stopTime="0.00" timeLoss="232.58" rerouteNo="0" devices="tripinfo_f_0_2.18" vType="type1" speedFactor="1.05" vaporized=""/>
    <tripinfo id="f_0_1.8" depart="110.00" departLane="np16_nt1_0" departPos="60.63" departSpeed="0.00" departDelay="0.91" arrival="454.00" arrivalLane="nt16_np8_0" arrivalPos="75.00" arrivalSpeed="16.99" duration="344.00" routeLength="1287.25" waitingTime="137.00" waitingCount="13" stopTime="0.00" timeLoss="242.59" rerouteNo="0" devices="tripinfo_f_0_1.8" vType="type1" speedFactor="0.89" vaporized=""/>
    <tripinfo id="f_0_2.19" depart="156.00" departLane="np2_nt2_0" departPos="3.46" departSpeed="0.00" departDelay="0.54" arrival="455.00" arrivalLane="nt15_np10_0" arrivalPos="75.00" arrivalSpeed="10.27" duration="299.00" routeLength="947.62" waitingTime="88.00" waitingCount="9" stopTime="0.00" timeLoss="229.95" rerouteNo="0" devices="tripinfo_f_0_2.19" vType="type1" speedFactor="1.16" vaporized=""/>
    <tripinfo id="f_0_2.20" depart="164.00" departLane="np2_nt2_0" departPos="24.08" departSpeed="0.00" departDelay="0.36" arrival="457.00" arrivalLane="nt15_np10_0" arrivalPos="75.00" arrivalSpeed="11.18" duration="293.00" routeLength="927.00" waitingTime="88.00" waitingCount="10" stopTime="0.00" timeLoss="216.27" rerouteNo="0" devices="tripinfo_f_0_2.20" vType="type1" speedFactor="1.02" vaporized=""/>
    <tripinfo id="f_0_1.12" depart="164.00" departLane="np16_nt1_0" departPos="66.94" departSpeed="0.00" departDelay="0.37" arrival="464.00" arrivalLane="nt16_np8_0" arrivalPos="75.00" arrivalSpeed="17.08" duration="300.00" routeLength="1280.94" waitingTime="127.00" waitingCount="12" stopTime="0.00" timeLoss="204.35" rerouteNo="0" devices="tripinfo_f_0_1.12" vType="type1" speedFactor="0.94" vaporized=""/>
    <tripinfo id="f_0_1.10" depart="137.00" departLane="np16_nt1_0" departPos="23.76" departSpeed="0.00" departDelay="0.64" arrival="473.00" arrivalLane="nt16_np8_0" arrivalPos="75.00" arrivalSpeed="22.64" duration="336.00" routeLength="1324.12" waitingTime="125.00" waitingCount="11" stopTime="0.00" timeLoss="255.93" rerouteNo="0" devices="tripinfo_f_0_1.10" vType="type1" speedFactor="1.15" vaporized=""/>
    <tripinfo id="f_0_0.12" depart="164.00" departLane="np13_nt13_0" departPos="25.49" departSpeed="0.00" departDelay="0.37" arrival="473.00" arrivalLane="nt4_np5_0" arrivalPos="75.00" arrivalSpeed="19.23" duration="309.00" routeLength="1322.40" waitingTime="160.00" waitingCount="9" stopTime="0.00" timeLoss="216.47" rerouteNo="0" devices="tripinfo_f_0_0.12" vType="type1" speedFactor="0.99" vaporized=""/>
    <tripinfo id="f_0_1.11" depart="150.00" departLane="np16_nt1_0" departPos="48.54" departSpeed="0.00" departDelay="0.00" arrival="475.00" arrivalLane="nt16_np8_0" arrivalPos="75.00" arrivalSpeed="18.88" duration="325.00" routeLength="1299.34" waitingTime="100.00" waitingCount="12" stopTime="0.00" timeLoss="235.56" rerouteNo="0" devices="tripinfo_f_0_1.11" vType="type1" speedFactor="1.02" vaporized=""/>
    <tripinfo id="f_0_0.13" depart="178.00" departLane="np13_nt13_0" departPos="0.89" departSpeed="0.00" departDelay="0.73" arrival="475.00" arrivalLane="nt4_np5_0" arrivalPos="75.00" arrivalSpeed="22.09" duration="297.00" routeLength="1347.00" waitingTime="145.00" waitingCount="11" stopTime="0.00" timeLoss="213.04" rerouteNo="0" devices="tripinfo_f_0_0.13" vType="type1" speedFactor="1.11" vaporized=""/>