<?xml version="1.0" encoding="UTF-8"?>

<!-- generated on 2023-08-23 16:20:03 by Eclipse SUMO libsumo Version 1.18.0
<configuration xmlns:xsi="http://www.w3.org/2001/XMLSchema-instance" xsi:noNamespaceSchemaLocation="http://sumo.dlr.de/xsd/libsumoConfiguration.xsd">

    <input>
        <net-file value="/home/stefan/RESCO/./environments/arterial4x4/arterial4x4.net.xml"/>
        <route-files value="/home/stefan/RESCO/./environments/arterial4x4/arterial4x4_37.rou.xml"/>
    </input>

    <output>
        <tripinfo-output value="/home/stefan/results/IDDQN-tr0-arterial4x4-0-drq_norm-wait_norm/tripinfo_37.xml"/>
        <tripinfo-output.write-unfinished value="true"/>
    </output>

    <processing>
        <time-to-teleport value="-1"/>
    </processing>

    <report>
        <no-warnings value="True"/>
        <no-step-log value="True"/>
    </report>

    <random_number>
        <random value="true"/>
    </random_number>

</configuration>
-->

<tripinfos xmlns:xsi="http://www.w3.org/2001/XMLSchema-instance" xsi:noNamespaceSchemaLocation="http://sumo.dlr.de/xsd/tripinfo_file.xsd">
    <tripinfo id="f_0_2.0" depart="0.00" departLane="np2_nt2_0" departPos="0.04" departSpeed="0.00" departDelay="0.00" arrival="126.00" arrivalLane="nt15_np10_0" arrivalPos="75.00" arrivalSpeed="11.34" duration="126.00" routeLength="951.04" waitingTime="28.00" waitingCount="4" stopTime="0.00" timeLoss="49.87" rerouteNo="0" devices="tripinfo_f_0_2.0" vType="type1" speedFactor="1.05" vaporized=""/>
    <tripinfo id="f_0_0.0" depart="0.00" departLane="np13_nt13_0" departPos="43.78" departSpeed="0.00" departDelay="0.00" arrival="168.00" arrivalLane="nt4_np5_0" arrivalPos="75.00" arrivalSpeed="19.54" duration="168.00" routeLength="1304.11" waitingTime="54.00" waitingCount="3" stopTime="0.00" timeLoss="79.98" rerouteNo="0" devices="tripinfo_f_0_0.0" vType="type1" speedFactor="1.04" vaporized=""/>
    <tripinfo id="f_0_2.1" depart="9.00" departLane="np2_nt2_0" departPos="35.04" departSpeed="0.00" departDelay="0.82" arrival="177.00" arrivalLane="nt15_np10_0" arrivalPos="75.00" arrivalSpeed="9.78" duration="168.00" routeLength="916.04" waitingTime="62.00" waitingCount="4" stopTime="0.00" timeLoss="90.38" rerouteNo="0" devices="tripinfo_f_0_2.1" vType="type1" speedFactor="0.98" vaporized=""/>
    <tripinfo id="f_0_0.1" depart="14.00" departLane="np13_nt13_0" departPos="48.89" departSpeed="0.00" departDelay="0.36" arrival="185.00" arrivalLane="nt4_np5_0" arrivalPos="75.00" arrivalSpeed="19.26" duration="171.00" routeLength="1299.00" waitingTime="44.00" waitingCount="6" stopTime="0.00" timeLoss="80.86" rerouteNo="0" devices="tripinfo_f_0_0.1" vType="type1" speedFactor="1.01" vaporized=""/>
    <tripinfo id="f_0_3.0" depart="0.00" departLane="np3_nt3_0" departPos="8.38" departSpeed="0.00" departDelay="0.00" arrival="190.00" arrivalLane="nt14_np11_0" arrivalPos="75.00" arrivalSpeed="7.41" duration="190.00" routeLength="942.71" waitingTime="61.00" waitingCount="4" stopTime="0.00" timeLoss="89.58" rerouteNo="0" devices="tripinfo_f_0_3.0" vType="type1" speedFactor="0.79" vaporized=""/>
    <tripinfo id="f_0_3.1" depart="9.00" departLane="np3_nt3_0" departPos="47.68" departSpeed="0.00" departDelay="0.82" arrival="192.00" arrivalLane="nt14_np11_0" arrivalPos="75.00" arrivalSpeed="8.74" duration="183.00" routeLength="903.41" waitingTime="74.00" waitingCount="5" stopTime="0.00" timeLoss="104.65" rerouteNo="0" devices="tripinfo_f_0_3.1" vType="type1" speedFactor="0.97" vaporized=""/>
    <tripinfo id="f_0_3.2" depart="17.00" departLane="np3_nt3_0" departPos="32.53" departSpeed="0.00" departDelay="0.64" arrival="194.00" arrivalLane="nt14_np11_0" arrivalPos="75.00" arrivalSpeed="8.63" duration="177.00" routeLength="918.56" waitingTime="61.00" waitingCount="4" stopTime="0.00" timeLoss="93.23" rerouteNo="0" devices="tripinfo_f_0_3.2" vType="type1" speedFactor="0.92" vaporized=""/>
    <tripinfo id="f_0_3.3" depart="25.00" departLane="np3_nt3_0" departPos="4.26" departSpeed="0.00" departDelay="0.45" arrival="196.00" arrivalLane="nt14_np11_0" arrivalPos="75.00" arrivalSpeed="8.81" duration="171.00" routeLength="946.83" waitingTime="52.00" waitingCount="7" stopTime="0.00" timeLoss="91.24" rerouteNo="0" devices="tripinfo_f_0_3.3" vType="type1" speedFactor="1.00" vaporized=""/>
    <tripinfo id="f_0_2.2" depart="17.00" departLane="np2_nt2_0" departPos="21.79" departSpeed="0.00" departDelay="0.64" arrival="198.00" arrivalLane="nt15_np10_0" arrivalPos="75.00" arrivalSpeed="8.53" duration="181.00" routeLength="929.29" waitingTime="74.00" waitingCount="4" stopTime="0.00" timeLoss="103.76" rerouteNo="0" devices="tripinfo_f_0_2.2" vType="type1" speedFactor="1.00" vaporized=""/>
    <tripinfo id="f_0_2.3" depart="25.00" departLane="np2_nt2_0" departPos="52.72" departSpeed="0.00" departDelay="0.45" arrival="200.00" arrivalLane="nt15_np10_0" arrivalPos="75.00" arrivalSpeed="10.85" duration="175.00" routeLength="898.36" waitingTime="71.00" waitingCount="4" stopTime="0.00" timeLoss="103.10" rerouteNo="0" devices="tripinfo_f_0_2.3" vType="type1" speedFactor="1.04" vaporized=""/>
    <tripinfo id="f_0_0.2" depart="28.00" departLane="np13_nt13_0" departPos="22.87" departSpeed="0.00" departDelay="0.73" arrival="203.00" arrivalLane="nt4_np5_0" arrivalPos="75.00" arrivalSpeed="18.73" duration="175.00" routeLength="1325.02" waitingTime="48.00" waitingCount="5" stopTime="0.00" timeLoss="87.59" rerouteNo="0" devices="tripinfo_f_0_0.2" vType="type1" speedFactor="1.06" vaporized=""/>
    <tripinfo id="f_0_2.4" depart="33.00" departLane="np2_nt2_0" departPos="18.81" departSpeed="0.00" departDelay="0.27" arrival="203.00" arrivalLane="nt15_np10_0" arrivalPos="75.00" arrivalSpeed="9.23" duration="170.00" routeLength="932.27" waitingTime="61.00" waitingCount="4" stopTime="0.00" timeLoss="91.79" rerouteNo="0" devices="tripinfo_f_0_2.4" vType="type1" speedFactor="1.01" vaporized=""/>
    <tripinfo id="f_0_0.3" depart="41.00" departLane="np13_nt13_0" departPos="64.56" departSpeed="0.00" departDelay="0.09" arrival="205.00" arrivalLane="nt4_np5_0" arrivalPos="75.00" arrivalSpeed="15.23" duration="164.00" routeLength="1283.33" waitingTime="30.00" waitingCount="3" stopTime="0.00" timeLoss="61.62" rerouteNo="0" devices="tripinfo_f_0_0.3" vType="type1" speedFactor="0.88" vaporized=""/>
    <tripinfo id="f_0_0.4" depart="55.00" departLane="np13_nt13_0" departPos="23.70" departSpeed="0.00" departDelay="0.46" arrival="218.00" arrivalLane="nt4_np5_0" arrivalPos="75.00" arrivalSpeed="21.00" duration="163.00" routeLength="1324.19" waitingTime="43.00" waitingCount="5" stopTime="0.00" timeLoss="77.54" rerouteNo="0" devices="tripinfo_f_0_0.4" vType="type1" speedFactor="1.08" vaporized=""/>
    <tripinfo id="f_0_2.5" depart="41.00" departLane="np2_nt2_0" departPos="35.83" departSpeed="0.00" departDelay="0.09" arrival="221.00" arrivalLane="nt15_np10_0" arrivalPos="75.00" arrivalSpeed="11.22" duration="180.00" routeLength="915.25" waitingTime="74.00" waitingCount="5" stopTime="0.00" timeLoss="106.61" rerouteNo="0" devices="tripinfo_f_0_2.5" vType="type1" speedFactor="1.04" vaporized=""/>
    <tripinfo id="f_0_2.6" depart="50.00" departLane="np2_nt2_0" departPos="16.57" departSpeed="0.00" departDelay="0.91" arrival="224.00" arrivalLane="nt15_np10_0" arrivalPos="75.00" arrivalSpeed="10.28" duration="174.00" routeLength="934.51" waitingTime="62.00" waitingCount="4" stopTime="0.00" timeLoss="96.10" rerouteNo="0" devices="tripinfo_f_0_2.6" vType="type1" speedFactor="1.01" vaporized=""/>
    <tripinfo id="f_0_0.5" depart="69.00" departLane="np13_nt13_0" departPos="23.44" departSpeed="0.00" departDelay="0.82" arrival="224.00" arrivalLane="nt4_np5_0" arrivalPos="75.00" arrivalSpeed="19.89" duration="155.00" routeLength="1324.45" waitingTime="47.00" waitingCount="3" stopTime="0.00" timeLoss="71.91" rerouteNo="0" devices="tripinfo_f_0_0.5" vType="type1" speedFactor="1.10" vaporized=""/>
    <tripinfo id="f_0_3.4" depart="33.00" departLane="np3_nt3_0" departPos="7.16" departSpeed="0.00" departDelay="0.27" arrival="240.00" arrivalLane="nt14_np11_0" arrivalPos="75.00" arrivalSpeed="7.24" duration="207.00" routeLength="943.93" waitingTime="68.00" waitingCount="6" stopTime="0.00" timeLoss="109.63" rerouteNo="0" devices="tripinfo_f_0_3.4" vType="type1" speedFactor="0.82" vaporized=""/>
    <tripinfo id="f_0_3.5" depart="41.00" departLane="np3_nt3_0" departPos="1.94" departSpeed="0.00" departDelay="0.09" arrival="242.00" arrivalLane="nt14_np11_0" arrivalPos="75.00" arrivalSpeed="9.12" duration="201.00" routeLength="949.15" waitingTime="55.00" waitingCount="7" stopTime="0.00" timeLoss="111.51" rerouteNo="0" devices="tripinfo_f_0_3.5" vType="type1" speedFactor="0.90" vaporized=""/>
    <tripinfo id="f_0_3.6" depart="50.00" departLane="np3_nt3_0" departPos="19.36" departSpeed="0.00" departDelay="0.91" arrival="243.00" arrivalLane="nt14_np11_0" arrivalPos="75.00" arrivalSpeed="10.25" duration="193.00" routeLength="931.73" waitingTime="58.00" waitingCount="5" stopTime="0.00" timeLoss="116.94" rerouteNo="0" devices="tripinfo_f_0_3.6" vType="type1" speedFactor="1.03" vaporized=""/>
    <tripinfo id="f_0_3.7" depart="58.00" departLane="np3_nt3_0" departPos="2.27" departSpeed="0.00" departDelay="0.73" arrival="245.00" arrivalLane="nt14_np11_0" arrivalPos="75.00" arrivalSpeed="9.98" duration="187.00" routeLength="948.82" waitingTime="53.00" waitingCount="4" stopTime="0.00" timeLoss="113.45" rerouteNo="0" devices="tripinfo_f_0_3.7" vType="type1" speedFactor="1.09" vaporized=""/>
    <tripinfo id="f_0_1.0" depart="0.00" departLane="np16_nt1_0" departPos="11.27" departSpeed="0.00" departDelay="0.00" arrival="248.00" arrivalLane="nt16_np8_0" arrivalPos="75.00" arrivalSpeed="19.96" duration="248.00" routeLength="1336.61" waitingTime="103.00" waitingCount="8" stopTime="0.00" timeLoss="157.76" rerouteNo="0" devices="tripinfo_f_0_1.0" vType="type1" speedFactor="1.03" vaporized=""/>
    <tripinfo id="f_0_2.7" depart="58.00" departLane="np2_nt2_0" departPos="36.94" departSpeed="0.00" departDelay="0.73" arrival="248.00" arrivalLane="nt15_np10_0" arrivalPos="75.00" arrivalSpeed="8.62" duration="190.00" routeLength="914.14" waitingTime="63.00" waitingCount="7" stopTime="0.00" timeLoss="108.15" rerouteNo="0" devices="tripinfo_f_0_2.7" vType="type1" speedFactor="0.94" vaporized=""/>
    <tripinfo id="f_0_1.1" depart="14.00" departLane="np16_nt1_0" departPos="10.08" departSpeed="0.00" departDelay="0.36" arrival="250.00" arrivalLane="nt16_np8_0" arrivalPos="75.00" arrivalSpeed="17.10" duration="236.00" routeLength="1337.80" waitingTime="84.00" waitingCount="8" stopTime="0.00" timeLoss="140.04" rerouteNo="0" devices="tripinfo_f_0_1.1" vType="type1" speedFactor="0.97" vaporized=""/>
    <tripinfo id="f_0_3.8" depart="66.00" departLane="np3_nt3_0" departPos="24.50" departSpeed="0.00" departDelay="0.54" arrival="263.00" arrivalLane="nt14_np11_0" arrivalPos="75.00" arrivalSpeed="8.56" duration="197.00" routeLength="926.59" waitingTime="61.00" waitingCount="7" stopTime="0.00" timeLoss="108.68" rerouteNo="0" devices="tripinfo_f_0_3.8" vType="type1" speedFactor="0.88" vaporized=""/>
    <tripinfo id="f_0_3.9" depart="74.00" departLane="np3_nt3_0" departPos="9.00" departSpeed="0.00" departDelay="0.36" arrival="267.00" arrivalLane="nt14_np11_0" arrivalPos="75.00" arrivalSpeed="7.74" duration="193.00" routeLength="942.09" waitingTime="55.00" waitingCount="6" stopTime="0.00" timeLoss="97.40" rerouteNo="0" devices="tripinfo_f_0_3.9" vType="type1" speedFactor="0.83" vaporized=""/>
    <tripinfo id="f_0_0.6" depart="82.00" departLane="np13_nt13_0" departPos="40.76" departSpeed="0.00" departDelay="0.18" arrival="273.00" arrivalLane="nt4_np5_0" arrivalPos="75.00" arrivalSpeed="20.31" duration="191.00" routeLength="1307.13" waitingTime="66.00" waitingCount="6" stopTime="0.00" timeLoss="107.99" rerouteNo="0" devices="tripinfo_f_0_0.6" vType="type1" speedFactor="1.11" vaporized=""/>
    <tripinfo id="f_0_2.8" depart="66.00" departLane="np2_nt2_0" departPos="19.97" departSpeed="0.00" departDelay="0.54" arrival="274.00" arrivalLane="nt15_np10_0" arrivalPos="75.00" arrivalSpeed="8.45" duration="208.00" routeLength="931.11" waitingTime="66.00" waitingCount="8" stopTime="0.00" timeLoss="126.60" rerouteNo="0" devices="tripinfo_f_0_2.8" vType="type1" speedFactor="0.96" vaporized=""/>
    <tripinfo id="f_0_2.9" depart="74.00" departLane="np2_nt2_0" departPos="46.14" departSpeed="0.00" departDelay="0.36" arrival="278.00" arrivalLane="nt15_np10_0" arrivalPos="75.00" arrivalSpeed="8.46" duration="204.00" routeLength="904.94" waitingTime="58.00" waitingCount="8" stopTime="0.00" timeLoss="122.69" rerouteNo="0" devices="tripinfo_f_0_2.9" vType="type1" speedFactor="0.93" vaporized=""/>
    <tripinfo id="f_0_3.10" depart="82.00" departLane="np3_nt3_0" departPos="5.92" departSpeed="0.00" departDelay="0.18" arrival="278.00" arrivalLane="nt14_np11_0" arrivalPos="75.00" arrivalSpeed="9.01" duration="196.00" routeLength="945.17" waitingTime="76.00" waitingCount="6" stopTime="0.00" timeLoss="109.44" rerouteNo="0" devices="tripinfo_f_0_3.10" vType="type1" speedFactor="0.91" vaporized=""/>
    <tripinfo id="f_0_2.10" depart="82.00" departLane="np2_nt2_0" departPos="43.28" departSpeed="0.00" departDelay="0.18" arrival="280.00" arrivalLane="nt15_np10_0" arrivalPos="75.00" arrivalSpeed="10.64" duration="198.00" routeLength="907.80" waitingTime="47.00" waitingCount="7" stopTime="0.00" timeLoss="132.45" rerouteNo="0" devices="tripinfo_f_0_2.10" vType="type1" speedFactor="1.16" vaporized=""/>
    <tripinfo id="f_0_3.11" depart="90.00" departLane="np3_nt3_0" departPos="33.05" departSpeed="0.00" departDelay="0.00" arrival="280.00" arrivalLane="nt14_np11_0" arrivalPos="75.00" arrivalSpeed="11.23" duration="190.00" routeLength="918.04" waitingTime="69.00" waitingCount="6" stopTime="0.00" timeLoss="121.61" rerouteNo="0" devices="tripinfo_f_0_3.11" vType="type1" speedFactor="1.13" vaporized=""/>
    <tripinfo id="f_0_2.11" depart="90.00" departLane="np2_nt2_0" departPos="59.59" departSpeed="0.00" departDelay="0.00" arrival="282.00" arrivalLane="nt15_np10_0" arrivalPos="75.00" arrivalSpeed="8.64" duration="192.00" routeLength="891.49" waitingTime="40.00" waitingCount="7" stopTime="0.00" timeLoss="113.91" rerouteNo="0" devices="tripinfo_f_0_2.11" vType="type1" speedFactor="0.96" vaporized=""/>
    <tripinfo id="f_0_3.12" depart="99.00" departLane="np3_nt3_0" departPos="29.33" departSpeed="0.00" departDelay="0.82" arrival="282.00" arrivalLane="nt14_np11_0" arrivalPos="75.00" arrivalSpeed="9.29" duration="183.00" routeLength="921.76" waitingTime="58.00" waitingCount="5" stopTime="0.00" timeLoss="102.37" rerouteNo="0" devices="tripinfo_f_0_3.12" vType="type1" speedFactor="0.96" vaporized=""/>
    <tripinfo id="f_0_1.2" depart="28.00" departLane="np16_nt1_0" departPos="16.65" departSpeed="0.00" departDelay="0.73" arrival="284.00" arrivalLane="nt16_np8_0" arrivalPos="75.00" arrivalSpeed="18.03" duration="256.00" routeLength="1331.23" waitingTime="90.00" waitingCount="10" stopTime="0.00" timeLoss="163.84" rerouteNo="0" devices="tripinfo_f_0_1.2" vType="type1" speedFactor="1.01" vaporized=""/>
    <tripinfo id="f_0_0.7" depart="96.00" departLane="np13_nt13_0" departPos="9.40" departSpeed="0.00" departDelay="0.55" arrival="284.00" arrivalLane="nt4_np5_0" arrivalPos="75.00" arrivalSpeed="15.66" duration="188.00" routeLength="1338.49" waitingTime="45.00" waitingCount="6" stopTime="0.00" timeLoss="84.52" rerouteNo="0" devices="tripinfo_f_0_0.7" vType="type1" speedFactor="0.90" vaporized=""/>
    <tripinfo id="f_0_3.13" depart="107.00" departLane="np3_nt3_0" departPos="3.85" departSpeed="0.00" departDelay="0.63" arrival="285.00" arrivalLane="nt14_np11_0" arrivalPos="75.00" arrivalSpeed="7.38" duration="178.00" routeLength="947.24" waitingTime="44.00" waitingCount="5" stopTime="0.00" timeLoss="87.03" rerouteNo="0" devices="tripinfo_f_0_3.13" vType="type1" speedFactor="0.88" vaporized=""/>
    <tripinfo id="f_0_0.8" depart="110.00" departLane="np13_nt13_0" departPos="46.72" departSpeed="0.00" departDelay="0.91" arrival="285.00" arrivalLane="nt4_np5_0" arrivalPos="75.00" arrivalSpeed="15.64" duration="175.00" routeLength="1301.17" waitingTime="36.00" waitingCount="5" stopTime="0.00" timeLoss="73.29" rerouteNo="0" devices="tripinfo_f_0_0.8" vType="type1" speedFactor="0.89" vaporized=""/>
    <tripinfo id="f_0_0.9" depart="123.00" departLane="np13_nt13_0" departPos="15.68" departSpeed="0.00" departDelay="0.28" arrival="298.00" arrivalLane="nt4_np5_0" arrivalPos="75.00" arrivalSpeed="19.67" duration="175.00" routeLength="1332.21" waitingTime="42.00" waitingCount="4" stopTime="0.00" timeLoss="85.57" rerouteNo="0" devices="tripinfo_f_0_0.9" vType="type1" speedFactor="1.03" vaporized=""/>
    <tripinfo id="f_0_0.10" depart="137.00" departLane="np13_nt13_0" departPos="17.08" departSpeed="0.00" departDelay="0.64" arrival="300.00" arrivalLane="nt4_np5_0" arrivalPos="75.00" arrivalSpeed="19.66" duration="163.00" routeLength="1330.81" waitingTime="41.00" waitingCount="6" stopTime="0.00" timeLoss="77.08" rerouteNo="0" devices="tripinfo_f_0_0.10" vType="type1" speedFactor="1.07" vaporized=""/>
    <tripinfo id="f_0_3.14" depart="115.00" departLane="np3_nt3_0" departPos="19.22" departSpeed="0.00" departDelay="0.45" arrival="304.00" arrivalLane="nt14_np11_0" arrivalPos="75.00" arrivalSpeed="8.95" duration="189.00" routeLength="931.87" waitingTime="58.00" waitingCount="6" stopTime="0.00" timeLoss="98.20" rerouteNo="0" devices="tripinfo_f_0_3.14" vType="type1" speedFactor="0.86" vaporized=""/>
    <tripinfo id="f_0_3.15" depart="123.00" departLane="np3_nt3_0" departPos="6.20" departSpeed="0.00" departDelay="0.27" arrival="306.00" arrivalLane="nt14_np11_0" arrivalPos="75.00" arrivalSpeed="12.30" duration="183.00" routeLength="944.89" waitingTime="43.00" waitingCount="6" stopTime="0.00" timeLoss="112.96" rerouteNo="0" devices="tripinfo_f_0_3.15" vType="type1" speedFactor="1.14" vaporized=""/>
    <tripinfo id="f_0_1.3" depart="41.00" departLane="np16_nt1_0" departPos="50.17" departSpeed="0.00" departDelay="0.09" arrival="308.00" arrivalLane="nt16_np8_0" arrivalPos="75.00" arrivalSpeed="17.14" duration="267.00" routeLength="1297.71" waitingTime="100.00" waitingCount="10" stopTime="0.00" timeLoss="166.54" rerouteNo="0" devices="tripinfo_f_0_1.3" vType="type1" speedFactor="0.90" vaporized=""/>
    <tripinfo id="f_0_3.16" depart="131.00" departLane="np3_nt3_0" departPos="3.35" departSpeed="0.00" departDelay="0.09" arrival="308.00" arrivalLane="nt14_np11_0" arrivalPos="75.00" arrivalSpeed="10.85" duration="177.00" routeLength="947.74" waitingTime="46.00" waitingCount="6" stopTime="0.00" timeLoss="101.55" rerouteNo="0" devices="tripinfo_f_0_3.16" vType="type1" speedFactor="1.05" vaporized=""/>
    <tripinfo id="f_0_1.4" depart="55.00" departLane="np16_nt1_0" departPos="49.50" departSpeed="0.00" departDelay="0.46" arrival="310.00" arrivalLane="nt16_np8_0" arrivalPos="75.00" arrivalSpeed="18.49" duration="255.00" routeLength="1298.38" waitingTime="83.00" waitingCount="9" stopTime="0.00" timeLoss="158.29" rerouteNo="0" devices="tripinfo_f_0_1.4" vType="type1" speedFactor="0.94" vaporized=""/>
    <tripinfo id="f_0_3.17" depart="140.00" departLane="np3_nt3_0" departPos="0.00" departSpeed="0.00" departDelay="0.91" arrival="310.00" arrivalLane="nt14_np11_0" arrivalPos="75.00" arrivalSpeed="12.49" duration="170.00" routeLength="951.09" waitingTime="40.00" waitingCount="4" stopTime="0.00" timeLoss="101.89" rerouteNo="0" devices="tripinfo_f_0_3.17" vType="type1" speedFactor="1.18" vaporized=""/>
    <tripinfo id="f_0_2.12" depart="99.00" departLane="np2_nt2_0" departPos="2.90" departSpeed="0.00" departDelay="0.82" arrival="317.00" arrivalLane="nt15_np10_0" arrivalPos="75.00" arrivalSpeed="9.97" duration="218.00" routeLength="948.18" waitingTime="64.00" waitingCount="7" stopTime="0.00" timeLoss="143.62" rerouteNo="0" devices="tripinfo_f_0_2.12" vType="type1" speedFactor="1.08" vaporized=""/>
    <tripinfo id="f_0_0.11" depart="150.00" departLane="np13_nt13_0" departPos="14.30" departSpeed="0.00" departDelay="0.00" arrival="318.00" arrivalLane="nt4_np5_0" arrivalPos="75.00" arrivalSpeed="16.01" duration="168.00" routeLength="1333.59" waitingTime="26.00" waitingCount="4" stopTime="0.00" timeLoss="62.32" rerouteNo="0" devices="tripinfo_f_0_0.11" vType="type1" speedFactor="0.88" vaporized=""/>
    <tripinfo id="f_0_2.13" depart="107.00" departLane="np2_nt2_0" departPos="45.57" departSpeed="0.00" departDelay="0.63" arrival="319.00" arrivalLane="nt15_np10_0" arrivalPos="75.00" arrivalSpeed="9.62" duration="212.00" routeLength="905.51" waitingTime="66.00" waitingCount="6" stopTime="0.00" timeLoss="134.66" rerouteNo="0" devices="tripinfo_f_0_2.13" vType="type1" speedFactor="0.98" vaporized=""/>
    <tripinfo id="f_0_1.5" depart="69.00" departLane="np16_nt1_0" departPos="18.21" departSpeed="0.00" departDelay="0.82" arrival="324.00" arrivalLane="nt16_np8_0" arrivalPos="75.00" arrivalSpeed="14.56" duration="255.00" routeLength="1329.67" waitingTime="54.00" waitingCount="7" stopTime="0.00" timeLoss="145.52" rerouteNo="0" devices="tripinfo_f_0_1.5" vType="type1" speedFactor="0.84" vaporized=""/>
    <tripinfo id="f_0_1.6" depart="82.00" departLane="np16_nt1_0" departPos="38.48" departSpeed="0.00" departDelay="0.18" arrival="335.00" arrivalLane="nt16_np8_0" arrivalPos="75.00" arrivalSpeed="18.31" duration="253.00" routeLength="1309.40" waitingTime="77.00" waitingCount="8" stopTime="0.00" timeLoss="153.06" rerouteNo="0" devices="tripinfo_f_0_1.6" vType="type1" speedFactor="0.92" vaporized=""/>
    <tripinfo id="f_0_2.14" depart="115.00" departLane="np2_nt2_0" departPos="21.71" departSpeed="0.00" departDelay="0.45" arrival="356.00" arrivalLane="nt15_np10_0" arrivalPos="75.00" arrivalSpeed="11.73" duration="241.00" routeLength="929.37" waitingTime="87.00" waitingCount="7" stopTime="0.00" timeLoss="171.95" rerouteNo="0" devices="tripinfo_f_0_2.14" vType="type1" speedFactor="1.13" vaporized=""/>
    <tripinfo id="f_0_3.18" depart="148.00" departLane="np3_nt3_0" departPos="14.01" departSpeed="0.00" departDelay="0.72" arrival="358.00" arrivalLane="nt14_np11_0" arrivalPos="75.00" arrivalSpeed="8.40" duration="210.00" routeLength="937.08" waitingTime="94.00" waitingCount="6" stopTime="0.00" timeLoss="125.67" rerouteNo="0" devices="tripinfo_f_0_3.18" vType="type1" speedFactor="0.93" vaporized=""/>
    <tripinfo id="f_0_2.15" depart="123.00" departLane="np2_nt2_0" departPos="27.77" departSpeed="0.00" departDelay="0.27" arrival="359.00" arrivalLane="nt15_np10_0" arrivalPos="75.00" arrivalSpeed="8.79" duration="236.00" routeLength="923.31" waitingTime="82.00" waitingCount="6" stopTime="0.00" timeLoss="155.68" rerouteNo="0" devices="tripinfo_f_0_2.15" vType="type1" speedFactor="0.96" vaporized=""/>
    <tripinfo id="f_0_2.16" depart="131.00" departLane="np2_nt2_0" departPos="51.59" departSpeed="0.00" departDelay="0.09" arrival="363.00" arrivalLane="nt15_np10_0" arrivalPos="75.00" arrivalSpeed="9.73" duration="232.00" routeLength="899.49" waitingTime="77.00" waitingCount="7" stopTime="0.00" timeLoss="147.42" rerouteNo="0" devices="tripinfo_f_0_2.16" vType="type1" speedFactor="0.90" vaporized=""/>
    <tripinfo id="f_0_0.12" depart="164.00" departLane="np13_nt13_0" departPos="54.12" departSpeed="0.00" departDelay="0.37" arrival="364.00" arrivalLane="nt4_np5_0" arrivalPos="75.00" arrivalSpeed="19.00" duration="200.00" routeLength="1293.77" waitingTime="75.00" waitingCount="7" stopTime="0.00" timeLoss="115.82" rerouteNo="0" devices="tripinfo_f_0_0.12" vType="type1" speedFactor="1.07" vaporized=""/>
    <tripinfo id="f_0_1.7" depart="96.00" departLane="np16_nt1_0" departPos="16.79" departSpeed="0.00" departDelay="0.55" arrival="372.00" arrivalLane="nt16_np8_0" arrivalPos="75.00" arrivalSpeed="19.35" duration="276.00" routeLength="1331.09" waitingTime="105.00" waitingCount="10" stopTime="0.00" timeLoss="185.73" rerouteNo="0" devices="tripinfo_f_0_1.7" vType="type1" speedFactor="1.03" vaporized=""/>
    <tripinfo id="f_0_0.13" depart="178.00" departLane="np13_nt13_0" departPos="57.55" departSpeed="0.00" departDelay="0.73" arrival="373.00" arrivalLane="nt4_np5_0" arrivalPos="75.00" arrivalSpeed="20.66" duration="195.00" routeLength="1290.34" waitingTime="68.00" waitingCount="7" stopTime="0.00" timeLoss="109.65" rerouteNo="0" devices="tripinfo_f_0_0.13" vType="type1" speedFactor="1.06" vaporized=""/>
    <tripinfo id="f_0_0.14" depart="191.00" departLane="np13_nt13_0" departPos="24.48" departSpeed="0.00" departDelay="0.10" arrival="375.00" arrivalLane="nt4_np5_0" arrivalPos="75.00" arrivalSpeed="20.18" duration="184.00" routeLength="1323.41" waitingTime="57.00" waitingCount="7" stopTime="0.00" timeLoss="100.07" rerouteNo="0" devices="tripinfo_f_0_0.14" vType="type1" speedFactor="1.10" vaporized=""/>
    <tripinfo id="f_0_1.8" depart="110.00" departLane="np16_nt1_0" departPos="18.37" departSpeed="0.00" departDelay="0.91" arrival="388.00" arrivalLane="nt16_np8_0" arrivalPos="75.00" arrivalSpeed="22.28" duration="278.00" routeLength="1329.51" waitingTime="105.00" waitingCount="13" stopTime="0.00" timeLoss="200.85" rerouteNo="0" devices="tripinfo_f_0_1.8" vType="type1" speedFactor="1.20" vaporized=""/>
    <tripinfo id="f_0_1.9" depart="123.00" departLane="np16_nt1_0" departPos="32.27" departSpeed="0.00" departDelay="0.28" arrival="390.00" arrivalLane="nt16_np8_0" arrivalPos="75.00" arrivalSpeed="19.34" duration="267.00" routeLength="1315.61" waitingTime="91.00" waitingCount="12" stopTime="0.00" timeLoss="175.73" rerouteNo="0" devices="tripinfo_f_0_1.9" vType="type1" speedFactor="1.00" vaporized=""/>
    <tripinfo id="f_0_2.17" depart="140.00" departLane="np2_nt2_0" departPos="38.59" departSpeed="0.00" departDelay="0.91" arrival="392.00" arrivalLane="nt15_np10_0" arrivalPos="75.00" arrivalSpeed="10.78" duration="252.00" routeLength="912.49" waitingTime="97.00" waitingCount="10" stopTime="0.00" timeLoss="180.03" rerouteNo="0" devices="tripinfo_f_0_2.17" vType="type1" speedFactor="1.06" vaporized=""/>
    <tripinfo id="f_0_2.18" depart="148.00" departLane="np2_nt2_0" departPos="23.29" departSpeed="0.00" departDelay="0.72" arrival="394.00" arrivalLane="nt15_np10_0" arrivalPos="75.00" arrivalSpeed="10.49" duration="246.00" routeLength="927.79" waitingTime="81.00" waitingCount="9" stopTime="0.00" timeLoss="168.75" rerouteNo="0" devices="tripinfo_f_0_2.18" vType="type1" speedFactor="1.00" vaporized=""/>
    <tripinfo id="f_0_3.19" depart="156.00" departLane="np3_nt3_0" departPos="5.94" departSpeed="0.00" departDelay="0.54" arrival="395.00" arrivalLane="nt14_np11_0" arrivalPos="75.00" arrivalSpeed="7.14" duration="239.00" routeLength="945.15" waitingTime="103.00" waitingCount="7" stopTime="0.00" timeLoss="143.80" rerouteNo="0" devices="tripinfo_f_0_3.19" vType="type1" speedFactor="0.83" vaporized=""/>
    <tripinfo id="f_0_3.20" depart="164.00" departLane="np3_nt3_0" departPos="31.69" departSpeed="0.00" departDelay="0.36" arrival="397.00" arrivalLane="nt14_np11_0" arrivalPos="75.00" arrivalSpeed="9.76" duration="233.00" routeLength="919.40" waitingTime="105.00" waitingCount="9" stopTime="0.00" timeLoss="156.76" rerouteNo="0" devices="tripinfo_f_0_3.20" vType="type1" speedFactor="1.01" vaporized=""/>
    <tripinfo id="f_0_0.15" depart="205.00" departLane="np13_nt13_0" departPos="27.66" departSpeed="0.00" departDelay="0.46" arrival="398.00" arrivalLane="nt4_np5_0" arrivalPos="75.00" arrivalSpeed="20.82" duration="193.00" routeLength="1320.23" waitingTime="64.00" waitingCount="6" stopTime="0.00" timeLoss="108.31" rerouteNo="0" devices="tripinfo_f_0_0.15" vType="type1" speedFactor="1.08" vaporized=""/>
    <tripinfo id="f_0_3.21" depart="172.00" departLane="np3_nt3_0" departPos="29.15" departSpeed="0.00" departDelay="0.18" arrival="399.00" arrivalLane="nt14_np11_0" arrivalPos="75.00" arrivalSpeed="7.57" duration="227.00" routeLength="921.94" waitingTime="92.00" waitingCount="8" stopTime="0.00" timeLoss="140.20" rerouteNo="0" devices="tripinfo_f_0_3.21" vType="type1" speedFactor="0.89" vaporized=""/>
    <tripinfo id="f_0_0.16" depart="219.00" departLane="np13_nt13_0" departPos="29.20" departSpeed="0.00" departDelay="0.82" arrival="400.00" arrivalLane="nt4_np5_0" arrivalPos="75.00" arrivalSpeed="18.66" duration="181.00" routeLength="1318.69" waitingTime="36.00" waitingCount="6" stopTime="0.00" timeLoss="86.07" rerouteNo="0" devices="tripinfo_f_0_0.16" vType="type1" speedFactor="0.96" vaporized=""/>
    <tripinfo id="f_0_2.19" depart="156.00" departLane="np2_nt2_0" departPos="61.66" departSpeed="0.00" departDelay="0.54" arrival="401.00" arrivalLane="nt15_np10_0" arrivalPos="75.00" arrivalSpeed="7.82" duration="245.00" routeLength="889.42" waitingTime="75.00" waitingCount="10" stopTime="0.00" timeLoss="161.87" rerouteNo="0" devices="tripinfo_f_0_2.19" vType="type1" speedFactor="0.90" vaporized=""/>
    <tripinfo id="f_0_3.22" depart="180.00" departLane="np3_nt3_0" departPos="21.18" departSpeed="0.00" departDelay="0.00" arrival="401.00" arrivalLane="nt14_np11_0" arrivalPos="75.00" arrivalSpeed="9.97" duration="221.00" routeLength="929.91" waitingTime="82.00" waitingCount="9" stopTime="0.00" timeLoss="151.78" rerouteNo="0" devices="tripinfo_f_0_3.22" vType="type1" speedFactor="1.13" vaporized=""/>
    <tripinfo id="f_0_3.23" depart="189.00" departLane="np3_nt3_0" departPos="19.92" departSpeed="0.00" departDelay="0.81" arrival="403.00" arrivalLane="nt14_np11_0" arrivalPos="75.00" arrivalSpeed="9.03" duration="214.00" routeLength="931.17" waitingTime="68.00" waitingCount="7" stopTime="0.00" timeLoss="129.87" rerouteNo="0" devices="tripinfo_f_0_3.23" vType="type1" speedFactor="0.93" vaporized=""/>