<?xml version="1.0" encoding="UTF-8"?>

<!-- generated on 2023-08-23 16:40:49 by Eclipse SUMO libsumo Version 1.18.0
<configuration xmlns:xsi="http://www.w3.org/2001/XMLSchema-instance" xsi:noNamespaceSchemaLocation="http://sumo.dlr.de/xsd/libsumoConfiguration.xsd">

    <input>
        <net-file value="/home/stefan/RESCO/./environments/arterial4x4/arterial4x4.net.xml"/>
        <route-files value="/home/stefan/RESCO/./environments/arterial4x4/arterial4x4_62.rou.xml"/>
    </input>

    <output>
        <tripinfo-output value="/home/stefan/results/IDDQN-tr0-arterial4x4-0-drq_norm-wait_norm/tripinfo_62.xml"/>
        <tripinfo-output.write-unfinished value="true"/>
    </output>

    <processing>
        <time-to-teleport value="-1"/>
    </processing>

    <report>
        <no-warnings value="True"/>
        <no-step-log value="True"/>
    </report>

    <random_number>
        <random value="true"/>
    </random_number>

</configuration>
-->

<tripinfos xmlns:xsi="http://www.w3.org/2001/XMLSchema-instance" xsi:noNamespaceSchemaLocation="http://sumo.dlr.de/xsd/tripinfo_file.xsd">
    <tripinfo id="f_0_2.0" depart="0.00" departLane="np2_nt2_0" departPos="63.36" departSpeed="0.00" departDelay="0.00" arrival="132.00" arrivalLane="nt15_np10_0" arrivalPos="75.00" arrivalSpeed="9.31" duration="132.00" routeLength="887.72" waitingTime="40.00" waitingCount="3" stopTime="0.00" timeLoss="59.79" rerouteNo="0" devices="tripinfo_f_0_2.0" vType="type1" speedFactor="1.03" vaporized=""/>
    <tripinfo id="f_0_0.0" depart="0.00" departLane="np13_nt13_0" departPos="20.11" departSpeed="0.00" departDelay="0.00" arrival="143.00" arrivalLane="nt4_np5_0" arrivalPos="75.00" arrivalSpeed="17.88" duration="143.00" routeLength="1327.78" waitingTime="24.00" waitingCount="2" stopTime="0.00" timeLoss="48.06" rerouteNo="0" devices="tripinfo_f_0_0.0" vType="type1" speedFactor="0.97" vaporized=""/>
    <tripinfo id="f_0_3.0" depart="0.00" departLane="np3_nt3_0" departPos="38.75" departSpeed="0.00" departDelay="0.00" arrival="152.00" arrivalLane="nt14_np11_0" arrivalPos="75.00" arrivalSpeed="9.33" duration="152.00" routeLength="912.34" waitingTime="54.00" waitingCount="3" stopTime="0.00" timeLoss="75.31" rerouteNo="0" devices="tripinfo_f_0_3.0" vType="type1" speedFactor="1.00" vaporized=""/>
    <tripinfo id="f_0_3.1" depart="9.00" departLane="np3_nt3_0" departPos="9.51" departSpeed="0.00" departDelay="0.82" arrival="157.00" arrivalLane="nt14_np11_0" arrivalPos="75.00" arrivalSpeed="7.83" duration="148.00" routeLength="941.58" waitingTime="36.00" waitingCount="3" stopTime="0.00" timeLoss="62.96" rerouteNo="0" devices="tripinfo_f_0_3.1" vType="type1" speedFactor="0.93" vaporized=""/>
    <tripinfo id="f_0_3.2" depart="17.00" departLane="np3_nt3_0" departPos="42.11" departSpeed="0.00" departDelay="0.64" arrival="159.00" arrivalLane="nt14_np11_0" arrivalPos="75.00" arrivalSpeed="11.05" duration="142.00" routeLength="908.98" waitingTime="34.00" waitingCount="3" stopTime="0.00" timeLoss="73.67" rerouteNo="0" devices="tripinfo_f_0_3.2" vType="type1" speedFactor="1.12" vaporized=""/>
    <tripinfo id="f_0_3.3" depart="25.00" departLane="np3_nt3_0" departPos="48.44" departSpeed="0.00" departDelay="0.45" arrival="161.00" arrivalLane="nt14_np11_0" arrivalPos="75.00" arrivalSpeed="10.70" duration="136.00" routeLength="902.65" waitingTime="40.00" waitingCount="3" stopTime="0.00" timeLoss="72.20" rerouteNo="0" devices="tripinfo_f_0_3.3" vType="type1" speedFactor="1.19" vaporized=""/>
    <tripinfo id="f_0_3.4" depart="33.00" departLane="np3_nt3_0" departPos="37.17" departSpeed="0.00" departDelay="0.27" arrival="178.00" arrivalLane="nt14_np11_0" arrivalPos="75.00" arrivalSpeed="7.66" duration="145.00" routeLength="913.92" waitingTime="28.00" waitingCount="4" stopTime="0.00" timeLoss="60.84" rerouteNo="0" devices="tripinfo_f_0_3.4" vType="type1" speedFactor="0.91" vaporized=""/>
    <tripinfo id="f_0_3.5" depart="41.00" departLane="np3_nt3_0" departPos="47.09" departSpeed="0.00" departDelay="0.09" arrival="180.00" arrivalLane="nt14_np11_0" arrivalPos="75.00" arrivalSpeed="9.36" duration="139.00" routeLength="904.00" waitingTime="23.00" waitingCount="5" stopTime="0.00" timeLoss="55.93" rerouteNo="0" devices="tripinfo_f_0_3.5" vType="type1" speedFactor="0.91" vaporized=""/>
    <tripinfo id="f_0_3.6" depart="50.00" departLane="np3_nt3_0" departPos="4.92" departSpeed="0.00" departDelay="0.91" arrival="186.00" arrivalLane="nt14_np11_0" arrivalPos="75.00" arrivalSpeed="11.41" duration="136.00" routeLength="946.17" waitingTime="27.00" waitingCount="5" stopTime="0.00" timeLoss="65.63" rerouteNo="0" devices="tripinfo_f_0_3.6" vType="type1" speedFactor="1.14" vaporized=""/>
    <tripinfo id="f_0_3.7" depart="58.00" departLane="np3_nt3_0" departPos="42.95" departSpeed="0.00" departDelay="0.73" arrival="188.00" arrivalLane="nt14_np11_0" arrivalPos="75.00" arrivalSpeed="10.28" duration="130.00" routeLength="908.14" waitingTime="21.00" waitingCount="5" stopTime="0.00" timeLoss="59.21" rerouteNo="0" devices="tripinfo_f_0_3.7" vType="type1" speedFactor="1.08" vaporized=""/>
    <tripinfo id="f_0_3.8" depart="66.00" departLane="np3_nt3_0" departPos="33.48" departSpeed="0.00" departDelay="0.54" arrival="191.00" arrivalLane="nt14_np11_0" arrivalPos="75.00" arrivalSpeed="10.46" duration="125.00" routeLength="917.61" waitingTime="4.00" waitingCount="3" stopTime="0.00" timeLoss="46.78" rerouteNo="0" devices="tripinfo_f_0_3.8" vType="type1" speedFactor="0.99" vaporized=""/>
    <tripinfo id="f_0_3.9" depart="74.00" departLane="np3_nt3_0" departPos="31.11" departSpeed="0.00" departDelay="0.36" arrival="195.00" arrivalLane="nt14_np11_0" arrivalPos="75.00" arrivalSpeed="9.41" duration="121.00" routeLength="919.98" waitingTime="2.00" waitingCount="2" stopTime="0.00" timeLoss="35.60" rerouteNo="0" devices="tripinfo_f_0_3.9" vType="type1" speedFactor="0.91" vaporized=""/>
    <tripinfo id="f_0_3.10" depart="82.00" departLane="np3_nt3_0" departPos="3.62" departSpeed="0.00" departDelay="0.18" arrival="197.00" arrivalLane="nt14_np11_0" arrivalPos="75.00" arrivalSpeed="8.66" duration="115.00" routeLength="947.47" waitingTime="10.00" waitingCount="1" stopTime="0.00" timeLoss="34.02" rerouteNo="0" devices="tripinfo_f_0_3.10" vType="type1" speedFactor="0.99" vaporized=""/>
    <tripinfo id="f_0_3.11" depart="90.00" departLane="np3_nt3_0" departPos="30.69" departSpeed="0.00" departDelay="0.00" arrival="198.00" arrivalLane="nt14_np11_0" arrivalPos="75.00" arrivalSpeed="10.96" duration="108.00" routeLength="920.40" waitingTime="6.00" waitingCount="2" stopTime="0.00" timeLoss="33.15" rerouteNo="0" devices="tripinfo_f_0_3.11" vType="type1" speedFactor="1.02" vaporized=""/>
    <tripinfo id="f_0_2.1" depart="9.00" departLane="np2_nt2_0" departPos="38.57" departSpeed="0.00" departDelay="0.82" arrival="199.00" arrivalLane="nt15_np10_0" arrivalPos="75.00" arrivalSpeed="8.55" duration="190.00" routeLength="912.51" waitingTime="76.00" waitingCount="6" stopTime="0.00" timeLoss="102.34" rerouteNo="0" devices="tripinfo_f_0_2.1" vType="type1" speedFactor="0.88" vaporized=""/>
    <tripinfo id="f_0_2.2" depart="17.00" departLane="np2_nt2_0" departPos="23.80" departSpeed="0.00" departDelay="0.64" arrival="200.00" arrivalLane="nt15_np10_0" arrivalPos="75.00" arrivalSpeed="10.74" duration="183.00" routeLength="927.28" waitingTime="68.00" waitingCount="6" stopTime="0.00" timeLoss="109.97" rerouteNo="0" devices="tripinfo_f_0_2.2" vType="type1" speedFactor="1.06" vaporized=""/>
    <tripinfo id="f_0_2.3" depart="25.00" departLane="np2_nt2_0" departPos="12.08" departSpeed="0.00" departDelay="0.45" arrival="203.00" arrivalLane="nt15_np10_0" arrivalPos="75.00" arrivalSpeed="9.50" duration="178.00" routeLength="939.00" waitingTime="63.00" waitingCount="6" stopTime="0.00" timeLoss="99.49" rerouteNo="0" devices="tripinfo_f_0_2.3" vType="type1" speedFactor="1.01" vaporized=""/>
    <tripinfo id="f_0_2.4" depart="33.00" departLane="np2_nt2_0" departPos="35.51" departSpeed="0.00" departDelay="0.27" arrival="207.00" arrivalLane="nt15_np10_0" arrivalPos="75.00" arrivalSpeed="10.36" duration="174.00" routeLength="915.57" waitingTime="52.00" waitingCount="5" stopTime="0.00" timeLoss="95.50" rerouteNo="0" devices="tripinfo_f_0_2.4" vType="type1" speedFactor="0.98" vaporized=""/>
    <tripinfo id="f_0_1.0" depart="0.00" departLane="np16_nt1_0" departPos="7.07" departSpeed="0.00" departDelay="0.00" arrival="212.00" arrivalLane="nt16_np8_0" arrivalPos="75.00" arrivalSpeed="18.70" duration="212.00" routeLength="1340.81" waitingTime="78.00" waitingCount="6" stopTime="0.00" timeLoss="121.34" rerouteNo="0" devices="tripinfo_f_0_1.0" vType="type1" speedFactor="1.03" vaporized=""/>
    <tripinfo id="f_0_1.1" depart="14.00" departLane="np16_nt1_0" departPos="55.03" departSpeed="0.00" departDelay="0.36" arrival="214.00" arrivalLane="nt16_np8_0" arrivalPos="75.00" arrivalSpeed="21.22" duration="200.00" routeLength="1292.85" waitingTime="64.00" waitingCount="6" stopTime="0.00" timeLoss="120.91" rerouteNo="0" devices="tripinfo_f_0_1.1" vType="type1" speedFactor="1.14" vaporized=""/>
    <tripinfo id="f_0_2.5" depart="41.00" departLane="np2_nt2_0" departPos="1.97" departSpeed="0.00" departDelay="0.09" arrival="221.00" arrivalLane="nt15_np10_0" arrivalPos="75.00" arrivalSpeed="7.76" duration="180.00" routeLength="949.11" waitingTime="37.00" waitingCount="7" stopTime="0.00" timeLoss="88.06" rerouteNo="0" devices="tripinfo_f_0_2.5" vType="type1" speedFactor="0.87" vaporized=""/>
    <tripinfo id="f_0_2.6" depart="50.00" departLane="np2_nt2_0" departPos="49.52" departSpeed="0.00" departDelay="0.91" arrival="223.00" arrivalLane="nt15_np10_0" arrivalPos="75.00" arrivalSpeed="9.61" duration="173.00" routeLength="901.56" waitingTime="34.00" waitingCount="7" stopTime="0.00" timeLoss="92.32" rerouteNo="0" devices="tripinfo_f_0_2.6" vType="type1" speedFactor="0.94" vaporized=""/>
    <tripinfo id="f_0_0.1" depart="14.00" departLane="np13_nt13_0" departPos="33.28" departSpeed="0.00" departDelay="0.36" arrival="224.00" arrivalLane="nt4_np5_0" arrivalPos="75.00" arrivalSpeed="16.64" duration="210.00" routeLength="1314.61" waitingTime="79.00" waitingCount="5" stopTime="0.00" timeLoss="110.10" rerouteNo="0" devices="tripinfo_f_0_0.1" vType="type1" speedFactor="0.91" vaporized=""/>
    <tripinfo id="f_0_2.7" depart="58.00" departLane="np2_nt2_0" departPos="42.38" departSpeed="0.00" departDelay="0.73" arrival="224.00" arrivalLane="nt15_np10_0" arrivalPos="75.00" arrivalSpeed="10.81" duration="166.00" routeLength="908.70" waitingTime="26.00" waitingCount="5" stopTime="0.00" timeLoss="93.08" rerouteNo="0" devices="tripinfo_f_0_2.7" vType="type1" speedFactor="1.04" vaporized=""/>
    <tripinfo id="f_0_0.2" depart="28.00" departLane="np13_nt13_0" departPos="16.72" departSpeed="0.00" departDelay="0.73" arrival="226.00" arrivalLane="nt4_np5_0" arrivalPos="75.00" arrivalSpeed="18.07" duration="198.00" routeLength="1331.17" waitingTime="62.00" waitingCount="6" stopTime="0.00" timeLoss="102.63" rerouteNo="0" devices="tripinfo_f_0_0.2" vType="type1" speedFactor="0.97" vaporized=""/>
    <tripinfo id="f_0_0.3" depart="41.00" departLane="np13_nt13_0" departPos="46.76" departSpeed="0.00" departDelay="0.09" arrival="228.00" arrivalLane="nt4_np5_0" arrivalPos="75.00" arrivalSpeed="17.99" duration="187.00" routeLength="1301.13" waitingTime="48.00" waitingCount="6" stopTime="0.00" timeLoss="94.94" rerouteNo="0" devices="tripinfo_f_0_0.3" vType="type1" speedFactor="0.99" vaporized=""/>
    <tripinfo id="f_0_0.4" depart="55.00" departLane="np13_nt13_0" departPos="13.07" departSpeed="0.00" departDelay="0.46" arrival="229.00" arrivalLane="nt4_np5_0" arrivalPos="75.00" arrivalSpeed="18.08" duration="174.00" routeLength="1334.82" waitingTime="27.00" waitingCount="4" stopTime="0.00" timeLoss="73.32" rerouteNo="0" devices="tripinfo_f_0_0.4" vType="type1" speedFactor="0.91" vaporized=""/>
    <tripinfo id="f_0_3.12" depart="99.00" departLane="np3_nt3_0" departPos="7.58" departSpeed="0.00" departDelay="0.82" arrival="233.00" arrivalLane="nt14_np11_0" arrivalPos="75.00" arrivalSpeed="8.43" duration="134.00" routeLength="943.51" waitingTime="28.00" waitingCount="1" stopTime="0.00" timeLoss="49.09" rerouteNo="0" devices="tripinfo_f_0_3.12" vType="type1" speedFactor="0.93" vaporized=""/>
    <tripinfo id="f_0_0.5" depart="69.00" departLane="np13_nt13_0" departPos="10.85" departSpeed="0.00" departDelay="0.82" arrival="243.00" arrivalLane="nt4_np5_0" arrivalPos="75.00" arrivalSpeed="18.65" duration="174.00" routeLength="1337.04" waitingTime="44.00" waitingCount="5" stopTime="0.00" timeLoss="83.57" rerouteNo="0" devices="tripinfo_f_0_0.5" vType="type1" speedFactor="1.03" vaporized=""/>
    <tripinfo id="f_0_1.2" depart="28.00" departLane="np16_nt1_0" departPos="50.26" departSpeed="0.00" departDelay="0.73" arrival="244.00" arrivalLane="nt16_np8_0" arrivalPos="75.00" arrivalSpeed="18.64" duration="216.00" routeLength="1297.62" waitingTime="63.00" waitingCount="8" stopTime="0.00" timeLoss="120.86" rerouteNo="0" devices="tripinfo_f_0_1.2" vType="type1" speedFactor="0.96" vaporized=""/>
    <tripinfo id="f_0_1.3" depart="41.00" departLane="np16_nt1_0" departPos="54.61" departSpeed="0.00" departDelay="0.09" arrival="245.00" arrivalLane="nt16_np8_0" arrivalPos="75.00" arrivalSpeed="22.61" duration="204.00" routeLength="1293.27" waitingTime="38.00" waitingCount="7" stopTime="0.00" timeLoss="127.88" rerouteNo="0" devices="tripinfo_f_0_1.3" vType="type1" speedFactor="1.19" vaporized=""/>
    <tripinfo id="f_0_0.6" depart="82.00" departLane="np13_nt13_0" departPos="61.05" departSpeed="0.00" departDelay="0.18" arrival="245.00" arrivalLane="nt4_np5_0" arrivalPos="75.00" arrivalSpeed="22.23" duration="163.00" routeLength="1286.84" waitingTime="40.00" waitingCount="7" stopTime="0.00" timeLoss="83.02" rerouteNo="0" devices="tripinfo_f_0_0.6" vType="type1" speedFactor="1.13" vaporized=""/>
    <tripinfo id="f_0_1.4" depart="55.00" departLane="np16_nt1_0" departPos="63.91" departSpeed="0.00" departDelay="0.46" arrival="246.00" arrivalLane="nt16_np8_0" arrivalPos="75.00" arrivalSpeed="20.54" duration="191.00" routeLength="1283.97" waitingTime="22.00" waitingCount="7" stopTime="0.00" timeLoss="105.62" rerouteNo="0" devices="tripinfo_f_0_1.4" vType="type1" speedFactor="1.05" vaporized=""/>
    <tripinfo id="f_0_3.13" depart="107.00" departLane="np3_nt3_0" departPos="16.63" departSpeed="0.00" departDelay="0.63" arrival="262.00" arrivalLane="nt14_np11_0" arrivalPos="75.00" arrivalSpeed="8.92" duration="155.00" routeLength="934.46" waitingTime="53.00" waitingCount="3" stopTime="0.00" timeLoss="77.36" rerouteNo="0" devices="tripinfo_f_0_3.13" vType="type1" speedFactor="1.01" vaporized=""/>
    <tripinfo id="f_0_3.14" depart="115.00" departLane="np3_nt3_0" departPos="29.80" departSpeed="0.00" departDelay="0.45" arrival="265.00" arrivalLane="nt14_np11_0" arrivalPos="75.00" arrivalSpeed="8.68" duration="150.00" routeLength="921.29" waitingTime="45.00" waitingCount="4" stopTime="0.00" timeLoss="70.21" rerouteNo="0" devices="tripinfo_f_0_3.14" vType="type1" speedFactor="0.97" vaporized=""/>
    <tripinfo id="f_0_3.15" depart="123.00" departLane="np3_nt3_0" departPos="42.67" departSpeed="0.00" departDelay="0.27" arrival="266.00" arrivalLane="nt14_np11_0" arrivalPos="75.00" arrivalSpeed="10.82" duration="143.00" routeLength="908.42" waitingTime="40.00" waitingCount="4" stopTime="0.00" timeLoss="79.04" rerouteNo="0" devices="tripinfo_f_0_3.15" vType="type1" speedFactor="1.19" vaporized=""/>
    <tripinfo id="f_0_0.7" depart="96.00" departLane="np13_nt13_0" departPos="19.33" departSpeed="0.00" departDelay="0.55" arrival="269.00" arrivalLane="nt4_np5_0" arrivalPos="75.00" arrivalSpeed="18.28" duration="173.00" routeLength="1328.56" waitingTime="45.00" waitingCount="5" stopTime="0.00" timeLoss="77.77" rerouteNo="0" devices="tripinfo_f_0_0.7" vType="type1" speedFactor="0.97" vaporized=""/>
    <tripinfo id="f_0_3.16" depart="131.00" departLane="np3_nt3_0" departPos="43.47" departSpeed="0.00" departDelay="0.09" arrival="269.00" arrivalLane="nt14_np11_0" arrivalPos="75.00" arrivalSpeed="8.11" duration="138.00" routeLength="907.62" waitingTime="17.00" waitingCount="5" stopTime="0.00" timeLoss="54.25" rerouteNo="0" devices="tripinfo_f_0_3.16" vType="type1" speedFactor="0.91" vaporized=""/>
    <tripinfo id="f_0_0.8" depart="110.00" departLane="np13_nt13_0" departPos="5.29" departSpeed="0.00" departDelay="0.91" arrival="270.00" arrivalLane="nt4_np5_0" arrivalPos="75.00" arrivalSpeed="22.61" duration="160.00" routeLength="1342.60" waitingTime="41.00" waitingCount="5" stopTime="0.00" timeLoss="82.03" rerouteNo="0" devices="tripinfo_f_0_0.8" vType="type1" speedFactor="1.19" vaporized=""/>
    <tripinfo id="f_0_0.9" depart="123.00" departLane="np13_nt13_0" departPos="13.93" departSpeed="0.00" departDelay="0.28" arrival="272.00" arrivalLane="nt4_np5_0" arrivalPos="75.00" arrivalSpeed="23.58" duration="149.00" routeLength="1333.96" waitingTime="26.00" waitingCount="4" stopTime="0.00" timeLoss="71.43" rerouteNo="0" devices="tripinfo_f_0_0.9" vType="type1" speedFactor="1.20" vaporized=""/>
    <tripinfo id="f_0_2.8" depart="66.00" departLane="np2_nt2_0" departPos="50.40" departSpeed="0.00" departDelay="0.54" arrival="277.00" arrivalLane="nt15_np10_0" arrivalPos="75.00" arrivalSpeed="10.33" duration="211.00" routeLength="900.68" waitingTime="55.00" waitingCount="6" stopTime="0.00" timeLoss="140.40" rerouteNo="0" devices="tripinfo_f_0_2.8" vType="type1" speedFactor="1.07" vaporized=""/>
    <tripinfo id="f_0_2.9" depart="74.00" departLane="np2_nt2_0" departPos="44.73" departSpeed="0.00" departDelay="0.36" arrival="279.00" arrivalLane="nt15_np10_0" arrivalPos="75.00" arrivalSpeed="10.98" duration="205.00" routeLength="906.35" waitingTime="49.00" waitingCount="6" stopTime="0.00" timeLoss="134.31" rerouteNo="0" devices="tripinfo_f_0_2.9" vType="type1" speedFactor="1.09" vaporized=""/>
    <tripinfo id="f_0_2.10" depart="82.00" departLane="np2_nt2_0" departPos="13.46" departSpeed="0.00" departDelay="0.18" arrival="281.00" arrivalLane="nt15_np10_0" arrivalPos="75.00" arrivalSpeed="9.41" duration="199.00" routeLength="937.62" waitingTime="61.00" waitingCount="6" stopTime="0.00" timeLoss="118.69" rerouteNo="0" devices="tripinfo_f_0_2.10" vType="type1" speedFactor="0.98" vaporized=""/>
    <tripinfo id="f_0_2.11" depart="90.00" departLane="np2_nt2_0" departPos="21.29" departSpeed="0.00" departDelay="0.00" arrival="283.00" arrivalLane="nt15_np10_0" arrivalPos="75.00" arrivalSpeed="10.17" duration="193.00" routeLength="929.79" waitingTime="52.00" waitingCount="6" stopTime="0.00" timeLoss="121.64" rerouteNo="0" devices="tripinfo_f_0_2.11" vType="type1" speedFactor="1.10" vaporized=""/>
    <tripinfo id="f_0_0.10" depart="137.00" departLane="np13_nt13_0" departPos="50.12" departSpeed="0.00" departDelay="0.64" arrival="283.00" arrivalLane="nt4_np5_0" arrivalPos="75.00" arrivalSpeed="20.17" duration="146.00" routeLength="1297.77" waitingTime="24.00" waitingCount="4" stopTime="0.00" timeLoss="56.69" rerouteNo="0" devices="tripinfo_f_0_0.10" vType="type1" speedFactor="1.02" vaporized=""/>
    <tripinfo id="f_0_0.11" depart="150.00" departLane="np13_nt13_0" departPos="5.84" departSpeed="0.00" departDelay="0.00" arrival="284.00" arrivalLane="nt4_np5_0" arrivalPos="75.00" arrivalSpeed="20.86" duration="134.00" routeLength="1342.05" waitingTime="12.00" waitingCount="4" stopTime="0.00" timeLoss="52.04" rerouteNo="0" devices="tripinfo_f_0_0.11" vType="type1" speedFactor="1.13" vaporized=""/>
    <tripinfo id="f_0_2.12" depart="99.00" departLane="np2_nt2_0" departPos="43.55" departSpeed="0.00" departDelay="0.82" arrival="292.00" arrivalLane="nt15_np10_0" arrivalPos="75.00" arrivalSpeed="9.14" duration="193.00" routeLength="907.53" waitingTime="45.00" waitingCount="4" stopTime="0.00" timeLoss="108.92" rerouteNo="0" devices="tripinfo_f_0_2.12" vType="type1" speedFactor="0.91" vaporized=""/>
    <tripinfo id="f_0_3.17" depart="140.00" departLane="np3_nt3_0" departPos="45.27" departSpeed="0.00" departDelay="0.91" arrival="292.00" arrivalLane="nt14_np11_0" arrivalPos="75.00" arrivalSpeed="10.53" duration="152.00" routeLength="905.82" waitingTime="33.00" waitingCount="4" stopTime="0.00" timeLoss="77.23" rerouteNo="0" devices="tripinfo_f_0_3.17" vType="type1" speedFactor="1.02" vaporized=""/>
    <tripinfo id="f_0_2.13" depart="107.00" departLane="np2_nt2_0" departPos="31.44" departSpeed="0.00" departDelay="0.63" arrival="294.00" arrivalLane="nt15_np10_0" arrivalPos="75.00" arrivalSpeed="7.40" duration="187.00" routeLength="919.64" waitingTime="41.00" waitingCount="4" stopTime="0.00" timeLoss="100.98" rerouteNo="0" devices="tripinfo_f_0_2.13" vType="type1" speedFactor="0.89" vaporized=""/>
    <tripinfo id="f_0_3.18" depart="148.00" departLane="np3_nt3_0" departPos="24.00" departSpeed="0.00" departDelay="0.72" arrival="295.00" arrivalLane="nt14_np11_0" arrivalPos="75.00" arrivalSpeed="8.31" duration="147.00" routeLength="927.09" waitingTime="36.00" waitingCount="3" stopTime="0.00" timeLoss="62.62" rerouteNo="0" devices="tripinfo_f_0_3.18" vType="type1" speedFactor="0.93" vaporized=""/>
    <tripinfo id="f_0_3.19" depart="156.00" departLane="np3_nt3_0" departPos="52.90" departSpeed="0.00" departDelay="0.54" arrival="297.00" arrivalLane="nt14_np11_0" arrivalPos="75.00" arrivalSpeed="10.60" duration="141.00" routeLength="898.19" waitingTime="34.00" waitingCount="4" stopTime="0.00" timeLoss="74.37" rerouteNo="0" devices="tripinfo_f_0_3.19" vType="type1" speedFactor="1.13" vaporized=""/>
    <tripinfo id="f_0_3.20" depart="164.00" departLane="np3_nt3_0" departPos="47.12" departSpeed="0.00" departDelay="0.36" arrival="299.00" arrivalLane="nt14_np11_0" arrivalPos="75.00" arrivalSpeed="11.47" duration="135.00" routeLength="903.97" waitingTime="25.00" waitingCount="4" stopTime="0.00" timeLoss="65.77" rerouteNo="0" devices="tripinfo_f_0_3.20" vType="type1" speedFactor="1.10" vaporized=""/>
    <tripinfo id="f_0_2.14" depart="115.00" departLane="np2_nt2_0" departPos="44.16" departSpeed="0.00" departDelay="0.45" arrival="302.00" arrivalLane="nt15_np10_0" arrivalPos="75.00" arrivalSpeed="9.77" duration="187.00" routeLength="906.92" waitingTime="50.00" waitingCount="6" stopTime="0.00" timeLoss="113.80" rerouteNo="0" devices="tripinfo_f_0_2.14" vType="type1" speedFactor="1.04" vaporized=""/>
    <tripinfo id="f_0_2.15" depart="123.00" departLane="np2_nt2_0" departPos="17.98" departSpeed="0.00" departDelay="0.27" arrival="308.00" arrivalLane="nt15_np10_0" arrivalPos="75.00" arrivalSpeed="8.31" duration="185.00" routeLength="933.10" waitingTime="52.00" waitingCount="4" stopTime="0.00" timeLoss="103.82" rerouteNo="0" devices="tripinfo_f_0_2.15" vType="type1" speedFactor="0.97" vaporized=""/>
    <tripinfo id="f_0_1.5" depart="69.00" departLane="np16_nt1_0" departPos="4.84" departSpeed="0.00" departDelay="0.82" arrival="309.00" arrivalLane="nt16_np8_0" arrivalPos="75.00" arrivalSpeed="16.42" duration="240.00" routeLength="1343.04" waitingTime="64.00" waitingCount="8" stopTime="0.00" timeLoss="137.44" rerouteNo="0" devices="tripinfo_f_0_1.5" vType="type1" speedFactor="0.91" vaporized=""/>
    <tripinfo id="f_0_1.6" depart="82.00" departLane="np16_nt1_0" departPos="30.00" departSpeed="0.00" departDelay="0.18" arrival="310.00" arrivalLane="nt16_np8_0" arrivalPos="75.00" arrivalSpeed="19.26" duration="228.00" routeLength="1317.88" waitingTime="57.00" waitingCount="5" stopTime="0.00" timeLoss="138.15" rerouteNo="0" devices="tripinfo_f_0_1.6" vType="type1" speedFactor="1.02" vaporized=""/>
    <tripinfo id="f_0_1.7" depart="96.00" departLane="np16_nt1_0" departPos="11.18" departSpeed="0.00" departDelay="0.55" arrival="312.00" arrivalLane="nt16_np8_0" arrivalPos="75.00" arrivalSpeed="17.27" duration="216.00" routeLength="1336.70" waitingTime="51.00" waitingCount="6" stopTime="0.00" timeLoss="118.69" rerouteNo="0" devices="tripinfo_f_0_1.7" vType="type1" speedFactor="0.96" vaporized=""/>
    <tripinfo id="f_0_1.8" depart="110.00" departLane="np16_nt1_0" departPos="4.86" departSpeed="0.00" departDelay="0.91" arrival="313.00" arrivalLane="nt16_np8_0" arrivalPos="75.00" arrivalSpeed="19.00" duration="203.00" routeLength="1343.02" waitingTime="49.00" waitingCount="5" stopTime="0.00" timeLoss="107.13" rerouteNo="0" devices="tripinfo_f_0_1.8" vType="type1" speedFactor="0.97" vaporized=""/>
    <tripinfo id="f_0_2.16" depart="131.00" departLane="np2_nt2_0" departPos="26.40" departSpeed="0.00" departDelay="0.09" arrival="313.00" arrivalLane="nt15_np10_0" arrivalPos="75.00" arrivalSpeed="9.13" duration="182.00" routeLength="924.68" waitingTime="54.00" waitingCount="6" stopTime="0.00" timeLoss="97.04" rerouteNo="0" devices="tripinfo_f_0_2.16" vType="type1" speedFactor="0.92" vaporized=""/>
    <tripinfo id="f_0_0.12" depart="164.00" departLane="np13_nt13_0" departPos="66.54" departSpeed="0.00" departDelay="0.37" arrival="314.00" arrivalLane="nt4_np5_0" arrivalPos="75.00" arrivalSpeed="16.04" duration="150.00" routeLength="1281.35" waitingTime="17.00" waitingCount="4" stopTime="0.00" timeLoss="48.27" rerouteNo="0" devices="tripinfo_f_0_0.12" vType="type1" speedFactor="0.89" vaporized=""/>
    <tripinfo id="f_0_2.17" depart="140.00" departLane="np2_nt2_0" departPos="27.88" departSpeed="0.00" departDelay="0.91" arrival="315.00" arrivalLane="nt15_np10_0" arrivalPos="75.00" arrivalSpeed="8.18" duration="175.00" routeLength="923.20" waitingTime="46.00" waitingCount="5" stopTime="0.00" timeLoss="94.29" rerouteNo="0" devices="tripinfo_f_0_2.17" vType="type1" speedFactor="0.96" vaporized=""/>
    <tripinfo id="f_0_0.13" depart="178.00" departLane="np13_nt13_0" departPos="10.95" departSpeed="0.00" departDelay="0.73" arrival="315.00" arrivalLane="nt4_np5_0" arrivalPos="75.00" arrivalSpeed="19.44" duration="137.00" routeLength="1336.94" waitingTime="15.00" waitingCount="1" stopTime="0.00" timeLoss="41.19" rerouteNo="0" devices="tripinfo_f_0_0.13" vType="type1" speedFactor="0.97" vaporized=""/>
    <tripinfo id="f_0_3.21" depart="172.00" departLane="np3_nt3_0" departPos="30.11" departSpeed="0.00" departDelay="0.18" arrival="317.00" arrivalLane="nt14_np11_0" arrivalPos="75.00" arrivalSpeed="10.58" duration="145.00" routeLength="920.98" waitingTime="35.00" waitingCount="4" stopTime="0.00" timeLoss="69.93" rerouteNo="0" devices="tripinfo_f_0_3.21" vType="type1" speedFactor="1.04" vaporized=""/>
    <tripinfo id="f_0_2.18" depart="148.00" departLane="np2_nt2_0" departPos="48.46" departSpeed="0.00" departDelay="0.72" arrival="320.00" arrivalLane="nt15_np10_0" arrivalPos="75.00" arrivalSpeed="8.71" duration="172.00" routeLength="902.62" waitingTime="46.00" waitingCount="5" stopTime="0.00" timeLoss="90.21" rerouteNo="0" devices="tripinfo_f_0_2.18" vType="type1" speedFactor="0.93" vaporized=""/>
    <tripinfo id="f_0_3.22" depart="180.00" departLane="np3_nt3_0" departPos="40.23" departSpeed="0.00" departDelay="0.00" arrival="321.00" arrivalLane="nt14_np11_0" arrivalPos="75.00" arrivalSpeed="9.15" duration="141.00" routeLength="910.86" waitingTime="26.00" waitingCount="4" stopTime="0.00" timeLoss="52.76" rerouteNo="0" devices="tripinfo_f_0_3.22" vType="type1" speedFactor="0.87" vaporized=""/>
    <tripinfo id="f_0_2.19" depart="156.00" departLane="np2_nt2_0" departPos="41.12" departSpeed="0.00" departDelay="0.54" arrival="327.00" arrivalLane="nt15_np10_0" arrivalPos="75.00" arrivalSpeed="9.54" duration="171.00" routeLength="909.96" waitingTime="41.00" waitingCount="4" stopTime="0.00" timeLoss="100.62" rerouteNo="0" devices="tripinfo_f_0_2.19" vType="type1" speedFactor="1.08" vaporized=""/>
    <tripinfo id="f_0_1.9" depart="123.00" departLane="np16_nt1_0" departPos="4.06" departSpeed="0.00" departDelay="0.28" arrival="329.00" arrivalLane="nt16_np8_0" arrivalPos="75.00" arrivalSpeed="17.50" duration="206.00" routeLength="1343.82" waitingTime="67.00" waitingCount="5" stopTime="0.00" timeLoss="106.06" rerouteNo="0" devices="tripinfo_f_0_1.9" vType="type1" speedFactor="0.93" vaporized=""/>
    <tripinfo id="f_0_1.10" depart="137.00" departLane="np16_nt1_0" departPos="0.72" departSpeed="0.00" departDelay="0.64" arrival="330.00" arrivalLane="nt16_np8_0" arrivalPos="75.00" arrivalSpeed="20.56" duration="193.00" routeLength="1347.16" waitingTime="42.00" waitingCount="5" stopTime="0.00" timeLoss="109.01" rerouteNo="0" devices="tripinfo_f_0_1.10" vType="type1" speedFactor="1.11" vaporized=""/>
    <tripinfo id="f_0_2.20" depart="164.00" departLane="np2_nt2_0" departPos="40.72" departSpeed="0.00" departDelay="0.36" arrival="332.00" arrivalLane="nt15_np10_0" arrivalPos="75.00" arrivalSpeed="8.16" duration="168.00" routeLength="910.36" waitingTime="34.00" waitingCount="5" stopTime="0.00" timeLoss="80.09" rerouteNo="0" devices="tripinfo_f_0_2.20" vType="type1" speedFactor="0.87" vaporized=""/>
    <tripinfo id="f_0_2.21" depart="172.00" departLane="np2_nt2_0" departPos="25.64" departSpeed="0.00" departDelay="0.18" arrival="333.00" arrivalLane="nt15_np10_0" arrivalPos="75.00" arrivalSpeed="11.05" duration="161.00" routeLength="925.44" waitingTime="40.00" waitingCount="5" stopTime="0.00" timeLoss="87.15" rerouteNo="0" devices="tripinfo_f_0_2.21" vType="type1" speedFactor="1.04" vaporized=""/>
    <tripinfo id="f_0_2.22" depart="180.00" departLane="np2_nt2_0" departPos="2.53" departSpeed="0.00" departDelay="0.00" arrival="335.00" arrivalLane="nt15_np10_0" arrivalPos="75.00" arrivalSpeed="12.02" duration="155.00" routeLength="948.55" waitingTime="29.00" waitingCount="5" stopTime="0.00" timeLoss="86.55" rerouteNo="0" devices="tripinfo_f_0_2.22" vType="type1" speedFactor="1.16" vaporized=""/>