<?xml version="1.0" encoding="UTF-8"?>

<!-- generated on 2023-08-30 18:22:06 by Eclipse SUMO libsumo Version 1.18.0
<configuration xmlns:xsi="http://www.w3.org/2001/XMLSchema-instance" xsi:noNamespaceSchemaLocation="http://sumo.dlr.de/xsd/libsumoConfiguration.xsd">

    <input>
        <net-file value="/home/stefan/RESCO/./environments/arterial4x4/arterial4x4.net.xml"/>
        <route-files value="/home/stefan/RESCO/./environments/arterial4x4/arterial4x4_26.rou.xml"/>
    </input>

    <output>
        <tripinfo-output value="/home/stefan/results/RAINBOW-tr0-arterial4x4-0-drq_norm-wait_norm/tripinfo_26.xml"/>
        <tripinfo-output.write-unfinished value="true"/>
    </output>

    <processing>
        <time-to-teleport value="-1"/>
    </processing>

    <report>
        <no-warnings value="True"/>
        <no-step-log value="True"/>
    </report>

    <random_number>
        <random value="true"/>
    </random_number>

</configuration>
-->

<tripinfos xmlns:xsi="http://www.w3.org/2001/XMLSchema-instance" xsi:noNamespaceSchemaLocation="http://sumo.dlr.de/xsd/tripinfo_file.xsd">
    <tripinfo id="f_0_3.0" depart="0.00" departLane="np3_nt3_0" departPos="23.57" departSpeed="0.00" departDelay="0.00" arrival="228.00" arrivalLane="nt14_np11_0" arrivalPos="75.00" arrivalSpeed="9.63" duration="228.00" routeLength="927.52" waitingTime="125.00" waitingCount="4" stopTime="0.00" timeLoss="149.08" rerouteNo="0" devices="tripinfo_f_0_3.0" vType="type1" speedFactor="0.99" vaporized=""/>
    <tripinfo id="f_0_3.1" depart="9.00" departLane="np3_nt3_0" departPos="23.45" departSpeed="0.00" departDelay="0.82" arrival="230.00" arrivalLane="nt14_np11_0" arrivalPos="75.00" arrivalSpeed="8.91" duration="221.00" routeLength="927.64" waitingTime="112.00" waitingCount="5" stopTime="0.00" timeLoss="142.87" rerouteNo="0" devices="tripinfo_f_0_3.1" vType="type1" speedFactor="1.00" vaporized=""/>
    <tripinfo id="f_0_0.0" depart="0.00" departLane="np13_nt13_0" departPos="43.14" departSpeed="0.00" departDelay="0.00" arrival="243.00" arrivalLane="nt4_np5_0" arrivalPos="75.00" arrivalSpeed="19.35" duration="243.00" routeLength="1304.75" waitingTime="121.00" waitingCount="5" stopTime="0.00" timeLoss="153.08" rerouteNo="0" devices="tripinfo_f_0_0.0" vType="type1" speedFactor="1.01" vaporized=""/>
    <tripinfo id="f_0_0.1" depart="14.00" departLane="np13_nt13_0" departPos="33.24" departSpeed="0.00" departDelay="0.36" arrival="283.00" arrivalLane="nt4_np5_0" arrivalPos="75.00" arrivalSpeed="17.76" duration="269.00" routeLength="1314.65" waitingTime="134.00" waitingCount="6" stopTime="0.00" timeLoss="174.80" rerouteNo="0" devices="tripinfo_f_0_0.1" vType="type1" speedFactor="0.97" vaporized=""/>
    <tripinfo id="f_0_2.0" depart="0.00" departLane="np2_nt2_0" departPos="43.71" departSpeed="0.00" departDelay="0.00" arrival="292.00" arrivalLane="nt15_np10_0" arrivalPos="75.00" arrivalSpeed="10.35" duration="292.00" routeLength="907.37" waitingTime="193.00" waitingCount="4" stopTime="0.00" timeLoss="222.53" rerouteNo="0" devices="tripinfo_f_0_2.0" vType="type1" speedFactor="1.10" vaporized=""/>
    <tripinfo id="f_0_2.1" depart="9.00" departLane="np2_nt2_0" departPos="37.24" departSpeed="0.00" departDelay="0.82" arrival="295.00" arrivalLane="nt15_np10_0" arrivalPos="75.00" arrivalSpeed="9.71" duration="286.00" routeLength="913.84" waitingTime="173.00" waitingCount="6" stopTime="0.00" timeLoss="201.70" rerouteNo="0" devices="tripinfo_f_0_2.1" vType="type1" speedFactor="0.91" vaporized=""/>
    <tripinfo id="f_0_0.2" depart="28.00" departLane="np13_nt13_0" departPos="55.14" departSpeed="0.00" departDelay="0.73" arrival="346.00" arrivalLane="nt4_np5_0" arrivalPos="75.00" arrivalSpeed="18.35" duration="318.00" routeLength="1292.75" waitingTime="185.00" waitingCount="7" stopTime="0.00" timeLoss="227.01" rerouteNo="0" devices="tripinfo_f_0_0.2" vType="type1" speedFactor="1.00" vaporized=""/>
    <tripinfo id="f_0_3.2" depart="17.00" departLane="np3_nt3_0" departPos="8.54" departSpeed="0.00" departDelay="0.64" arrival="366.00" arrivalLane="nt14_np11_0" arrivalPos="75.00" arrivalSpeed="11.52" duration="349.00" routeLength="942.55" waitingTime="250.00" waitingCount="5" stopTime="0.00" timeLoss="281.07" rerouteNo="0" devices="tripinfo_f_0_3.2" vType="type1" speedFactor="1.17" vaporized=""/>
    <tripinfo id="f_0_3.3" depart="25.00" departLane="np3_nt3_0" departPos="31.91" departSpeed="0.00" departDelay="0.45" arrival="369.00" arrivalLane="nt14_np11_0" arrivalPos="75.00" arrivalSpeed="9.76" duration="344.00" routeLength="919.18" waitingTime="235.00" waitingCount="6" stopTime="0.00" timeLoss="269.50" rerouteNo="0" devices="tripinfo_f_0_3.3" vType="type1" speedFactor="1.04" vaporized=""/>
    <tripinfo id="f_0_3.4" depart="33.00" departLane="np3_nt3_0" departPos="21.62" departSpeed="0.00" departDelay="0.27" arrival="371.00" arrivalLane="nt14_np11_0" arrivalPos="75.00" arrivalSpeed="9.38" duration="338.00" routeLength="929.47" waitingTime="214.00" waitingCount="9" stopTime="0.00" timeLoss="258.85" rerouteNo="0" devices="tripinfo_f_0_3.4" vType="type1" speedFactor="0.98" vaporized=""/>
    <tripinfo id="f_0_3.5" depart="41.00" departLane="np3_nt3_0" departPos="24.18" departSpeed="0.00" departDelay="0.09" arrival="373.00" arrivalLane="nt14_np11_0" arrivalPos="75.00" arrivalSpeed="9.84" duration="332.00" routeLength="926.91" waitingTime="200.00" waitingCount="11" stopTime="0.00" timeLoss="256.78" rerouteNo="0" devices="tripinfo_f_0_3.5" vType="type1" speedFactor="1.03" vaporized=""/>
    <tripinfo id="f_0_2.2" depart="17.00" departLane="np2_nt2_0" departPos="2.38" departSpeed="0.00" departDelay="0.64" arrival="384.00" arrivalLane="nt15_np10_0" arrivalPos="75.00" arrivalSpeed="9.23" duration="367.00" routeLength="948.70" waitingTime="241.00" waitingCount="7" stopTime="0.00" timeLoss="278.38" rerouteNo="0" devices="tripinfo_f_0_2.2" vType="type1" speedFactor="0.90" vaporized=""/>
    <tripinfo id="f_0_2.3" depart="25.00" departLane="np2_nt2_0" departPos="41.65" departSpeed="0.00" departDelay="0.45" arrival="386.00" arrivalLane="nt15_np10_0" arrivalPos="75.00" arrivalSpeed="9.40" duration="361.00" routeLength="909.43" waitingTime="233.00" waitingCount="7" stopTime="0.00" timeLoss="281.96" rerouteNo="0" devices="tripinfo_f_0_2.3" vType="type1" speedFactor="0.97" vaporized=""/>
    <tripinfo id="f_0_2.4" depart="33.00" departLane="np2_nt2_0" departPos="53.17" departSpeed="0.00" departDelay="0.27" arrival="388.00" arrivalLane="nt15_np10_0" arrivalPos="75.00" arrivalSpeed="9.54" duration="355.00" routeLength="897.91" waitingTime="232.00" waitingCount="7" stopTime="0.00" timeLoss="274.83" rerouteNo="0" devices="tripinfo_f_0_2.4" vType="type1" speedFactor="0.94" vaporized=""/>
    <tripinfo id="f_0_0.3" depart="41.00" departLane="np13_nt13_0" departPos="17.31" departSpeed="0.00" departDelay="0.09" arrival="408.00" arrivalLane="nt4_np5_0" arrivalPos="75.00" arrivalSpeed="18.66" duration="367.00" routeLength="1330.58" waitingTime="227.00" waitingCount="8" stopTime="0.00" timeLoss="278.13" rerouteNo="0" devices="tripinfo_f_0_0.3" vType="type1" speedFactor="1.04" vaporized=""/>
    <tripinfo id="f_0_0.4" depart="55.00" departLane="np13_nt13_0" departPos="33.30" departSpeed="0.00" departDelay="0.46" arrival="410.00" arrivalLane="nt4_np5_0" arrivalPos="75.00" arrivalSpeed="20.12" duration="355.00" routeLength="1314.59" waitingTime="222.00" waitingCount="8" stopTime="0.00" timeLoss="271.09" rerouteNo="0" devices="tripinfo_f_0_0.4" vType="type1" speedFactor="1.10" vaporized=""/>
    <tripinfo id="f_0_0.5" depart="69.00" departLane="np13_nt13_0" departPos="6.92" departSpeed="0.00" departDelay="0.82" arrival="413.00" arrivalLane="nt4_np5_0" arrivalPos="75.00" arrivalSpeed="17.25" duration="344.00" routeLength="1340.97" waitingTime="198.00" waitingCount="9" stopTime="0.00" timeLoss="244.33" rerouteNo="0" devices="tripinfo_f_0_0.5" vType="type1" speedFactor="0.94" vaporized=""/>
    <tripinfo id="f_0_1.0" depart="0.00" departLane="np16_nt1_0" departPos="64.67" departSpeed="0.00" departDelay="0.00" arrival="414.00" arrivalLane="nt16_np8_0" arrivalPos="75.00" arrivalSpeed="21.06" duration="414.00" routeLength="1283.21" waitingTime="269.00" waitingCount="9" stopTime="0.00" timeLoss="334.48" rerouteNo="0" devices="tripinfo_f_0_1.0" vType="type1" speedFactor="1.14" vaporized=""/>
    <tripinfo id="f_0_1.1" depart="14.00" departLane="np16_nt1_0" departPos="44.94" departSpeed="0.00" departDelay="0.36" arrival="415.00" arrivalLane="nt16_np8_0" arrivalPos="75.00" arrivalSpeed="20.75" duration="401.00" routeLength="1302.94" waitingTime="252.00" waitingCount="10" stopTime="0.00" timeLoss="318.78" rerouteNo="0" devices="tripinfo_f_0_1.1" vType="type1" speedFactor="1.10" vaporized=""/>
    <tripinfo id="f_0_3.6" depart="50.00" departLane="np3_nt3_0" departPos="13.34" departSpeed="0.00" departDelay="0.91" arrival="426.00" arrivalLane="nt14_np11_0" arrivalPos="75.00" arrivalSpeed="11.63" duration="376.00" routeLength="937.75" waitingTime="240.00" waitingCount="12" stopTime="0.00" timeLoss="304.76" rerouteNo="0" devices="tripinfo_f_0_3.6" vType="type1" speedFactor="1.10" vaporized=""/>
    <tripinfo id="f_0_3.7" depart="58.00" departLane="np3_nt3_0" departPos="0.00" departSpeed="0.00" departDelay="0.73" arrival="428.00" arrivalLane="nt14_np11_0" arrivalPos="75.00" arrivalSpeed="11.31" duration="370.00" routeLength="951.09" waitingTime="214.00" waitingCount="10" stopTime="0.00" timeLoss="297.82" rerouteNo="0" devices="tripinfo_f_0_3.7" vType="type1" speedFactor="1.11" vaporized=""/>
    <tripinfo id="f_0_0.6" depart="82.00" departLane="np13_nt13_0" departPos="23.77" departSpeed="0.00" departDelay="0.18" arrival="443.00" arrivalLane="nt4_np5_0" arrivalPos="75.00" arrivalSpeed="19.28" duration="361.00" routeLength="1324.12" waitingTime="225.00" waitingCount="8" stopTime="0.00" timeLoss="272.10" rerouteNo="0" devices="tripinfo_f_0_0.6" vType="type1" speedFactor="1.03" vaporized=""/>
    <tripinfo id="f_0_1.2" depart="28.00" departLane="np16_nt1_0" departPos="9.73" departSpeed="0.00" departDelay="0.73" arrival="448.00" arrivalLane="nt16_np8_0" arrivalPos="75.00" arrivalSpeed="20.34" duration="420.00" routeLength="1338.15" waitingTime="257.00" waitingCount="11" stopTime="0.00" timeLoss="330.92" rerouteNo="0" devices="tripinfo_f_0_1.2" vType="type1" speedFactor="1.04" vaporized=""/>
    <tripinfo id="f_0_2.5" depart="41.00" departLane="np2_nt2_0" departPos="47.97" departSpeed="0.00" departDelay="0.09" arrival="457.00" arrivalLane="nt15_np10_0" arrivalPos="75.00" arrivalSpeed="10.87" duration="416.00" routeLength="903.11" waitingTime="271.00" waitingCount="11" stopTime="0.00" timeLoss="341.98" rerouteNo="0" devices="tripinfo_f_0_2.5" vType="type1" speedFactor="1.02" vaporized=""/>
    <tripinfo id="f_0_0.7" depart="96.00" departLane="np13_nt13_0" departPos="35.58" departSpeed="0.00" departDelay="0.55" arrival="463.00" arrivalLane="nt4_np5_0" arrivalPos="75.00" arrivalSpeed="14.16" duration="367.00" routeLength="1312.31" waitingTime="215.00" waitingCount="8" stopTime="0.00" timeLoss="255.98" rerouteNo="0" devices="tripinfo_f_0_0.7" vType="type1" speedFactor="0.82" vaporized=""/>
    <tripinfo id="f_0_2.6" depart="50.00" departLane="np2_nt2_0" departPos="7.67" departSpeed="0.00" departDelay="0.91" arrival="504.00" arrivalLane="nt15_np10_0" arrivalPos="75.00" arrivalSpeed="7.29" duration="454.00" routeLength="943.41" waitingTime="280.00" waitingCount="12" stopTime="0.00" timeLoss="356.49" rerouteNo="0" devices="tripinfo_f_0_2.6" vType="type1" speedFactor="0.82" vaporized=""/>
    <tripinfo id="f_0_2.7" depart="58.00" departLane="np2_nt2_0" departPos="34.64" departSpeed="0.00" departDelay="0.73" arrival="506.00" arrivalLane="nt15_np10_0" arrivalPos="75.00" arrivalSpeed="11.74" duration="448.00" routeLength="916.44" waitingTime="275.00" waitingCount="14" stopTime="0.00" timeLoss="375.86" rerouteNo="0" devices="tripinfo_f_0_2.7" vType="type1" speedFactor="1.07" vaporized=""/>
    <tripinfo id="f_0_3.8" depart="66.00" departLane="np3_nt3_0" departPos="0.00" departSpeed="0.00" departDelay="0.54" arrival="507.00" arrivalLane="nt14_np11_0" arrivalPos="75.00" arrivalSpeed="9.54" duration="441.00" routeLength="951.09" waitingTime="294.00" waitingCount="11" stopTime="0.00" timeLoss="364.04" rerouteNo="0" devices="tripinfo_f_0_3.8" vType="type1" speedFactor="1.04" vaporized=""/>
    <tripinfo id="f_0_1.3" depart="41.00" departLane="np16_nt1_0" departPos="48.89" departSpeed="0.00" departDelay="0.09" arrival="508.00" arrivalLane="nt16_np8_0" arrivalPos="75.00" arrivalSpeed="20.65" duration="467.00" routeLength="1298.99" waitingTime="300.00" waitingCount="13" stopTime="0.00" timeLoss="385.30" rerouteNo="0" devices="tripinfo_f_0_1.3" vType="type1" speedFactor="1.11" vaporized=""/>
    <tripinfo id="f_0_3.9" depart="74.00" departLane="np3_nt3_0" departPos="0.66" departSpeed="0.00" departDelay="0.36" arrival="518.00" arrivalLane="nt14_np11_0" arrivalPos="75.00" arrivalSpeed="8.70" duration="444.00" routeLength="950.43" waitingTime="297.00" waitingCount="11" stopTime="0.00" timeLoss="356.10" rerouteNo="0" devices="tripinfo_f_0_3.9" vType="type1" speedFactor="0.91" vaporized=""/>
    <tripinfo id="f_0_2.8" depart="66.00" departLane="np2_nt2_0" departPos="51.52" departSpeed="0.00" departDelay="0.54" arrival="529.00" arrivalLane="nt15_np10_0" arrivalPos="75.00" arrivalSpeed="8.40" duration="463.00" routeLength="899.56" waitingTime="280.00" waitingCount="14" stopTime="0.00" timeLoss="378.31" rerouteNo="0" devices="tripinfo_f_0_2.8" vType="type1" speedFactor="0.90" vaporized=""/>
    <tripinfo id="f_0_3.10" depart="89.00" departLane="np3_nt3_0" departPos="0.00" departSpeed="0.00" departDelay="7.18" arrival="538.00" arrivalLane="nt14_np11_0" arrivalPos="75.00" arrivalSpeed="9.19" duration="449.00" routeLength="951.09" waitingTime="310.00" waitingCount="10" stopTime="0.00" timeLoss="362.44" rerouteNo="0" devices="tripinfo_f_0_3.10" vType="type1" speedFactor="0.92" vaporized=""/>
    <tripinfo id="f_0_0.8" depart="110.00" departLane="np13_nt13_0" departPos="44.66" departSpeed="0.00" departDelay="0.91" arrival="552.00" arrivalLane="nt4_np5_0" arrivalPos="75.00" arrivalSpeed="18.09" duration="442.00" routeLength="1303.23" waitingTime="291.00" waitingCount="9" stopTime="0.00" timeLoss="349.45" rerouteNo="0" devices="tripinfo_f_0_0.8" vType="type1" speedFactor="0.99" vaporized=""/>
    <tripinfo id="f_0_0.9" depart="123.00" departLane="np13_nt13_0" departPos="21.24" departSpeed="0.00" departDelay="0.28" arrival="563.00" arrivalLane="nt4_np5_0" arrivalPos="75.00" arrivalSpeed="18.75" duration="440.00" routeLength="1326.65" waitingTime="289.00" waitingCount="10" stopTime="0.00" timeLoss="352.56" rerouteNo="0" devices="tripinfo_f_0_0.9" vType="type1" speedFactor="1.05" vaporized=""/>
    <tripinfo id="f_0_2.9" depart="74.00" departLane="np2_nt2_0" departPos="14.52" departSpeed="0.00" departDelay="0.36" arrival="581.00" arrivalLane="nt15_np10_0" arrivalPos="75.00" arrivalSpeed="10.32" duration="507.00" routeLength="936.56" waitingTime="323.00" waitingCount="17" stopTime="0.00" timeLoss="436.02" rerouteNo="0" devices="tripinfo_f_0_2.9" vType="type1" speedFactor="1.10" vaporized=""/>
    <tripinfo id="f_0_3.11" depart="157.00" departLane="np3_nt3_0" departPos="0.00" departSpeed="0.00" departDelay="67.00" arrival="583.00" arrivalLane="nt14_np11_0" arrivalPos="75.00" arrivalSpeed="9.03" duration="426.00" routeLength="951.09" waitingTime="286.00" waitingCount="10" stopTime="0.00" timeLoss="341.95" rerouteNo="0" devices="tripinfo_f_0_3.11" vType="type1" speedFactor="0.96" vaporized=""/>
    <tripinfo id="f_0_2.10" depart="82.00" departLane="np2_nt2_0" departPos="10.83" departSpeed="0.00" departDelay="0.18" arrival="584.00" arrivalLane="nt15_np10_0" arrivalPos="75.00" arrivalSpeed="9.78" duration="502.00" routeLength="940.25" waitingTime="307.00" waitingCount="16" stopTime="0.00" timeLoss="424.59" rerouteNo="0" devices="tripinfo_f_0_2.10" vType="type1" speedFactor="1.02" vaporized=""/>
    <tripinfo id="f_0_3.12" depart="160.00" departLane="np3_nt3_0" departPos="0.00" departSpeed="0.00" departDelay="61.82" arrival="585.00" arrivalLane="nt14_np11_0" arrivalPos="75.00" arrivalSpeed="7.81" duration="425.00" routeLength="951.09" waitingTime="280.00" waitingCount="10" stopTime="0.00" timeLoss="338.90" rerouteNo="0" devices="tripinfo_f_0_3.12" vType="type1" speedFactor="0.93" vaporized=""/>
    <tripinfo id="f_0_2.11" depart="90.00" departLane="np2_nt2_0" departPos="42.95" departSpeed="0.00" departDelay="0.00" arrival="597.00" arrivalLane="nt15_np10_0" arrivalPos="75.00" arrivalSpeed="9.65" duration="507.00" routeLength="908.13" waitingTime="307.00" waitingCount="18" stopTime="0.00" timeLoss="434.70" rerouteNo="0" devices="tripinfo_f_0_2.11" vType="type1" speedFactor="1.05" vaporized=""/>
    <tripinfo id="f_0_0.10" depart="137.00" departLane="np13_nt13_0" departPos="13.59" departSpeed="0.00" departDelay="0.64" arrival="617.00" arrivalLane="nt4_np5_0" arrivalPos="75.00" arrivalSpeed="16.95" duration="480.00" routeLength="1334.30" waitingTime="327.00" waitingCount="9" stopTime="0.00" timeLoss="375.25" rerouteNo="0" devices="tripinfo_f_0_0.10" vType="type1" speedFactor="0.89" vaporized=""/>
    <tripinfo id="f_0_0.11" depart="150.00" departLane="np13_nt13_0" departPos="58.40" departSpeed="0.00" departDelay="0.00" arrival="618.00" arrivalLane="nt4_np5_0" arrivalPos="75.00" arrivalSpeed="20.14" duration="468.00" routeLength="1289.49" waitingTime="311.00" waitingCount="11" stopTime="0.00" timeLoss="387.84" rerouteNo="0" devices="tripinfo_f_0_0.11" vType="type1" speedFactor="1.12" vaporized=""/>
    <tripinfo id="f_0_1.4" depart="55.00" departLane="np16_nt1_0" departPos="5.51" departSpeed="0.00" departDelay="0.46" arrival="633.00" arrivalLane="nt16_np8_0" arrivalPos="75.00" arrivalSpeed="18.57" duration="578.00" routeLength="1342.37" waitingTime="350.00" waitingCount="20" stopTime="0.00" timeLoss="486.86" rerouteNo="0" devices="tripinfo_f_0_1.4" vType="type1" speedFactor="1.02" vaporized=""/>
    <tripinfo id="f_0_3.13" depart="172.00" departLane="np3_nt3_0" departPos="0.00" departSpeed="0.00" departDelay="65.63" arrival="641.00" arrivalLane="nt14_np11_0" arrivalPos="75.00" arrivalSpeed="10.13" duration="469.00" routeLength="951.09" waitingTime="339.00" waitingCount="10" stopTime="0.00" timeLoss="394.07" rerouteNo="0" devices="tripinfo_f_0_3.13" vType="type1" speedFactor="1.06" vaporized=""/>
    <tripinfo id="f_0_1.5" depart="69.00" departLane="np16_nt1_0" departPos="51.42" departSpeed="0.00" departDelay="0.82" arrival="650.00" arrivalLane="nt16_np8_0" arrivalPos="75.00" arrivalSpeed="16.64" duration="581.00" routeLength="1296.46" waitingTime="348.00" waitingCount="17" stopTime="0.00" timeLoss="474.91" rerouteNo="0" devices="tripinfo_f_0_1.5" vType="type1" speedFactor="0.86" vaporized=""/>
    <tripinfo id="f_0_3.14" depart="175.00" departLane="np3_nt3_0" departPos="0.00" departSpeed="0.00" departDelay="60.45" arrival="653.00" arrivalLane="nt14_np11_0" arrivalPos="75.00" arrivalSpeed="8.11" duration="478.00" routeLength="951.09" waitingTime="321.00" waitingCount="11" stopTime="0.00" timeLoss="391.68" rerouteNo="0" devices="tripinfo_f_0_3.14" vType="type1" speedFactor="0.92" vaporized=""/>
    <tripinfo id="f_0_3.15" depart="178.00" departLane="np3_nt3_0" departPos="0.00" departSpeed="0.00" departDelay="55.27" arrival="674.00" arrivalLane="nt14_np11_0" arrivalPos="75.00" arrivalSpeed="8.83" duration="496.00" routeLength="951.09" waitingTime="331.00" waitingCount="11" stopTime="0.00" timeLoss="402.39" rerouteNo="0" devices="tripinfo_f_0_3.15" vType="type1" speedFactor="0.85" vaporized=""/>
    <tripinfo id="f_0_0.12" depart="164.00" departLane="np13_nt13_0" departPos="13.69" departSpeed="0.00" departDelay="0.37" arrival="688.00" arrivalLane="nt4_np5_0" arrivalPos="75.00" arrivalSpeed="15.96" duration="524.00" routeLength="1334.20" waitingTime="346.00" waitingCount="14" stopTime="0.00" timeLoss="416.55" rerouteNo="0" devices="tripinfo_f_0_0.12" vType="type1" speedFactor="0.86" vaporized=""/>
    <tripinfo id="f_0_3.16" depart="181.00" departLane="np3_nt3_0" departPos="0.00" departSpeed="0.00" departDelay="50.09" arrival="702.00" arrivalLane="nt14_np11_0" arrivalPos="75.00" arrivalSpeed="11.22" duration="521.00" routeLength="951.09" waitingTime="362.00" waitingCount="14" stopTime="0.00" timeLoss="447.07" rerouteNo="0" devices="tripinfo_f_0_3.16" vType="type1" speedFactor="1.08" vaporized=""/>
    <tripinfo id="f_0_2.12" depart="99.00" departLane="np2_nt2_0" departPos="63.88" departSpeed="0.00" departDelay="0.82" arrival="716.00" arrivalLane="nt15_np10_0" arrivalPos="75.00" arrivalSpeed="11.39" duration="617.00" routeLength="887.20" waitingTime="410.00" waitingCount="19" stopTime="0.00" timeLoss="548.56" rerouteNo="0" devices="tripinfo_f_0_2.12" vType="type1" speedFactor="1.08" vaporized=""/>
    <tripinfo id="f_0_1.6" depart="82.00" departLane="np16_nt1_0" departPos="31.81" departSpeed="0.00" departDelay="0.18" arrival="753.00" arrivalLane="nt16_np8_0" arrivalPos="75.00" arrivalSpeed="18.40" duration="671.00" routeLength="1316.07" waitingTime="427.00" waitingCount="20" stopTime="0.00" timeLoss="576.80" rerouteNo="0" devices="tripinfo_f_0_1.6" vType="type1" speedFactor="0.97" vaporized=""/>
    <tripinfo id="f_0_1.7" depart="96.00" departLane="np16_nt1_0" departPos="30.53" departSpeed="0.00" departDelay="0.55" arrival="755.00" arrivalLane="nt16_np8_0" arrivalPos="75.00" arrivalSpeed="19.16" duration="659.00" routeLength="1317.35" waitingTime="407.00" waitingCount="17" stopTime="0.00" timeLoss="570.95" rerouteNo="0" devices="tripinfo_f_0_1.7" vType="type1" speedFactor="1.04" vaporized=""/>
    <tripinfo id="f_0_3.17" depart="223.00" departLane="np3_nt3_0" departPos="0.00" departSpeed="0.00" departDelay="83.91" arrival="766.00" arrivalLane="nt14_np11_0" arrivalPos="75.00" arrivalSpeed="6.22" duration="543.00" routeLength="951.09" waitingTime="365.00" waitingCount="16" stopTime="0.00" timeLoss="440.74" rerouteNo="0" devices="tripinfo_f_0_3.17" vType="type1" speedFactor="0.78" vaporized=""/>
    <tripinfo id="f_0_3.18" depart="268.00" departLane="np3_nt3_0" departPos="0.00" departSpeed="0.00" departDelay="120.72" arrival="774.00" arrivalLane="nt14_np11_0" arrivalPos="75.00" arrivalSpeed="9.21" duration="506.00" routeLength="951.09" waitingTime="320.00" waitingCount="17" stopTime="0.00" timeLoss="411.33" rerouteNo="0" devices="tripinfo_f_0_3.18" vType="type1" speedFactor="0.85" vaporized=""/>
    <tripinfo id="f_0_0.13" depart="178.00" departLane="np13_nt13_0" departPos="46.15" departSpeed="0.00" departDelay="0.73" arrival="782.00" arrivalLane="nt4_np5_0" arrivalPos="75.00" arrivalSpeed="20.38" duration="604.00" routeLength="1301.74" waitingTime="436.00" waitingCount="14" stopTime="0.00" timeLoss="514.41" rerouteNo="0" devices="tripinfo_f_0_0.13" vType="type1" speedFactor="1.02" vaporized=""/>
    <tripinfo id="f_0_2.13" depart="107.00" departLane="np2_nt2_0" departPos="23.61" departSpeed="0.00" departDelay="0.63" arrival="792.00" arrivalLane="nt15_np10_0" arrivalPos="75.00" arrivalSpeed="10.22" duration="685.00" routeLength="927.47" waitingTime="476.00" waitingCount="16" stopTime="0.00" timeLoss="607.68" rerouteNo="0" devices="tripinfo_f_0_2.13" vType="type1" speedFactor="1.01" vaporized=""/>
    <tripinfo id="f_0_2.14" depart="115.00" departLane="np2_nt2_0" departPos="22.57" departSpeed="0.00" departDelay="0.45" arrival="794.00" arrivalLane="nt15_np10_0" arrivalPos="75.00" arrivalSpeed="11.12" duration="679.00" routeLength="928.51" waitingTime="463.00" waitingCount="17" stopTime="0.00" timeLoss="604.79" rerouteNo="0" devices="tripinfo_f_0_2.14" vType="type1" speedFactor="1.05" vaporized=""/>
    <tripinfo id="f_0_2.15" depart="123.00" departLane="np2_nt2_0" departPos="20.74" departSpeed="0.00" departDelay="0.27" arrival="802.00" arrivalLane="nt15_np10_0" arrivalPos="75.00" arrivalSpeed="10.89" duration="679.00" routeLength="930.34" waitingTime="479.00" waitingCount="19" stopTime="0.00" timeLoss="601.38" rerouteNo="0" devices="tripinfo_f_0_2.15" vType="type1" speedFactor="1.01" vaporized=""/>
    <tripinfo id="f_0_2.16" depart="131.00" departLane="np2_nt2_0" departPos="9.62" departSpeed="0.00" departDelay="0.09" arrival="807.00" arrivalLane="nt15_np10_0" arrivalPos="75.00" arrivalSpeed="10.30" duration="676.00" routeLength="941.46" waitingTime="445.00" waitingCount="21" stopTime="0.00" timeLoss="603.23" rerouteNo="0" devices="tripinfo_f_0_2.16" vType="type1" speedFactor="1.09" vaporized=""/>
    <tripinfo id="f_0_0.14" depart="191.00" departLane="np13_nt13_0" departPos="29.97" departSpeed="0.00" departDelay="0.10" arrival="842.00" arrivalLane="nt4_np5_0" arrivalPos="75.00" arrivalSpeed="17.24" duration="651.00" routeLength="1317.92" waitingTime="466.00" waitingCount="15" stopTime="0.00" timeLoss="547.40" rerouteNo="0" devices="tripinfo_f_0_0.14" vType="type1" speedFactor="0.88" vaporized=""/>
    <tripinfo id="f_0_0.15" depart="205.00" departLane="np13_nt13_0" departPos="17.28" departSpeed="0.00" departDelay="0.46" arrival="847.00" arrivalLane="nt4_np5_0" arrivalPos="75.00" arrivalSpeed="14.00" duration="642.00" routeLength="1330.61" waitingTime="428.00" waitingCount="15" stopTime="0.00" timeLoss="524.97" rerouteNo="0" devices="tripinfo_f_0_0.15" vType="type1" speedFactor="0.79" vaporized=""/>
    <tripinfo id="f_0_1.8" depart="110.00" departLane="np16_nt1_0" departPos="45.42" departSpeed="0.00" departDelay="0.91" arrival="849.00" arrivalLane="nt16_np8_0" arrivalPos="75.00" arrivalSpeed="16.39" duration="739.00" routeLength="1302.46" waitingTime="492.00" waitingCount="20" stopTime="0.00" timeLoss="633.96" rerouteNo="0" devices="tripinfo_f_0_1.8" vType="type1" speedFactor="0.87" vaporized=""/>
    <tripinfo id="f_0_3.19" depart="336.00" departLane="np3_nt3_0" departPos="0.00" departSpeed="0.00" departDelay="180.54" arrival="857.00" arrivalLane="nt14_np11_0" arrivalPos="75.00" arrivalSpeed="10.69" duration="521.00" routeLength="951.09" waitingTime="340.00" waitingCount="15" stopTime="0.00" timeLoss="447.11" rerouteNo="0" devices="tripinfo_f_0_3.19" vType="type1" speedFactor="1.09" vaporized=""/>
    <tripinfo id="f_0_3.20" depart="340.00" departLane="np3_nt3_0" departPos="0.38" departSpeed="0.00" departDelay="176.36" arrival="858.00" arrivalLane="nt14_np11_0" arrivalPos="75.00" arrivalSpeed="10.00" duration="518.00" routeLength="950.71" waitingTime="332.00" waitingCount="16" stopTime="0.00" timeLoss="444.29" rerouteNo="0" devices="tripinfo_f_0_3.20" vType="type1" speedFactor="1.09" vaporized=""/>
    <tripinfo id="f_0_1.15" depart="205.00" departLane="np16_nt1_0" departPos="14.91" departSpeed="0.00" departDelay="0.46" arrival="858.00" arrivalLane="nt16_np8_0" arrivalPos="75.00" arrivalSpeed="19.53" duration="653.00" routeLength="1332.97" waitingTime="432.00" waitingCount="18" stopTime="0.00" timeLoss="565.60" rerouteNo="0" devices="tripinfo_f_0_1.15" vType="type1" speedFactor="1.06" vaporized=""/>
    <tripinfo id="f_0_3.21" depart="373.00" departLane="np3_nt3_0" departPos="0.00" departSpeed="0.00" departDelay="201.18" arrival="870.00" arrivalLane="nt14_np11_0" arrivalPos="75.00" arrivalSpeed="7.07" duration="497.00" routeLength="951.09" waitingTime="292.00" waitingCount="17" stopTime="0.00" timeLoss="395.73" rerouteNo="0" devices="tripinfo_f_0_3.21" vType="type1" speedFactor="0.79" vaporized=""/>
    <tripinfo id="f_0_3.22" depart="402.00" departLane="np3_nt3_0" departPos="0.00" departSpeed="0.00" departDelay="222.00" arrival="872.00" arrivalLane="nt14_np11_0" arrivalPos="75.00" arrivalSpeed="9.61" duration="470.00" routeLength="951.09" waitingTime="257.00" waitingCount="16" stopTime="0.00" timeLoss="393.61" rerouteNo="0" devices="tripinfo_f_0_3.22" vType="type1" speedFactor="1.05" vaporized=""/>
    <tripinfo id="f_0_3.23" depart="417.00" departLane="np3_nt3_0" departPos="0.00" departSpeed="0.00" departDelay="228.81" arrival="874.00" arrivalLane="nt14_np11_0" arrivalPos="75.00" arrivalSpeed="8.88" duration="457.00" routeLength="951.09" waitingTime="241.00" waitingCount="13" stopTime="0.00" timeLoss="369.07" rerouteNo="0" devices="tripinfo_f_0_3.23" vType="type1" speedFactor="0.91" vaporized=""/>
    <tripinfo id="f_0_3.24" depart="422.00" departLane="np3_nt3_0" departPos="1.30" departSpeed="0.00" departDelay="225.63" arrival="876.00" arrivalLane="nt14_np11_0" arrivalPos="75.00" arrivalSpeed="10.11" duration="454.00" routeLength="949.79" waitingTime="244.00" waitingCount="14" stopTime="0.00" timeLoss="374.14" rerouteNo="0" devices="tripinfo_f_0_3.24" vType="type1" speedFactor="1.01" vaporized=""/>
    <tripinfo id="f_0_3.25" depart="428.00" departLane="np3_nt3_0" departPos="0.00" departSpeed="0.00" departDelay="223.45" arrival="882.00" arrivalLane="nt14_np11_0" arrivalPos="75.00" arrivalSpeed="8.64" duration="454.00" routeLength="951.09" waitingTime="257.00" waitingCount="12" stopTime="0.00" timeLoss="374.08" rerouteNo="0" devices="tripinfo_f_0_3.25" vType="type1" speedFactor="1.00" vaporized=""/>
    <tripinfo id="f_0_3.26" depart="437.00" departLane="np3_nt3_0" departPos="0.81" departSpeed="0.00" departDelay="224.27" arrival="885.00" arrivalLane="nt14_np11_0" arrivalPos="75.00" arrivalSpeed="9.25" duration="448.00" routeLength="950.28" waitingTime="257.00" waitingCount="12" stopTime="0.00" timeLoss="368.83" rerouteNo="0" devices="tripinfo_f_0_3.26" vType="type1" speedFactor="1.01" vaporized=""/>
    <tripinfo id="f_0_0.16" depart="219.00" departLane="np13_nt13_0" departPos="6.73" departSpeed="0.00" departDelay="0.82" arrival="889.00" arrivalLane="nt4_np5_0" arrivalPos="75.00" arrivalSpeed="20.90" duration="670.00" routeLength="1341.16" waitingTime="460.00" waitingCount="17" stopTime="0.00" timeLoss="587.75" rerouteNo="0" devices="tripinfo_f_0_0.16" vType="type1" speedFactor="1.13" vaporized=""/>