<?xml version="1.0" encoding="UTF-8"?>

<!-- generated on 2023-08-30 19:33:04 by Eclipse SUMO libsumo Version 1.18.0
<configuration xmlns:xsi="http://www.w3.org/2001/XMLSchema-instance" xsi:noNamespaceSchemaLocation="http://sumo.dlr.de/xsd/libsumoConfiguration.xsd">

    <input>
        <net-file value="/home/stefan/RESCO/./environments/arterial4x4/arterial4x4.net.xml"/>
        <route-files value="/home/stefan/RESCO/./environments/arterial4x4/arterial4x4_85.rou.xml"/>
    </input>

    <output>
        <tripinfo-output value="/home/stefan/results/RAINBOW-tr0-arterial4x4-0-drq_norm-wait_norm/tripinfo_85.xml"/>
        <tripinfo-output.write-unfinished value="true"/>
    </output>

    <processing>
        <time-to-teleport value="-1"/>
    </processing>

    <report>
        <no-warnings value="True"/>
        <no-step-log value="True"/>
    </report>

    <random_number>
        <random value="true"/>
    </random_number>

</configuration>
-->

<tripinfos xmlns:xsi="http://www.w3.org/2001/XMLSchema-instance" xsi:noNamespaceSchemaLocation="http://sumo.dlr.de/xsd/tripinfo_file.xsd">
    <tripinfo id="f_0_0.0" depart="0.00" departLane="np13_nt13_0" departPos="51.16" departSpeed="0.00" departDelay="0.00" arrival="-1.00" arrivalLane="" arrivalPos="-1.00" arrivalSpeed="-1.00" duration="3600.00" routeLength="234.46" waitingTime="3561.00" waitingCount="2" stopTime="0.00" timeLoss="3588.83" rerouteNo="0" devices="tripinfo_f_0_0.0" vType="type1" speedFactor="1.15" vaporized="end"/>
    <tripinfo id="f_0_1.0" depart="0.00" departLane="np16_nt1_0" departPos="38.91" departSpeed="0.00" departDelay="0.00" arrival="-1.00" arrivalLane="" arrivalPos="-1.00" arrivalSpeed="-1.00" duration="3600.00" routeLength="658.92" waitingTime="3501.00" waitingCount="4" stopTime="0.00" timeLoss="3555.38" rerouteNo="0" devices="tripinfo_f_0_1.0" vType="type1" speedFactor="0.98" vaporized="end"/>
    <tripinfo id="f_0_2.0" depart="0.00" departLane="np2_nt2_0" departPos="22.39" departSpeed="0.00" departDelay="0.00" arrival="-1.00" arrivalLane="" arrivalPos="-1.00" arrivalSpeed="-1.00" duration="3600.00" routeLength="631.89" waitingTime="3534.00" waitingCount="4" stopTime="0.00" timeLoss="3553.69" rerouteNo="0" devices="tripinfo_f_0_2.0" vType="type1" speedFactor="1.11" vaporized="end"/>
    <tripinfo id="f_0_3.0" depart="0.00" departLane="np3_nt3_0" departPos="60.35" departSpeed="0.00" departDelay="0.00" arrival="-1.00" arrivalLane="" arrivalPos="-1.00" arrivalSpeed="-1.00" duration="3600.00" routeLength="3.24" waitingTime="3596.00" waitingCount="1" stopTime="0.00" timeLoss="3598.69" rerouteNo="0" devices="tripinfo_f_0_3.0" vType="type1" speedFactor="0.94" vaporized="end"/>
    <tripinfo id="f_0_2.1" depart="9.00" departLane="np2_nt2_0" departPos="56.12" departSpeed="0.00" departDelay="0.82" arrival="-1.00" arrivalLane="" arrivalPos="-1.00" arrivalSpeed="-1.00" duration="3591.00" routeLength="590.66" waitingTime="3512.00" waitingCount="4" stopTime="0.00" timeLoss="3538.22" rerouteNo="0" devices="tripinfo_f_0_2.1" vType="type1" speedFactor="0.91" vaporized="end"/>
    <tripinfo id="f_0_3.1" depart="9.00" departLane="np3_nt3_0" departPos="35.66" departSpeed="0.00" departDelay="0.82" arrival="-1.00" arrivalLane="" arrivalPos="-1.00" arrivalSpeed="-1.00" duration="3591.00" routeLength="20.44" waitingTime="3584.00" waitingCount="1" stopTime="0.00" timeLoss="3588.17" rerouteNo="0" devices="tripinfo_f_0_3.1" vType="type1" speedFactor="1.02" vaporized="end"/>
    <tripinfo id="f_0_0.1" depart="14.00" departLane="np13_nt13_0" departPos="18.81" departSpeed="0.00" departDelay="0.36" arrival="-1.00" arrivalLane="" arrivalPos="-1.00" arrivalSpeed="-1.00" duration="3586.00" routeLength="247.99" waitingTime="3563.00" waitingCount="2" stopTime="0.00" timeLoss="3573.50" rerouteNo="0" devices="tripinfo_f_0_0.1" vType="type1" speedFactor="1.08" vaporized="end"/>
    <tripinfo id="f_0_1.1" depart="14.00" departLane="np16_nt1_0" departPos="12.69" departSpeed="0.00" departDelay="0.36" arrival="-1.00" arrivalLane="" arrivalPos="-1.00" arrivalSpeed="-1.00" duration="3586.00" routeLength="677.63" waitingTime="3485.00" waitingCount="4" stopTime="0.00" timeLoss="3548.06" rerouteNo="0" devices="tripinfo_f_0_1.1" vType="type1" speedFactor="1.18" vaporized="end"/>
    <tripinfo id="f_0_2.2" depart="17.00" departLane="np2_nt2_0" departPos="6.16" departSpeed="0.00" departDelay="0.64" arrival="-1.00" arrivalLane="" arrivalPos="-1.00" arrivalSpeed="-1.00" duration="3583.00" routeLength="633.11" waitingTime="3499.00" waitingCount="4" stopTime="0.00" timeLoss="3524.52" rerouteNo="0" devices="tripinfo_f_0_2.2" vType="type1" speedFactor="0.88" vaporized="end"/>
    <tripinfo id="f_0_3.2" depart="17.00" departLane="np3_nt3_0" departPos="31.01" departSpeed="0.00" departDelay="0.64" arrival="-1.00" arrivalLane="" arrivalPos="-1.00" arrivalSpeed="-1.00" duration="3583.00" routeLength="17.58" waitingTime="3577.00" waitingCount="1" stopTime="0.00" timeLoss="3580.13" rerouteNo="0" devices="tripinfo_f_0_3.2" vType="type1" speedFactor="0.86" vaporized="end"/>
    <tripinfo id="f_0_2.3" depart="25.00" departLane="np2_nt2_0" departPos="13.05" departSpeed="0.00" departDelay="0.45" arrival="-1.00" arrivalLane="" arrivalPos="-1.00" arrivalSpeed="-1.00" duration="3575.00" routeLength="618.73" waitingTime="3495.00" waitingCount="4" stopTime="0.00" timeLoss="3524.92" rerouteNo="0" devices="tripinfo_f_0_2.3" vType="type1" speedFactor="1.00" vaporized="end"/>
    <tripinfo id="f_0_3.3" depart="25.00" departLane="np3_nt3_0" departPos="5.02" departSpeed="0.00" departDelay="0.45" arrival="-1.00" arrivalLane="" arrivalPos="-1.00" arrivalSpeed="-1.00" duration="3575.00" routeLength="36.08" waitingTime="3567.00" waitingCount="1" stopTime="0.00" timeLoss="3570.67" rerouteNo="0" devices="tripinfo_f_0_3.3" vType="type1" speedFactor="0.99" vaporized="end"/>
    <tripinfo id="f_0_0.2" depart="28.00" departLane="np13_nt13_0" departPos="42.66" departSpeed="0.00" departDelay="0.73" arrival="-1.00" arrivalLane="" arrivalPos="-1.00" arrivalSpeed="-1.00" duration="3572.00" routeLength="216.63" waitingTime="3552.00" waitingCount="2" stopTime="0.00" timeLoss="3561.38" rerouteNo="0" devices="tripinfo_f_0_0.2" vType="type1" speedFactor="1.13" vaporized="end"/>
    <tripinfo id="f_0_1.2" depart="28.00" departLane="np16_nt1_0" departPos="3.98" departSpeed="0.00" departDelay="0.73" arrival="-1.00" arrivalLane="" arrivalPos="-1.00" arrivalSpeed="-1.00" duration="3572.00" routeLength="658.87" waitingTime="3483.00" waitingCount="4" stopTime="0.00" timeLoss="3518.13" rerouteNo="0" devices="tripinfo_f_0_1.2" vType="type1" speedFactor="0.78" vaporized="end"/>
    <tripinfo id="f_0_2.4" depart="33.00" departLane="np2_nt2_0" departPos="52.31" departSpeed="0.00" departDelay="0.27" arrival="-1.00" arrivalLane="" arrivalPos="-1.00" arrivalSpeed="-1.00" duration="3567.00" routeLength="571.96" waitingTime="3484.00" waitingCount="4" stopTime="0.00" timeLoss="3511.49" rerouteNo="0" devices="tripinfo_f_0_2.4" vType="type1" speedFactor="0.83" vaporized="end"/>
    <tripinfo id="f_0_3.4" depart="33.00" departLane="np3_nt3_0" departPos="16.85" departSpeed="0.00" departDelay="0.27" arrival="-1.00" arrivalLane="" arrivalPos="-1.00" arrivalSpeed="-1.00" duration="3567.00" routeLength="16.74" waitingTime="3559.00" waitingCount="1" stopTime="0.00" timeLoss="3564.30" rerouteNo="0" devices="tripinfo_f_0_3.4" vType="type1" speedFactor="0.89" vaporized="end"/>
    <tripinfo id="f_0_0.3" depart="41.00" departLane="np13_nt13_0" departPos="66.20" departSpeed="0.00" departDelay="0.09" arrival="-1.00" arrivalLane="" arrivalPos="-1.00" arrivalSpeed="-1.00" duration="3559.00" routeLength="185.60" waitingTime="3539.00" waitingCount="2" stopTime="0.00" timeLoss="3549.30" rerouteNo="0" devices="tripinfo_f_0_0.3" vType="type1" speedFactor="1.07" vaporized="end"/>
    <tripinfo id="f_0_1.3" depart="41.00" departLane="np16_nt1_0" departPos="36.44" departSpeed="0.00" departDelay="0.09" arrival="-1.00" arrivalLane="" arrivalPos="-1.00" arrivalSpeed="-1.00" duration="3559.00" routeLength="581.40" waitingTime="3466.00" waitingCount="6" stopTime="0.00" timeLoss="3526.10" rerouteNo="0" devices="tripinfo_f_0_1.3" vType="type1" speedFactor="1.12" vaporized="end"/>
    <tripinfo id="f_0_2.5" depart="41.00" departLane="np2_nt2_0" departPos="10.72" departSpeed="0.00" departDelay="0.09" arrival="-1.00" arrivalLane="" arrivalPos="-1.00" arrivalSpeed="-1.00" duration="3559.00" routeLength="606.06" waitingTime="3478.00" waitingCount="4" stopTime="0.00" timeLoss="3517.37" rerouteNo="0" devices="tripinfo_f_0_2.5" vType="type1" speedFactor="1.18" vaporized="end"/>
    <tripinfo id="f_0_3.5" depart="41.00" departLane="np3_nt3_0" departPos="25.92" departSpeed="0.00" departDelay="0.09" arrival="-1.00" arrivalLane="" arrivalPos="-1.00" arrivalSpeed="-1.00" duration="3559.00" routeLength="0.18" waitingTime="3558.00" waitingCount="1" stopTime="0.00" timeLoss="3557.99" rerouteNo="0" devices="tripinfo_f_0_3.5" vType="type1" speedFactor="1.13" vaporized="end"/>
    <tripinfo id="f_0_2.6" depart="50.00" departLane="np2_nt2_0" departPos="13.01" departSpeed="0.00" departDelay="0.91" arrival="-1.00" arrivalLane="" arrivalPos="-1.00" arrivalSpeed="-1.00" duration="3550.00" routeLength="596.26" waitingTime="3463.00" waitingCount="4" stopTime="0.00" timeLoss="3493.91" rerouteNo="0" devices="tripinfo_f_0_2.6" vType="type1" speedFactor="0.86" vaporized="end"/>
    <tripinfo id="f_0_3.6" depart="50.00" departLane="np3_nt3_0" departPos="0.00" departSpeed="0.00" departDelay="0.91" arrival="-1.00" arrivalLane="" arrivalPos="-1.00" arrivalSpeed="-1.00" duration="3550.00" routeLength="18.59" waitingTime="3543.00" waitingCount="1" stopTime="0.00" timeLoss="3547.18" rerouteNo="0" devices="tripinfo_f_0_3.6" vType="type1" speedFactor="0.93" vaporized="end"/>
    <tripinfo id="f_0_0.4" depart="55.00" departLane="np13_nt13_0" departPos="29.13" departSpeed="0.00" departDelay="0.46" arrival="-1.00" arrivalLane="" arrivalPos="-1.00" arrivalSpeed="-1.00" duration="3545.00" routeLength="215.16" waitingTime="3523.00" waitingCount="2" stopTime="0.00" timeLoss="3533.69" rerouteNo="0" devices="tripinfo_f_0_0.4" vType="type1" speedFactor="1.04" vaporized="end"/>
    <tripinfo id="f_0_1.4" depart="55.00" departLane="np16_nt1_0" departPos="8.80" departSpeed="0.00" departDelay="0.46" arrival="-1.00" arrivalLane="" arrivalPos="-1.00" arrivalSpeed="-1.00" duration="3545.00" routeLength="601.54" waitingTime="3445.00" waitingCount="6" stopTime="0.00" timeLoss="3511.47" rerouteNo="0" devices="tripinfo_f_0_1.4" vType="type1" speedFactor="1.12" vaporized="end"/>
    <tripinfo id="f_0_2.7" depart="58.00" departLane="np2_nt2_0" departPos="36.04" departSpeed="0.00" departDelay="0.73" arrival="-1.00" arrivalLane="" arrivalPos="-1.00" arrivalSpeed="-1.00" duration="3542.00" routeLength="565.74" waitingTime="3458.00" waitingCount="4" stopTime="0.00" timeLoss="3499.50" rerouteNo="0" devices="tripinfo_f_0_2.7" vType="type1" speedFactor="1.07" vaporized="end"/>
    <tripinfo id="f_0_3.7" depart="58.00" departLane="np3_nt3_0" departPos="0.00" departSpeed="0.00" departDelay="0.73" arrival="-1.00" arrivalLane="" arrivalPos="-1.00" arrivalSpeed="-1.00" duration="3542.00" routeLength="11.09" waitingTime="3537.00" waitingCount="1" stopTime="0.00" timeLoss="3539.95" rerouteNo="0" devices="tripinfo_f_0_3.7" vType="type1" speedFactor="0.96" vaporized="end"/>
    <tripinfo id="f_0_2.8" depart="66.00" departLane="np2_nt2_0" departPos="13.56" departSpeed="0.00" departDelay="0.54" arrival="-1.00" arrivalLane="" arrivalPos="-1.00" arrivalSpeed="-1.00" duration="3534.00" routeLength="580.71" waitingTime="3446.00" waitingCount="4" stopTime="0.00" timeLoss="3486.05" rerouteNo="0" devices="tripinfo_f_0_2.8" vType="type1" speedFactor="0.97" vaporized="end"/>
    <tripinfo id="f_0_3.8" depart="66.00" departLane="np3_nt3_0" departPos="1.76" departSpeed="0.00" departDelay="0.54" arrival="-1.00" arrivalLane="" arrivalPos="-1.00" arrivalSpeed="-1.00" duration="3534.00" routeLength="1.83" waitingTime="3531.00" waitingCount="1" stopTime="0.00" timeLoss="3532.82" rerouteNo="0" devices="tripinfo_f_0_3.8" vType="type1" speedFactor="0.91" vaporized="end"/>
    <tripinfo id="f_0_0.5" depart="69.00" departLane="np13_nt13_0" departPos="53.08" departSpeed="0.00" departDelay="0.82" arrival="-1.00" arrivalLane="" arrivalPos="-1.00" arrivalSpeed="-1.00" duration="3531.00" routeLength="183.71" waitingTime="3508.00" waitingCount="2" stopTime="0.00" timeLoss="3521.67" rerouteNo="0" devices="tripinfo_f_0_0.5" vType="type1" speedFactor="1.10" vaporized="end"/>
    <tripinfo id="f_0_1.5" depart="69.00" departLane="np16_nt1_0" departPos="23.63" departSpeed="0.00" departDelay="0.82" arrival="-1.00" arrivalLane="" arrivalPos="-1.00" arrivalSpeed="-1.00" duration="3531.00" routeLength="579.21" waitingTime="3431.00" waitingCount="6" stopTime="0.00" timeLoss="3485.82" rerouteNo="0" devices="tripinfo_f_0_1.5" vType="type1" speedFactor="0.79" vaporized="end"/>
    <tripinfo id="f_0_2.9" depart="74.00" departLane="np2_nt2_0" departPos="15.31" departSpeed="0.00" departDelay="0.36" arrival="-1.00" arrivalLane="" arrivalPos="-1.00" arrivalSpeed="-1.00" duration="3526.00" routeLength="571.46" waitingTime="3433.00" waitingCount="4" stopTime="0.00" timeLoss="3471.70" rerouteNo="0" devices="tripinfo_f_0_2.9" vType="type1" speedFactor="0.85" vaporized="end"/>
    <tripinfo id="f_0_0.6" depart="82.00" departLane="np13_nt13_0" departPos="36.78" departSpeed="0.00" departDelay="0.18" arrival="-1.00" arrivalLane="" arrivalPos="-1.00" arrivalSpeed="-1.00" duration="3518.00" routeLength="192.52" waitingTime="3495.00" waitingCount="2" stopTime="0.00" timeLoss="3506.12" rerouteNo="0" devices="tripinfo_f_0_0.6" vType="type1" speedFactor="0.88" vaporized="end"/>
    <tripinfo id="f_0_1.6" depart="82.00" departLane="np16_nt1_0" departPos="2.07" departSpeed="0.00" departDelay="0.18" arrival="-1.00" arrivalLane="" arrivalPos="-1.00" arrivalSpeed="-1.00" duration="3518.00" routeLength="593.27" waitingTime="3415.00" waitingCount="6" stopTime="0.00" timeLoss="3478.99" rerouteNo="0" devices="tripinfo_f_0_1.6" vType="type1" speedFactor="0.93" vaporized="end"/>
    <tripinfo id="f_0_2.10" depart="82.00" departLane="np2_nt2_0" departPos="54.07" departSpeed="0.00" departDelay="0.18" arrival="-1.00" arrivalLane="" arrivalPos="-1.00" arrivalSpeed="-1.00" duration="3518.00" routeLength="525.20" waitingTime="3432.00" waitingCount="4" stopTime="0.00" timeLoss="3479.04" rerouteNo="0" devices="tripinfo_f_0_2.10" vType="type1" speedFactor="1.08" vaporized="end"/>
    <tripinfo id="f_0_2.11" depart="90.00" departLane="np2_nt2_0" departPos="14.25" departSpeed="0.00" departDelay="0.00" arrival="-1.00" arrivalLane="" arrivalPos="-1.00" arrivalSpeed="-1.00" duration="3510.00" routeLength="557.52" waitingTime="3420.00" waitingCount="4" stopTime="0.00" timeLoss="3463.42" rerouteNo="0" devices="tripinfo_f_0_2.11" vType="type1" speedFactor="0.97" vaporized="end"/>
    <tripinfo id="f_0_0.7" depart="96.00" departLane="np13_nt13_0" departPos="58.93" departSpeed="0.00" departDelay="0.55" arrival="-1.00" arrivalLane="" arrivalPos="-1.00" arrivalSpeed="-1.00" duration="3504.00" routeLength="162.86" waitingTime="3482.00" waitingCount="3" stopTime="0.00" timeLoss="3493.81" rerouteNo="0" devices="tripinfo_f_0_0.7" vType="type1" speedFactor="0.89" vaporized="end"/>
    <tripinfo id="f_0_1.7" depart="96.00" departLane="np16_nt1_0" departPos="0.00" departSpeed="0.00" departDelay="0.55" arrival="-1.00" arrivalLane="" arrivalPos="-1.00" arrivalSpeed="-1.00" duration="3504.00" routeLength="466.80" waitingTime="3390.00" waitingCount="11" stopTime="0.00" timeLoss="3478.59" rerouteNo="0" devices="tripinfo_f_0_1.7" vType="type1" speedFactor="0.96" vaporized="end"/>
    <tripinfo id="f_0_2.12" depart="99.00" departLane="np2_nt2_0" departPos="48.14" departSpeed="0.00" departDelay="0.82" arrival="-1.00" arrivalLane="" arrivalPos="-1.00" arrivalSpeed="-1.00" duration="3501.00" routeLength="516.12" waitingTime="3415.00" waitingCount="4" stopTime="0.00" timeLoss="3460.27" rerouteNo="0" devices="tripinfo_f_0_2.12" vType="type1" speedFactor="1.01" vaporized="end"/>
    <tripinfo id="f_0_2.13" depart="107.00" departLane="np2_nt2_0" departPos="2.34" departSpeed="0.00" departDelay="0.63" arrival="-1.00" arrivalLane="" arrivalPos="-1.00" arrivalSpeed="-1.00" duration="3493.00" routeLength="554.43" waitingTime="3401.00" waitingCount="4" stopTime="0.00" timeLoss="3451.47" rerouteNo="0" devices="tripinfo_f_0_2.13" vType="type1" speedFactor="1.07" vaporized="end"/>
    <tripinfo id="f_0_0.8" depart="110.00" departLane="np13_nt13_0" departPos="43.97" departSpeed="0.00" departDelay="0.91" arrival="-1.00" arrivalLane="" arrivalPos="-1.00" arrivalSpeed="-1.00" duration="3490.00" routeLength="170.32" waitingTime="3466.00" waitingCount="2" stopTime="0.00" timeLoss="3480.09" rerouteNo="0" devices="tripinfo_f_0_0.8" vType="type1" speedFactor="0.96" vaporized="end"/>
    <tripinfo id="f_0_1.8" depart="110.00" departLane="np16_nt1_0" departPos="0.00" departSpeed="0.00" departDelay="0.91" arrival="-1.00" arrivalLane="" arrivalPos="-1.00" arrivalSpeed="-1.00" duration="3490.00" routeLength="429.29" waitingTime="3366.00" waitingCount="8" stopTime="0.00" timeLoss="3465.29" rerouteNo="0" devices="tripinfo_f_0_1.8" vType="type1" speedFactor="0.91" vaporized="end"/>
    <tripinfo id="f_0_2.14" depart="115.00" departLane="np2_nt2_0" departPos="30.77" departSpeed="0.00" departDelay="0.45" arrival="-1.00" arrivalLane="" arrivalPos="-1.00" arrivalSpeed="-1.00" duration="3485.00" routeLength="518.49" waitingTime="3396.00" waitingCount="4" stopTime="0.00" timeLoss="3436.63" rerouteNo="0" devices="tripinfo_f_0_2.14" vType="type1" speedFactor="0.84" vaporized="end"/>
    <tripinfo id="f_0_0.9" depart="123.00" departLane="np13_nt13_0" departPos="33.85" departSpeed="0.00" departDelay="0.28" arrival="-1.00" arrivalLane="" arrivalPos="-1.00" arrivalSpeed="-1.00" duration="3477.00" routeLength="172.95" waitingTime="3453.00" waitingCount="2" stopTime="0.00" timeLoss="3468.48" rerouteNo="0" devices="tripinfo_f_0_0.9" vType="type1" speedFactor="1.15" vaporized="end"/>
    <tripinfo id="f_0_1.9" depart="166.00" departLane="np16_nt1_0" departPos="57.83" departSpeed="0.00" departDelay="43.28" arrival="-1.00" arrivalLane="" arrivalPos="-1.00" arrivalSpeed="-1.00" duration="3434.00" routeLength="582.52" waitingTime="3348.00" waitingCount="4" stopTime="0.00" timeLoss="3395.17" rerouteNo="0" devices="tripinfo_f_0_1.9" vType="type1" speedFactor="0.97" vaporized="end"/>
    <tripinfo id="f_0_2.15" depart="123.00" departLane="np2_nt2_0" departPos="46.10" departSpeed="0.00" departDelay="0.27" arrival="-1.00" arrivalLane="" arrivalPos="-1.00" arrivalSpeed="-1.00" duration="3477.00" routeLength="495.67" waitingTime="3388.00" waitingCount="4" stopTime="0.00" timeLoss="3434.33" rerouteNo="0" devices="tripinfo_f_0_2.15" vType="type1" speedFactor="0.91" vaporized="end"/>
    <tripinfo id="f_0_2.16" depart="131.00" departLane="np2_nt2_0" departPos="55.30" departSpeed="0.00" departDelay="0.09" arrival="-1.00" arrivalLane="" arrivalPos="-1.00" arrivalSpeed="-1.00" duration="3469.00" routeLength="478.96" waitingTime="3383.00" waitingCount="4" stopTime="0.00" timeLoss="3432.98" rerouteNo="0" devices="tripinfo_f_0_2.16" vType="type1" speedFactor="1.06" vaporized="end"/>
    <tripinfo id="f_0_0.10" depart="137.00" departLane="np13_nt13_0" departPos="63.28" departSpeed="0.00" departDelay="0.64" arrival="-1.00" arrivalLane="" arrivalPos="-1.00" arrivalSpeed="-1.00" duration="3463.00" routeLength="136.01" waitingTime="3444.00" waitingCount="2" stopTime="0.00" timeLoss="3455.43" rerouteNo="0" devices="tripinfo_f_0_0.10" vType="type1" speedFactor="1.03" vaporized="end"/>
    <tripinfo id="f_0_1.10" depart="167.00" departLane="np16_nt1_0" departPos="67.43" departSpeed="0.00" departDelay="30.64" arrival="-1.00" arrivalLane="" arrivalPos="-1.00" arrivalSpeed="-1.00" duration="3433.00" routeLength="587.92" waitingTime="3353.00" waitingCount="3" stopTime="0.00" timeLoss="3391.96" rerouteNo="0" devices="tripinfo_f_0_1.10" vType="type1" speedFactor="0.94" vaporized="end"/>
    <tripinfo id="f_0_2.17" depart="140.00" departLane="np2_nt2_0" departPos="14.07" departSpeed="0.00" departDelay="0.91" arrival="-1.00" arrivalLane="" arrivalPos="-1.00" arrivalSpeed="-1.00" duration="3460.00" routeLength="512.69" waitingTime="3365.00" waitingCount="4" stopTime="0.00" timeLoss="3416.65" rerouteNo="0" devices="tripinfo_f_0_2.17" vType="type1" speedFactor="0.94" vaporized="end"/>
    <tripinfo id="f_0_2.18" depart="148.00" departLane="np2_nt2_0" departPos="1.46" departSpeed="0.00" departDelay="0.72" arrival="-1.00" arrivalLane="" arrivalPos="-1.00" arrivalSpeed="-1.00" duration="3452.00" routeLength="517.80" waitingTime="3356.00" waitingCount="4" stopTime="0.00" timeLoss="3408.11" rerouteNo="0" devices="tripinfo_f_0_2.18" vType="type1" speedFactor="0.95" vaporized="end"/>
    <tripinfo id="f_0_0.11" depart="150.00" departLane="np13_nt13_0" departPos="30.53" departSpeed="0.00" departDelay="0.00" arrival="-1.00" arrivalLane="" arrivalPos="-1.00" arrivalSpeed="-1.00" duration="3450.00" routeLength="161.26" waitingTime="3428.00" waitingCount="2" stopTime="0.00" timeLoss="3440.85" rerouteNo="0" devices="tripinfo_f_0_0.11" vType="type1" speedFactor="0.99" vaporized="end"/>
    <tripinfo id="f_0_1.11" depart="171.00" departLane="np16_nt1_0" departPos="0.00" departSpeed="0.00" departDelay="21.00" arrival="-1.00" arrivalLane="" arrivalPos="-1.00" arrivalSpeed="-1.00" duration="3429.00" routeLength="421.79" waitingTime="3310.00" waitingCount="7" stopTime="0.00" timeLoss="3403.11" rerouteNo="0" devices="tripinfo_f_0_1.11" vType="type1" speedFactor="0.85" vaporized="end"/>
    <tripinfo id="f_0_2.19" depart="156.00" departLane="np2_nt2_0" departPos="40.12" departSpeed="0.00" departDelay="0.54" arrival="-1.00" arrivalLane="" arrivalPos="-1.00" arrivalSpeed="-1.00" duration="3444.00" routeLength="471.64" waitingTime="3351.00" waitingCount="6" stopTime="0.00" timeLoss="3407.12" rerouteNo="0" devices="tripinfo_f_0_2.19" vType="type1" speedFactor="1.00" vaporized="end"/>
    <tripinfo id="f_0_0.12" depart="164.00" departLane="np13_nt13_0" departPos="51.63" departSpeed="0.00" departDelay="0.37" arrival="-1.00" arrivalLane="" arrivalPos="-1.00" arrivalSpeed="-1.00" duration="3436.00" routeLength="132.66" waitingTime="3413.00" waitingCount="2" stopTime="0.00" timeLoss="3427.55" rerouteNo="0" devices="tripinfo_f_0_0.12" vType="type1" speedFactor="0.89" vaporized="end"/>
    <tripinfo id="f_0_1.12" depart="178.00" departLane="np16_nt1_0" departPos="0.00" departSpeed="0.00" departDelay="14.37" arrival="-1.00" arrivalLane="" arrivalPos="-1.00" arrivalSpeed="-1.00" duration="3422.00" routeLength="580.34" waitingTime="3320.00" waitingCount="3" stopTime="0.00" timeLoss="3388.94" rerouteNo="0" devices="tripinfo_f_0_1.12" vType="type1" speedFactor="1.07" vaporized="end"/>
    <tripinfo id="f_0_2.20" depart="164.00" departLane="np2_nt2_0" departPos="14.71" departSpeed="0.00" departDelay="0.36" arrival="-1.00" arrivalLane="" arrivalPos="-1.00" arrivalSpeed="-1.00" duration="3436.00" routeLength="489.54" waitingTime="3341.00" waitingCount="4" stopTime="0.00" timeLoss="3397.36" rerouteNo="0" devices="tripinfo_f_0_2.20" vType="type1" speedFactor="1.01" vaporized="end"/>
    <tripinfo id="f_0_2.21" depart="172.00" departLane="np2_nt2_0" departPos="5.22" departSpeed="0.00" departDelay="0.18" arrival="-1.00" arrivalLane="" arrivalPos="-1.00" arrivalSpeed="-1.00" duration="3428.00" routeLength="491.54" waitingTime="3338.00" waitingCount="3" stopTime="0.00" timeLoss="3390.37" rerouteNo="0" devices="tripinfo_f_0_2.21" vType="type1" speedFactor="1.03" vaporized="end"/>
    <tripinfo id="f_0_0.13" depart="178.00" departLane="np13_nt13_0" departPos="21.31" departSpeed="0.00" departDelay="0.73" arrival="-1.00" arrivalLane="" arrivalPos="-1.00" arrivalSpeed="-1.00" duration="3422.00" routeLength="155.48" waitingTime="3399.00" waitingCount="2" stopTime="0.00" timeLoss="3414.33" rerouteNo="0" devices="tripinfo_f_0_0.13" vType="type1" speedFactor="1.16" vaporized="end"/>
    <tripinfo id="f_0_1.13" depart="178.00" departLane="np16_nt1_0" departPos="55.01" departSpeed="0.00" departDelay="0.73" arrival="-1.00" arrivalLane="" arrivalPos="-1.00" arrivalSpeed="-1.00" duration="3422.00" routeLength="442.82" waitingTime="3325.00" waitingCount="10" stopTime="0.00" timeLoss="3394.35" rerouteNo="0" devices="tripinfo_f_0_1.13" vType="type1" speedFactor="0.90" vaporized="end"/>
    <tripinfo id="f_0_2.22" depart="180.00" departLane="np2_nt2_0" departPos="0.08" departSpeed="0.00" departDelay="0.00" arrival="-1.00" arrivalLane="" arrivalPos="-1.00" arrivalSpeed="-1.00" duration="3420.00" routeLength="439.20" waitingTime="3347.00" waitingCount="3" stopTime="0.00" timeLoss="3379.81" rerouteNo="0" devices="tripinfo_f_0_2.22" vType="type1" speedFactor="0.85" vaporized="end"/>
    <tripinfo id="f_0_2.23" depart="189.00" departLane="np2_nt2_0" departPos="50.80" departSpeed="0.00" departDelay="0.81" arrival="-1.00" arrivalLane="" arrivalPos="-1.00" arrivalSpeed="-1.00" duration="3411.00" routeLength="373.48" waitingTime="3343.00" waitingCount="4" stopTime="0.00" timeLoss="3384.23" rerouteNo="0" devices="tripinfo_f_0_2.23" vType="type1" speedFactor="1.04" vaporized="end"/>
    <tripinfo id="f_0_0.14" depart="191.00" departLane="np13_nt13_0" departPos="52.34" departSpeed="0.00" departDelay="0.10" arrival="-1.00" arrivalLane="" arrivalPos="-1.00" arrivalSpeed="-1.00" duration="3409.00" routeLength="116.95" waitingTime="3388.00" waitingCount="2" stopTime="0.00" timeLoss="3401.69" rerouteNo="0" devices="tripinfo_f_0_0.14" vType="type1" speedFactor="0.93" vaporized="end"/>
    <tripinfo id="f_0_1.14" depart="191.00" departLane="np16_nt1_0" departPos="54.86" departSpeed="0.00" departDelay="0.10" arrival="-1.00" arrivalLane="" arrivalPos="-1.00" arrivalSpeed="-1.00" duration="3409.00" routeLength="510.48" waitingTime="3319.00" waitingCount="5" stopTime="0.00" timeLoss="3381.61" rerouteNo="0" devices="tripinfo_f_0_1.14" vType="type1" speedFactor="1.14" vaporized="end"/>
    <tripinfo id="f_0_2.24" depart="197.00" departLane="np2_nt2_0" departPos="23.66" departSpeed="0.00" departDelay="0.63" arrival="-1.00" arrivalLane="" arrivalPos="-1.00" arrivalSpeed="-1.00" duration="3403.00" routeLength="393.12" waitingTime="3339.00" waitingCount="4" stopTime="0.00" timeLoss="3374.00" rerouteNo="0" devices="tripinfo_f_0_2.24" vType="type1" speedFactor="1.03" vaporized="end"/>
    <tripinfo id="f_0_0.15" depart="205.00" departLane="np13_nt13_0" departPos="43.20" departSpeed="0.00" departDelay="0.46" arrival="-1.00" arrivalLane="" arrivalPos="-1.00" arrivalSpeed="-1.00" duration="3395.00" routeLength="118.59" waitingTime="3373.00" waitingCount="3" stopTime="0.00" timeLoss="3387.25" rerouteNo="0" devices="tripinfo_f_0_0.15" vType="type1" speedFactor="0.88" vaporized="end"/>
    <tripinfo id="f_0_1.15" depart="205.00" departLane="np16_nt1_0" departPos="38.91" departSpeed="0.00" departDelay="0.46" arrival="-1.00" arrivalLane="" arrivalPos="-1.00" arrivalSpeed="-1.00" duration="3395.00" routeLength="511.42" waitingTime="3313.00" waitingCount="4" stopTime="0.00" timeLoss="3364.97" rerouteNo="0" devices="tripinfo_f_0_1.15" vType="type1" speedFactor="1.03" vaporized="end"/>
    <tripinfo id="f_0_2.25" depart="205.00" departLane="np2_nt2_0" departPos="12.56" departSpeed="0.00" departDelay="0.45" arrival="-1.00" arrivalLane="" arrivalPos="-1.00" arrivalSpeed="-1.00" duration="3395.00" routeLength="366.71" waitingTime="3331.00" waitingCount="3" stopTime="0.00" timeLoss="3367.35" rerouteNo="0" devices="tripinfo_f_0_2.25" vType="type1" speedFactor="1.00" vaporized="end"/>
    <tripinfo id="f_0_2.26" depart="213.00" departLane="np2_nt2_0" departPos="15.51" departSpeed="0.00" departDelay="0.27" arrival="-1.00" arrivalLane="" arrivalPos="-1.00" arrivalSpeed="-1.00" duration="3387.00" routeLength="348.76" waitingTime="3323.00" waitingCount="4" stopTime="0.00" timeLoss="3360.27" rerouteNo="0" devices="tripinfo_f_0_2.26" vType="type1" speedFactor="0.97" vaporized="end"/>
    <tripinfo id="f_0_0.16" depart="219.00" departLane="np13_nt13_0" departPos="38.16" departSpeed="0.00" departDelay="0.82" arrival="-1.00" arrivalLane="" arrivalPos="-1.00" arrivalSpeed="-1.00" duration="3381.00" routeLength="116.12" waitingTime="3356.00" waitingCount="2" stopTime="0.00" timeLoss="3374.26" rerouteNo="0" devices="tripinfo_f_0_0.16" vType="type1" speedFactor="1.01" vaporized="end"/>
    <tripinfo id="f_0_1.16" depart="219.00" departLane="np16_nt1_0" departPos="5.15" departSpeed="0.00" departDelay="0.82" arrival="-1.00" arrivalLane="" arrivalPos="-1.00" arrivalSpeed="-1.00" duration="3381.00" routeLength="537.68" waitingTime="3313.00" waitingCount="5" stopTime="0.00" timeLoss="3348.76" rerouteNo="0" devices="tripinfo_f_0_1.16" vType="type1" speedFactor="0.97" vaporized="end"/>
    <tripinfo id="f_0_2.27" depart="221.00" departLane="np2_nt2_0" departPos="21.42" departSpeed="0.00" departDelay="0.09" arrival="-1.00" arrivalLane="" arrivalPos="-1.00" arrivalSpeed="-1.00" duration="3379.00" routeLength="327.84" waitingTime="3320.00" waitingCount="4" stopTime="0.00" timeLoss="3355.06" rerouteNo="0" devices="tripinfo_f_0_2.27" vType="type1" speedFactor="1.02" vaporized="end"/>
    <tripinfo id="f_0_2.28" depart="230.00" departLane="np2_nt2_0" departPos="36.80" departSpeed="0.00" departDelay="0.90" arrival="-1.00" arrivalLane="" arrivalPos="-1.00" arrivalSpeed="-1.00" duration="3370.00" routeLength="289.96" waitingTime="3313.00" waitingCount="6" stopTime="0.00" timeLoss="3346.49" rerouteNo="0" devices="tripinfo_f_0_2.28" vType="type1" speedFactor="0.87" vaporized="end"/>