<?xml version="1.0" encoding="UTF-8"?>

<!-- generated on 2023-08-30 19:10:48 by Eclipse SUMO libsumo Version 1.18.0
<configuration xmlns:xsi="http://www.w3.org/2001/XMLSchema-instance" xsi:noNamespaceSchemaLocation="http://sumo.dlr.de/xsd/libsumoConfiguration.xsd">

    <input>
        <net-file value="/home/stefan/RESCO/./environments/arterial4x4/arterial4x4.net.xml"/>
        <route-files value="/home/stefan/RESCO/./environments/arterial4x4/arterial4x4_66.rou.xml"/>
    </input>

    <output>
        <tripinfo-output value="/home/stefan/results/RAINBOW-tr0-arterial4x4-0-drq_norm-wait_norm/tripinfo_66.xml"/>
        <tripinfo-output.write-unfinished value="true"/>
    </output>

    <processing>
        <time-to-teleport value="-1"/>
    </processing>

    <report>
        <no-warnings value="True"/>
        <no-step-log value="True"/>
    </report>

    <random_number>
        <random value="true"/>
    </random_number>

</configuration>
-->

<tripinfos xmlns:xsi="http://www.w3.org/2001/XMLSchema-instance" xsi:noNamespaceSchemaLocation="http://sumo.dlr.de/xsd/tripinfo_file.xsd">
    <tripinfo id="f_0_2.0" depart="0.00" departLane="np2_nt2_0" departPos="35.45" departSpeed="0.00" departDelay="0.00" arrival="282.00" arrivalLane="nt15_np10_0" arrivalPos="75.00" arrivalSpeed="10.57" duration="282.00" routeLength="915.63" waitingTime="185.00" waitingCount="4" stopTime="0.00" timeLoss="208.89" rerouteNo="0" devices="tripinfo_f_0_2.0" vType="type1" speedFactor="1.06" vaporized=""/>
    <tripinfo id="f_0_2.1" depart="9.00" departLane="np2_nt2_0" departPos="40.29" departSpeed="0.00" departDelay="0.82" arrival="285.00" arrivalLane="nt15_np10_0" arrivalPos="75.00" arrivalSpeed="10.19" duration="276.00" routeLength="910.79" waitingTime="176.00" waitingCount="4" stopTime="0.00" timeLoss="195.13" rerouteNo="0" devices="tripinfo_f_0_2.1" vType="type1" speedFactor="0.95" vaporized=""/>
    <tripinfo id="f_0_0.0" depart="0.00" departLane="np13_nt13_0" departPos="26.08" departSpeed="0.00" departDelay="0.00" arrival="338.00" arrivalLane="nt4_np5_0" arrivalPos="75.00" arrivalSpeed="15.63" duration="338.00" routeLength="1321.81" waitingTime="204.00" waitingCount="5" stopTime="0.00" timeLoss="230.74" rerouteNo="0" devices="tripinfo_f_0_0.0" vType="type1" speedFactor="0.86" vaporized=""/>
    <tripinfo id="f_0_2.2" depart="17.00" departLane="np2_nt2_0" departPos="10.22" departSpeed="0.00" departDelay="0.64" arrival="457.00" arrivalLane="nt15_np10_0" arrivalPos="75.00" arrivalSpeed="10.12" duration="440.00" routeLength="940.86" waitingTime="329.00" waitingCount="5" stopTime="0.00" timeLoss="355.41" rerouteNo="0" devices="tripinfo_f_0_2.2" vType="type1" speedFactor="0.94" vaporized=""/>
    <tripinfo id="f_0_0.1" depart="14.00" departLane="np13_nt13_0" departPos="23.29" departSpeed="0.00" departDelay="0.36" arrival="512.00" arrivalLane="nt4_np5_0" arrivalPos="75.00" arrivalSpeed="17.27" duration="498.00" routeLength="1324.60" waitingTime="360.00" waitingCount="5" stopTime="0.00" timeLoss="393.87" rerouteNo="0" devices="tripinfo_f_0_0.1" vType="type1" speedFactor="0.88" vaporized=""/>
    <tripinfo id="f_0_2.3" depart="25.00" departLane="np2_nt2_0" departPos="26.82" departSpeed="0.00" departDelay="0.45" arrival="528.00" arrivalLane="nt15_np10_0" arrivalPos="75.00" arrivalSpeed="10.51" duration="503.00" routeLength="924.26" waitingTime="393.00" waitingCount="5" stopTime="0.00" timeLoss="422.88" rerouteNo="0" devices="tripinfo_f_0_2.3" vType="type1" speedFactor="0.98" vaporized=""/>
    <tripinfo id="f_0_3.0" depart="0.00" departLane="np3_nt3_0" departPos="27.01" departSpeed="0.00" departDelay="0.00" arrival="547.00" arrivalLane="nt14_np11_0" arrivalPos="75.00" arrivalSpeed="10.59" duration="547.00" routeLength="924.08" waitingTime="444.00" waitingCount="5" stopTime="0.00" timeLoss="468.10" rerouteNo="0" devices="tripinfo_f_0_3.0" vType="type1" speedFactor="0.98" vaporized=""/>
    <tripinfo id="f_0_0.2" depart="28.00" departLane="np13_nt13_0" departPos="15.78" departSpeed="0.00" departDelay="0.73" arrival="574.00" arrivalLane="nt4_np5_0" arrivalPos="75.00" arrivalSpeed="17.40" duration="546.00" routeLength="1332.11" waitingTime="401.00" waitingCount="7" stopTime="0.00" timeLoss="442.15" rerouteNo="0" devices="tripinfo_f_0_0.2" vType="type1" speedFactor="0.89" vaporized=""/>
    <tripinfo id="f_0_0.3" depart="41.00" departLane="np13_nt13_0" departPos="13.36" departSpeed="0.00" departDelay="0.09" arrival="575.00" arrivalLane="nt4_np5_0" arrivalPos="75.00" arrivalSpeed="20.17" duration="534.00" routeLength="1334.53" waitingTime="396.00" waitingCount="7" stopTime="0.00" timeLoss="447.18" rerouteNo="0" devices="tripinfo_f_0_0.3" vType="type1" speedFactor="1.06" vaporized=""/>
    <tripinfo id="f_0_0.4" depart="55.00" departLane="np13_nt13_0" departPos="17.78" departSpeed="0.00" departDelay="0.46" arrival="778.00" arrivalLane="nt4_np5_0" arrivalPos="75.00" arrivalSpeed="20.08" duration="723.00" routeLength="1330.11" waitingTime="580.00" waitingCount="7" stopTime="0.00" timeLoss="633.74" rerouteNo="0" devices="tripinfo_f_0_0.4" vType="type1" speedFactor="1.04" vaporized=""/>
    <tripinfo id="f_0_2.4" depart="33.00" departLane="np2_nt2_0" departPos="5.57" departSpeed="0.00" departDelay="0.27" arrival="799.00" arrivalLane="nt15_np10_0" arrivalPos="75.00" arrivalSpeed="7.63" duration="766.00" routeLength="945.51" waitingTime="645.00" waitingCount="6" stopTime="0.00" timeLoss="676.83" rerouteNo="0" devices="tripinfo_f_0_2.4" vType="type1" speedFactor="0.90" vaporized=""/>
    <tripinfo id="f_0_0.5" depart="69.00" departLane="np13_nt13_0" departPos="54.96" departSpeed="0.00" departDelay="0.82" arrival="839.00" arrivalLane="nt4_np5_0" arrivalPos="75.00" arrivalSpeed="19.52" duration="770.00" routeLength="1292.93" waitingTime="633.00" waitingCount="7" stopTime="0.00" timeLoss="685.23" rerouteNo="0" devices="tripinfo_f_0_0.5" vType="type1" speedFactor="1.06" vaporized=""/>
    <tripinfo id="f_0_0.6" depart="82.00" departLane="np13_nt13_0" departPos="15.39" departSpeed="0.00" departDelay="0.18" arrival="908.00" arrivalLane="nt4_np5_0" arrivalPos="75.00" arrivalSpeed="22.16" duration="826.00" routeLength="1332.50" waitingTime="692.00" waitingCount="9" stopTime="0.00" timeLoss="747.84" rerouteNo="0" devices="tripinfo_f_0_0.6" vType="type1" speedFactor="1.19" vaporized=""/>
    <tripinfo id="f_0_2.5" depart="41.00" departLane="np2_nt2_0" departPos="5.71" departSpeed="0.00" departDelay="0.09" arrival="912.00" arrivalLane="nt15_np10_0" arrivalPos="75.00" arrivalSpeed="11.74" duration="871.00" routeLength="945.37" waitingTime="756.00" waitingCount="7" stopTime="0.00" timeLoss="796.34" rerouteNo="0" devices="tripinfo_f_0_2.5" vType="type1" speedFactor="1.07" vaporized=""/>
    <tripinfo id="f_0_2.6" depart="50.00" departLane="np2_nt2_0" departPos="18.23" departSpeed="0.00" departDelay="0.91" arrival="914.00" arrivalLane="nt15_np10_0" arrivalPos="75.00" arrivalSpeed="10.65" duration="864.00" routeLength="932.85" waitingTime="740.00" waitingCount="7" stopTime="0.00" timeLoss="787.42" rerouteNo="0" devices="tripinfo_f_0_2.6" vType="type1" speedFactor="1.02" vaporized=""/>
    <tripinfo id="f_0_2.7" depart="58.00" departLane="np2_nt2_0" departPos="46.66" departSpeed="0.00" departDelay="0.73" arrival="917.00" arrivalLane="nt15_np10_0" arrivalPos="75.00" arrivalSpeed="10.02" duration="859.00" routeLength="904.42" waitingTime="734.00" waitingCount="7" stopTime="0.00" timeLoss="779.94" rerouteNo="0" devices="tripinfo_f_0_2.7" vType="type1" speedFactor="0.96" vaporized=""/>
    <tripinfo id="f_0_3.1" depart="9.00" departLane="np3_nt3_0" departPos="50.59" departSpeed="0.00" departDelay="0.82" arrival="973.00" arrivalLane="nt14_np11_0" arrivalPos="75.00" arrivalSpeed="10.21" duration="964.00" routeLength="900.50" waitingTime="860.00" waitingCount="5" stopTime="0.00" timeLoss="886.47" rerouteNo="0" devices="tripinfo_f_0_3.1" vType="type1" speedFactor="0.97" vaporized=""/>
    <tripinfo id="f_0_3.2" depart="17.00" departLane="np3_nt3_0" departPos="14.19" departSpeed="0.00" departDelay="0.64" arrival="978.00" arrivalLane="nt14_np11_0" arrivalPos="75.00" arrivalSpeed="9.80" duration="961.00" routeLength="936.90" waitingTime="842.00" waitingCount="5" stopTime="0.00" timeLoss="874.42" rerouteNo="0" devices="tripinfo_f_0_3.2" vType="type1" speedFactor="0.91" vaporized=""/>
    <tripinfo id="f_0_0.7" depart="96.00" departLane="np13_nt13_0" departPos="35.89" departSpeed="0.00" departDelay="0.55" arrival="979.00" arrivalLane="nt4_np5_0" arrivalPos="75.00" arrivalSpeed="21.01" duration="883.00" routeLength="1312.00" waitingTime="740.00" waitingCount="13" stopTime="0.00" timeLoss="799.23" rerouteNo="0" devices="tripinfo_f_0_0.7" vType="type1" speedFactor="1.09" vaporized=""/>
    <tripinfo id="f_0_2.8" depart="66.00" departLane="np2_nt2_0" departPos="40.31" departSpeed="0.00" departDelay="0.54" arrival="998.00" arrivalLane="nt15_np10_0" arrivalPos="75.00" arrivalSpeed="9.68" duration="932.00" routeLength="910.77" waitingTime="798.00" waitingCount="8" stopTime="0.00" timeLoss="847.29" rerouteNo="0" devices="tripinfo_f_0_2.8" vType="type1" speedFactor="0.90" vaporized=""/>
    <tripinfo id="f_0_2.9" depart="74.00" departLane="np2_nt2_0" departPos="44.32" departSpeed="0.00" departDelay="0.36" arrival="1187.00" arrivalLane="nt15_np10_0" arrivalPos="75.00" arrivalSpeed="9.69" duration="1113.00" routeLength="906.76" waitingTime="976.00" waitingCount="9" stopTime="0.00" timeLoss="1039.52" rerouteNo="0" devices="tripinfo_f_0_2.9" vType="type1" speedFactor="1.03" vaporized=""/>
    <tripinfo id="f_3_5.0" depart="900.00" departLane="np8_nt16_0" departPos="21.04" departSpeed="0.00" departDelay="0.00" arrival="1194.00" arrivalLane="nt1_np16_0" arrivalPos="67.80" arrivalSpeed="18.96" duration="294.00" routeLength="1326.84" waitingTime="172.00" waitingCount="5" stopTime="0.00" timeLoss="205.88" rerouteNo="0" devices="tripinfo_f_3_5.0" vType="type1" speedFactor="1.04" vaporized=""/>
    <tripinfo id="f_3_5.1" depart="922.00" departLane="np8_nt16_0" departPos="26.02" departSpeed="0.00" departDelay="0.31" arrival="1197.00" arrivalLane="nt1_np16_0" arrivalPos="67.80" arrivalSpeed="20.25" duration="275.00" routeLength="1321.86" waitingTime="148.00" waitingCount="4" stopTime="0.00" timeLoss="188.65" rerouteNo="0" devices="tripinfo_f_3_5.1" vType="type1" speedFactor="1.08" vaporized=""/>
    <tripinfo id="f_0_0.8" depart="110.00" departLane="np13_nt13_0" departPos="25.14" departSpeed="0.00" departDelay="0.91" arrival="1203.00" arrivalLane="nt4_np5_0" arrivalPos="75.00" arrivalSpeed="19.48" duration="1093.00" routeLength="1322.75" waitingTime="931.00" waitingCount="13" stopTime="0.00" timeLoss="1009.02" rerouteNo="0" devices="tripinfo_f_0_0.8" vType="type1" speedFactor="1.09" vaporized=""/>
    <tripinfo id="f_0_0.9" depart="123.00" departLane="np13_nt13_0" departPos="34.53" departSpeed="0.00" departDelay="0.28" arrival="1258.00" arrivalLane="nt4_np5_0" arrivalPos="75.00" arrivalSpeed="21.75" duration="1135.00" routeLength="1313.36" waitingTime="998.00" waitingCount="11" stopTime="0.00" timeLoss="1058.21" rerouteNo="0" devices="tripinfo_f_0_0.9" vType="type1" speedFactor="1.19" vaporized=""/>
    <tripinfo id="f_0_2.10" depart="82.00" departLane="np2_nt2_0" departPos="48.62" departSpeed="0.00" departDelay="0.18" arrival="1337.00" arrivalLane="nt15_np10_0" arrivalPos="75.00" arrivalSpeed="11.29" duration="1255.00" routeLength="902.46" waitingTime="1122.00" waitingCount="11" stopTime="0.00" timeLoss="1187.79" rerouteNo="0" devices="tripinfo_f_0_2.10" vType="type1" speedFactor="1.13" vaporized=""/>
    <tripinfo id="f_0_1.0" depart="0.00" departLane="np16_nt1_0" departPos="25.41" departSpeed="0.00" departDelay="0.00" arrival="1348.00" arrivalLane="nt16_np8_0" arrivalPos="75.00" arrivalSpeed="21.76" duration="1348.00" routeLength="1322.47" waitingTime="1190.00" waitingCount="13" stopTime="0.00" timeLoss="1266.52" rerouteNo="0" devices="tripinfo_f_0_1.0" vType="type1" speedFactor="1.13" vaporized=""/>
    <tripinfo id="f_0_1.1" depart="14.00" departLane="np16_nt1_0" departPos="4.90" departSpeed="0.00" departDelay="0.36" arrival="1357.00" arrivalLane="nt16_np8_0" arrivalPos="75.00" arrivalSpeed="15.63" duration="1343.00" routeLength="1342.98" waitingTime="1152.00" waitingCount="13" stopTime="0.00" timeLoss="1234.74" rerouteNo="0" devices="tripinfo_f_0_1.1" vType="type1" speedFactor="0.86" vaporized=""/>
    <tripinfo id="f_0_1.2" depart="28.00" departLane="np16_nt1_0" departPos="22.78" departSpeed="0.00" departDelay="0.73" arrival="1361.00" arrivalLane="nt16_np8_0" arrivalPos="75.00" arrivalSpeed="16.69" duration="1333.00" routeLength="1325.10" waitingTime="1142.00" waitingCount="12" stopTime="0.00" timeLoss="1234.43" rerouteNo="0" devices="tripinfo_f_0_1.2" vType="type1" speedFactor="0.94" vaporized=""/>
    <tripinfo id="f_0_1.3" depart="41.00" departLane="np16_nt1_0" departPos="30.38" departSpeed="0.00" departDelay="0.09" arrival="1365.00" arrivalLane="nt16_np8_0" arrivalPos="75.00" arrivalSpeed="20.86" duration="1324.00" routeLength="1317.50" waitingTime="1125.00" waitingCount="12" stopTime="0.00" timeLoss="1243.27" rerouteNo="0" devices="tripinfo_f_0_1.3" vType="type1" speedFactor="1.13" vaporized=""/>
    <tripinfo id="f_0_0.10" depart="137.00" departLane="np13_nt13_0" departPos="34.86" departSpeed="0.00" departDelay="0.64" arrival="1393.00" arrivalLane="nt4_np5_0" arrivalPos="75.00" arrivalSpeed="21.15" duration="1256.00" routeLength="1313.03" waitingTime="1109.00" waitingCount="13" stopTime="0.00" timeLoss="1173.08" rerouteNo="0" devices="tripinfo_f_0_0.10" vType="type1" speedFactor="1.10" vaporized=""/>
    <tripinfo id="f_0_0.11" depart="150.00" departLane="np13_nt13_0" departPos="42.49" departSpeed="0.00" departDelay="0.00" arrival="1395.00" arrivalLane="nt4_np5_0" arrivalPos="75.00" arrivalSpeed="20.89" duration="1245.00" routeLength="1305.40" waitingTime="1094.00" waitingCount="12" stopTime="0.00" timeLoss="1162.86" rerouteNo="0" devices="tripinfo_f_0_0.11" vType="type1" speedFactor="1.11" vaporized=""/>
    <tripinfo id="f_0_3.3" depart="25.00" departLane="np3_nt3_0" departPos="9.65" departSpeed="0.00" departDelay="0.45" arrival="1401.00" arrivalLane="nt14_np11_0" arrivalPos="75.00" arrivalSpeed="11.82" duration="1376.00" routeLength="941.44" waitingTime="1269.00" waitingCount="9" stopTime="0.00" timeLoss="1304.19" rerouteNo="0" devices="tripinfo_f_0_3.3" vType="type1" speedFactor="1.09" vaporized=""/>
    <tripinfo id="f_0_3.4" depart="33.00" departLane="np3_nt3_0" departPos="12.55" departSpeed="0.00" departDelay="0.27" arrival="1403.00" arrivalLane="nt14_np11_0" arrivalPos="75.00" arrivalSpeed="10.54" duration="1370.00" routeLength="938.54" waitingTime="1251.00" waitingCount="11" stopTime="0.00" timeLoss="1300.55" rerouteNo="0" devices="tripinfo_f_0_3.4" vType="type1" speedFactor="1.12" vaporized=""/>
    <tripinfo id="f_3_4.0" depart="900.00" departLane="np5_nt4_0" departPos="66.05" departSpeed="0.00" departDelay="0.00" arrival="1424.00" arrivalLane="nt13_np13_1" arrivalPos="67.80" arrivalSpeed="24.30" duration="524.00" routeLength="1281.84" waitingTime="419.00" waitingCount="6" stopTime="0.00" timeLoss="452.23" rerouteNo="0" devices="tripinfo_f_3_4.0" vType="type1" speedFactor="1.26" vaporized=""/>
    <tripinfo id="f_3_6.0" depart="900.00" departLane="np10_nt15_0" departPos="41.01" departSpeed="0.00" departDelay="0.00" arrival="1495.00" arrivalLane="nt2_np2_0" arrivalPos="64.60" arrivalSpeed="11.53" duration="595.00" routeLength="910.07" waitingTime="510.00" waitingCount="4" stopTime="0.00" timeLoss="530.96" rerouteNo="0" devices="tripinfo_f_3_6.0" vType="type1" speedFactor="1.19" vaporized=""/>
    <tripinfo id="f_0_2.11" depart="90.00" departLane="np2_nt2_0" departPos="57.38" departSpeed="0.00" departDelay="0.00" arrival="1516.00" arrivalLane="nt15_np10_0" arrivalPos="75.00" arrivalSpeed="10.13" duration="1426.00" routeLength="893.70" waitingTime="1242.00" waitingCount="13" stopTime="0.00" timeLoss="1360.88" rerouteNo="0" devices="tripinfo_f_0_2.11" vType="type1" speedFactor="1.14" vaporized=""/>
    <tripinfo id="f_0_2.12" depart="99.00" departLane="np2_nt2_0" departPos="2.69" departSpeed="0.00" departDelay="0.82" arrival="1519.00" arrivalLane="nt15_np10_0" arrivalPos="75.00" arrivalSpeed="10.00" duration="1420.00" routeLength="948.39" waitingTime="1228.00" waitingCount="15" stopTime="0.00" timeLoss="1341.65" rerouteNo="0" devices="tripinfo_f_0_2.12" vType="type1" speedFactor="1.02" vaporized=""/>
    <tripinfo id="f_0_1.4" depart="55.00" departLane="np16_nt1_0" departPos="46.53" departSpeed="0.00" departDelay="0.46" arrival="1528.00" arrivalLane="nt16_np8_0" arrivalPos="75.00" arrivalSpeed="19.18" duration="1473.00" routeLength="1301.35" waitingTime="1256.00" waitingCount="15" stopTime="0.00" timeLoss="1384.68" rerouteNo="0" devices="tripinfo_f_0_1.4" vType="type1" speedFactor="1.02" vaporized=""/>
    <tripinfo id="f_3_6.1" depart="913.00" departLane="np10_nt15_0" departPos="54.38" departSpeed="0.00" departDelay="0.00" arrival="1531.00" arrivalLane="nt2_np2_0" arrivalPos="64.60" arrivalSpeed="9.27" duration="618.00" routeLength="896.70" waitingTime="505.00" waitingCount="8" stopTime="0.00" timeLoss="537.78" rerouteNo="0" devices="tripinfo_f_3_6.1" vType="type1" speedFactor="0.94" vaporized=""/>
    <tripinfo id="f_0_3.5" depart="41.00" departLane="np3_nt3_0" departPos="21.86" departSpeed="0.00" departDelay="0.09" arrival="1582.00" arrivalLane="nt14_np11_0" arrivalPos="75.00" arrivalSpeed="9.42" duration="1541.00" routeLength="929.23" waitingTime="1413.00" waitingCount="12" stopTime="0.00" timeLoss="1464.81" rerouteNo="0" devices="tripinfo_f_0_3.5" vType="type1" speedFactor="1.02" vaporized=""/>
    <tripinfo id="f_0_3.6" depart="50.00" departLane="np3_nt3_0" departPos="4.60" departSpeed="0.00" departDelay="0.91" arrival="1584.00" arrivalLane="nt14_np11_0" arrivalPos="75.00" arrivalSpeed="11.36" duration="1534.00" routeLength="946.49" waitingTime="1391.00" waitingCount="12" stopTime="0.00" timeLoss="1466.25" rerouteNo="0" devices="tripinfo_f_0_3.6" vType="type1" speedFactor="1.18" vaporized=""/>
    <tripinfo id="f_0_2.13" depart="107.00" departLane="np2_nt2_0" departPos="42.65" departSpeed="0.00" departDelay="0.63" arrival="1588.00" arrivalLane="nt15_np10_0" arrivalPos="75.00" arrivalSpeed="9.38" duration="1481.00" routeLength="908.43" waitingTime="1298.00" waitingCount="15" stopTime="0.00" timeLoss="1396.84" rerouteNo="0" devices="tripinfo_f_0_2.13" vType="type1" speedFactor="0.91" vaporized=""/>
    <tripinfo id="f_0_2.14" depart="115.00" departLane="np2_nt2_0" departPos="43.03" departSpeed="0.00" departDelay="0.45" arrival="1591.00" arrivalLane="nt15_np10_0" arrivalPos="75.00" arrivalSpeed="7.34" duration="1476.00" routeLength="908.05" waitingTime="1289.00" waitingCount="14" stopTime="0.00" timeLoss="1387.22" rerouteNo="0" devices="tripinfo_f_0_2.14" vType="type1" speedFactor="0.86" vaporized=""/>
    <tripinfo id="f_0_0.12" depart="164.00" departLane="np13_nt13_0" departPos="62.44" departSpeed="0.00" departDelay="0.37" arrival="1745.00" arrivalLane="nt4_np5_0" arrivalPos="75.00" arrivalSpeed="16.12" duration="1581.00" routeLength="1285.45" waitingTime="1397.00" waitingCount="13" stopTime="0.00" timeLoss="1472.34" rerouteNo="0" devices="tripinfo_f_0_0.12" vType="type1" speedFactor="0.82" vaporized=""/>
    <tripinfo id="f_3_4.1" depart="922.00" departLane="np5_nt4_0" departPos="19.19" departSpeed="0.00" departDelay="0.31" arrival="1785.00" arrivalLane="nt13_np13_1" arrivalPos="67.80" arrivalSpeed="16.75" duration="863.00" routeLength="1328.70" waitingTime="726.00" waitingCount="7" stopTime="0.00" timeLoss="765.79" rerouteNo="0" devices="tripinfo_f_3_4.1" vType="type1" speedFactor="0.95" vaporized=""/>
    <tripinfo id="f_0_3.7" depart="58.00" departLane="np3_nt3_0" departPos="5.70" departSpeed="0.00" departDelay="0.73" arrival="1799.00" arrivalLane="nt14_np11_0" arrivalPos="75.00" arrivalSpeed="8.52" duration="1741.00" routeLength="945.39" waitingTime="1584.00" waitingCount="14" stopTime="0.00" timeLoss="1646.23" rerouteNo="0" devices="tripinfo_f_0_3.7" vType="type1" speedFactor="0.84" vaporized=""/>
    <tripinfo id="f_0_3.8" depart="66.00" departLane="np3_nt3_0" departPos="2.01" departSpeed="0.00" departDelay="0.54" arrival="1801.00" arrivalLane="nt14_np11_0" arrivalPos="75.00" arrivalSpeed="11.36" duration="1735.00" routeLength="949.08" waitingTime="1581.00" waitingCount="16" stopTime="0.00" timeLoss="1662.06" rerouteNo="0" devices="tripinfo_f_0_3.8" vType="type1" speedFactor="1.10" vaporized=""/>
    <tripinfo id="f_0_3.9" depart="327.00" departLane="np3_nt3_0" departPos="0.00" departSpeed="0.00" departDelay="253.36" arrival="1807.00" arrivalLane="nt14_np11_0" arrivalPos="75.00" arrivalSpeed="9.75" duration="1480.00" routeLength="951.09" waitingTime="1322.00" waitingCount="14" stopTime="0.00" timeLoss="1399.22" rerouteNo="0" devices="tripinfo_f_0_3.9" vType="type1" speedFactor="0.99" vaporized=""/>
    <tripinfo id="f_0_2.15" depart="123.00" departLane="np2_nt2_0" departPos="37.91" departSpeed="0.00" departDelay="0.27" arrival="1873.00" arrivalLane="nt15_np10_0" arrivalPos="75.00" arrivalSpeed="9.85" duration="1750.00" routeLength="913.17" waitingTime="1549.00" waitingCount="15" stopTime="0.00" timeLoss="1665.15" rerouteNo="0" devices="tripinfo_f_0_2.15" vType="type1" speedFactor="0.90" vaporized=""/>
    <tripinfo id="f_0_2.16" depart="131.00" departLane="np2_nt2_0" departPos="18.00" departSpeed="0.00" departDelay="0.09" arrival="1875.00" arrivalLane="nt15_np10_0" arrivalPos="75.00" arrivalSpeed="10.34" duration="1744.00" routeLength="933.08" waitingTime="1541.00" waitingCount="15" stopTime="0.00" timeLoss="1670.81" rerouteNo="0" devices="tripinfo_f_0_2.16" vType="type1" speedFactor="1.07" vaporized=""/>
    <tripinfo id="f_0_2.17" depart="140.00" departLane="np2_nt2_0" departPos="54.12" departSpeed="0.00" departDelay="0.91" arrival="1877.00" arrivalLane="nt15_np10_0" arrivalPos="75.00" arrivalSpeed="10.89" duration="1737.00" routeLength="896.96" waitingTime="1537.00" waitingCount="16" stopTime="0.00" timeLoss="1663.12" rerouteNo="0" devices="tripinfo_f_0_2.17" vType="type1" speedFactor="1.02" vaporized=""/>
    <tripinfo id="f_0_1.5" depart="69.00" departLane="np16_nt1_0" departPos="28.41" departSpeed="0.00" departDelay="0.82" arrival="1887.00" arrivalLane="nt16_np8_0" arrivalPos="75.00" arrivalSpeed="19.46" duration="1818.00" routeLength="1319.47" waitingTime="1579.00" waitingCount="18" stopTime="0.00" timeLoss="1726.18" rerouteNo="0" devices="tripinfo_f_0_1.5" vType="type1" speedFactor="1.01" vaporized=""/>
    <tripinfo id="f_0_1.6" depart="82.00" departLane="np16_nt1_0" departPos="40.68" departSpeed="0.00" departDelay="0.18" arrival="1910.00" arrivalLane="nt16_np8_0" arrivalPos="75.00" arrivalSpeed="12.35" duration="1828.00" routeLength="1307.20" waitingTime="1544.00" waitingCount="19" stopTime="0.00" timeLoss="1702.62" rerouteNo="0" devices="tripinfo_f_0_1.6" vType="type1" speedFactor="0.73" vaporized=""/>
    <tripinfo id="f_0_1.7" depart="96.00" departLane="np16_nt1_0" departPos="67.24" departSpeed="0.00" departDelay="0.55" arrival="1911.00" arrivalLane="nt16_np8_0" arrivalPos="75.00" arrivalSpeed="18.68" duration="1815.00" routeLength="1280.64" waitingTime="1534.00" waitingCount="20" stopTime="0.00" timeLoss="1727.78" rerouteNo="0" devices="tripinfo_f_0_1.7" vType="type1" speedFactor="1.02" vaporized=""/>
    <tripinfo id="f_0_3.10" depart="332.00" departLane="np3_nt3_0" departPos="0.00" departSpeed="0.00" departDelay="250.18" arrival="1953.00" arrivalLane="nt14_np11_0" arrivalPos="75.00" arrivalSpeed="8.20" duration="1621.00" routeLength="951.09" waitingTime="1458.00" waitingCount="15" stopTime="0.00" timeLoss="1536.28" rerouteNo="0" devices="tripinfo_f_0_3.10" vType="type1" speedFactor="0.95" vaporized=""/>
    <tripinfo id="f_0_3.11" depart="503.00" departLane="np3_nt3_0" departPos="0.00" departSpeed="0.00" departDelay="413.00" arrival="1956.00" arrivalLane="nt14_np11_0" arrivalPos="75.00" arrivalSpeed="7.36" duration="1453.00" routeLength="951.09" waitingTime="1273.00" waitingCount="14" stopTime="0.00" timeLoss="1359.42" rerouteNo="0" devices="tripinfo_f_0_3.11" vType="type1" speedFactor="0.86" vaporized=""/>
    <tripinfo id="f_0_2.18" depart="148.00" departLane="np2_nt2_0" departPos="17.72" departSpeed="0.00" departDelay="0.72" arrival="2070.00" arrivalLane="nt15_np10_0" arrivalPos="75.00" arrivalSpeed="6.72" duration="1922.00" routeLength="933.36" waitingTime="1662.00" waitingCount="17" stopTime="0.00" timeLoss="1823.34" rerouteNo="0" devices="tripinfo_f_0_2.18" vType="type1" speedFactor="0.79" vaporized=""/>
    <tripinfo id="f_0_2.19" depart="156.00" departLane="np2_nt2_0" departPos="16.28" departSpeed="0.00" departDelay="0.54" arrival="2072.00" arrivalLane="nt15_np10_0" arrivalPos="75.00" arrivalSpeed="11.31" duration="1916.00" routeLength="934.80" waitingTime="1665.00" waitingCount="15" stopTime="0.00" timeLoss="1844.94" rerouteNo="0" devices="tripinfo_f_0_2.19" vType="type1" speedFactor="1.12" vaporized=""/>
    <tripinfo id="f_0_3.12" depart="557.00" departLane="np3_nt3_0" departPos="0.28" departSpeed="0.00" departDelay="458.82" arrival="2092.00" arrivalLane="nt14_np11_0" arrivalPos="75.00" arrivalSpeed="9.32" duration="1535.00" routeLength="950.81" waitingTime="1369.00" waitingCount="17" stopTime="0.00" timeLoss="1454.52" rerouteNo="0" devices="tripinfo_f_0_3.12" vType="type1" speedFactor="0.99" vaporized=""/>
    <tripinfo id="f_0_3.13" depart="693.00" departLane="np3_nt3_0" departPos="0.00" departSpeed="0.00" departDelay="586.63" arrival="2095.00" arrivalLane="nt14_np11_0" arrivalPos="75.00" arrivalSpeed="7.80" duration="1402.00" routeLength="951.09" waitingTime="1234.00" waitingCount="15" stopTime="0.00" timeLoss="1315.06" rerouteNo="0" devices="tripinfo_f_0_3.13" vType="type1" speedFactor="0.92" vaporized=""/>
    <tripinfo id="f_0_2.20" depart="164.00" departLane="np2_nt2_0" departPos="49.49" departSpeed="0.00" departDelay="0.36" arrival="2112.00" arrivalLane="nt15_np10_0" arrivalPos="75.00" arrivalSpeed="9.56" duration="1948.00" routeLength="901.59" waitingTime="1700.00" waitingCount="17" stopTime="0.00" timeLoss="1877.30" rerouteNo="0" devices="tripinfo_f_0_2.20" vType="type1" speedFactor="1.07" vaporized=""/>
    <tripinfo id="f_3_4.2" depart="944.00" departLane="np5_nt4_0" departPos="6.51" departSpeed="0.00" departDelay="0.63" arrival="2154.00" arrivalLane="nt13_np13_1" arrivalPos="67.80" arrivalSpeed="20.23" duration="1210.00" routeLength="1341.38" waitingTime="1067.00" waitingCount="10" stopTime="0.00" timeLoss="1122.27" rerouteNo="0" devices="tripinfo_f_3_4.2" vType="type1" speedFactor="1.05" vaporized=""/>
    <tripinfo id="f_0_0.13" depart="178.00" departLane="np13_nt13_0" departPos="27.09" departSpeed="0.00" departDelay="0.73" arrival="2155.00" arrivalLane="nt4_np5_0" arrivalPos="75.00" arrivalSpeed="17.62" duration="1977.00" routeLength="1320.80" waitingTime="1795.00" waitingCount="14" stopTime="0.00" timeLoss="1885.93" rerouteNo="0" devices="tripinfo_f_0_0.13" vType="type1" speedFactor="1.00" vaporized=""/>
    <tripinfo id="f_3_4.3" depart="966.00" departLane="np5_nt4_0" departPos="62.23" departSpeed="0.00" departDelay="0.94" arrival="2158.00" arrivalLane="nt13_np13_1" arrivalPos="67.80" arrivalSpeed="20.55" duration="1192.00" routeLength="1285.66" waitingTime="1049.00" waitingCount="8" stopTime="0.00" timeLoss="1107.60" rerouteNo="0" devices="tripinfo_f_3_4.3" vType="type1" speedFactor="1.07" vaporized=""/>
    <tripinfo id="f_3_4.4" depart="987.00" departLane="np5_nt4_0" departPos="27.85" departSpeed="0.00" departDelay="0.25" arrival="2159.00" arrivalLane="nt13_np13_1" arrivalPos="67.80" arrivalSpeed="19.19" duration="1172.00" routeLength="1320.04" waitingTime="1026.00" waitingCount="11" stopTime="0.00" timeLoss="1078.48" rerouteNo="0" devices="tripinfo_f_3_4.4" vType="type1" speedFactor="0.98" vaporized=""/>
    <tripinfo id="f_3_5.2" depart="944.00" departLane="np8_nt16_0" departPos="1.09" departSpeed="0.00" departDelay="0.63" arrival="2168.00" arrivalLane="nt1_np16_0" arrivalPos="67.80" arrivalSpeed="17.20" duration="1224.00" routeLength="1346.79" waitingTime="1082.00" waitingCount="6" stopTime="0.00" timeLoss="1119.68" rerouteNo="0" devices="tripinfo_f_3_5.2" vType="type1" speedFactor="0.89" vaporized=""/>
    <tripinfo id="f_3_4.5" depart="1009.00" departLane="np5_nt4_0" departPos="15.90" departSpeed="0.00" departDelay="0.56" arrival="2169.00" arrivalLane="nt13_np13_1" arrivalPos="67.80" arrivalSpeed="22.02" duration="1160.00" routeLength="1331.99" waitingTime="1006.00" waitingCount="13" stopTime="0.00" timeLoss="1077.49" rerouteNo="0" devices="tripinfo_f_3_4.5" vType="type1" speedFactor="1.12" vaporized=""/>
    <tripinfo id="f_3_5.3" depart="966.00" departLane="np8_nt16_0" departPos="45.99" departSpeed="0.00" departDelay="0.94" arrival="2171.00" arrivalLane="nt1_np16_0" arrivalPos="67.80" arrivalSpeed="21.84" duration="1205.00" routeLength="1301.89" waitingTime="1072.00" waitingCount="8" stopTime="0.00" timeLoss="1126.25" rerouteNo="0" devices="tripinfo_f_3_5.3" vType="type1" speedFactor="1.16" vaporized=""/>
    <tripinfo id="f_3_4.6" depart="1031.00" departLane="np5_nt4_0" departPos="17.65" departSpeed="0.00" departDelay="0.88" arrival="2172.00" arrivalLane="nt13_np13_1" arrivalPos="67.80" arrivalSpeed="18.56" duration="1141.00" routeLength="1330.24" waitingTime="972.00" waitingCount="17" stopTime="0.00" timeLoss="1051.96" rerouteNo="0" devices="tripinfo_f_3_4.6" vType="type1" speedFactor="1.04" vaporized=""/>