<?xml version="1.0" encoding="UTF-8"?>

<!-- generated on 2023-08-30 17:55:16 by Eclipse SUMO libsumo Version 1.18.0
<configuration xmlns:xsi="http://www.w3.org/2001/XMLSchema-instance" xsi:noNamespaceSchemaLocation="http://sumo.dlr.de/xsd/libsumoConfiguration.xsd">

    <input>
        <net-file value="/home/stefan/RESCO/./environments/arterial4x4/arterial4x4.net.xml"/>
        <route-files value="/home/stefan/RESCO/./environments/arterial4x4/arterial4x4_6.rou.xml"/>
    </input>

    <output>
        <tripinfo-output value="/home/stefan/results/RAINBOW-tr0-arterial4x4-0-drq_norm-wait_norm/tripinfo_6.xml"/>
        <tripinfo-output.write-unfinished value="true"/>
    </output>

    <processing>
        <time-to-teleport value="-1"/>
    </processing>

    <report>
        <no-warnings value="True"/>
        <no-step-log value="True"/>
    </report>

    <random_number>
        <random value="true"/>
    </random_number>

</configuration>
-->

<tripinfos xmlns:xsi="http://www.w3.org/2001/XMLSchema-instance" xsi:noNamespaceSchemaLocation="http://sumo.dlr.de/xsd/tripinfo_file.xsd">
    <tripinfo id="f_0_3.0" depart="0.00" departLane="np3_nt3_0" departPos="48.40" departSpeed="0.00" departDelay="0.00" arrival="167.00" arrivalLane="nt14_np11_0" arrivalPos="75.00" arrivalSpeed="11.24" duration="167.00" routeLength="902.69" waitingTime="66.00" waitingCount="4" stopTime="0.00" timeLoss="98.54" rerouteNo="0" devices="tripinfo_f_0_3.0" vType="type1" speedFactor="1.11" vaporized=""/>
    <tripinfo id="f_0_3.1" depart="9.00" departLane="np3_nt3_0" departPos="32.42" departSpeed="0.00" departDelay="0.82" arrival="169.00" arrivalLane="nt14_np11_0" arrivalPos="75.00" arrivalSpeed="10.66" duration="160.00" routeLength="918.67" waitingTime="62.00" waitingCount="2" stopTime="0.00" timeLoss="84.66" rerouteNo="0" devices="tripinfo_f_0_3.1" vType="type1" speedFactor="1.02" vaporized=""/>
    <tripinfo id="f_0_2.0" depart="0.00" departLane="np2_nt2_0" departPos="63.51" departSpeed="0.00" departDelay="0.00" arrival="171.00" arrivalLane="nt15_np10_0" arrivalPos="75.00" arrivalSpeed="10.70" duration="171.00" routeLength="887.57" waitingTime="81.00" waitingCount="4" stopTime="0.00" timeLoss="105.33" rerouteNo="0" devices="tripinfo_f_0_2.0" vType="type1" speedFactor="1.13" vaporized=""/>
    <tripinfo id="f_0_2.1" depart="9.00" departLane="np2_nt2_0" departPos="36.90" departSpeed="0.00" departDelay="0.82" arrival="175.00" arrivalLane="nt15_np10_0" arrivalPos="75.00" arrivalSpeed="9.60" duration="166.00" routeLength="914.18" waitingTime="55.00" waitingCount="4" stopTime="0.00" timeLoss="80.80" rerouteNo="0" devices="tripinfo_f_0_2.1" vType="type1" speedFactor="0.89" vaporized=""/>
    <tripinfo id="f_0_0.0" depart="0.00" departLane="np13_nt13_0" departPos="43.95" departSpeed="0.00" departDelay="0.00" arrival="194.00" arrivalLane="nt4_np5_0" arrivalPos="75.00" arrivalSpeed="20.04" duration="194.00" routeLength="1303.94" waitingTime="89.00" waitingCount="3" stopTime="0.00" timeLoss="110.69" rerouteNo="0" devices="tripinfo_f_0_0.0" vType="type1" speedFactor="1.10" vaporized=""/>
    <tripinfo id="f_0_0.1" depart="14.00" departLane="np13_nt13_0" departPos="7.10" departSpeed="0.00" departDelay="0.36" arrival="204.00" arrivalLane="nt4_np5_0" arrivalPos="75.00" arrivalSpeed="20.77" duration="190.00" routeLength="1340.79" waitingTime="70.00" waitingCount="3" stopTime="0.00" timeLoss="106.89" rerouteNo="0" devices="tripinfo_f_0_0.1" vType="type1" speedFactor="1.12" vaporized=""/>
    <tripinfo id="f_0_1.0" depart="0.00" departLane="np16_nt1_0" departPos="47.91" departSpeed="0.00" departDelay="0.00" arrival="223.00" arrivalLane="nt16_np8_0" arrivalPos="75.00" arrivalSpeed="23.88" duration="223.00" routeLength="1299.97" waitingTime="98.00" waitingCount="5" stopTime="0.00" timeLoss="151.95" rerouteNo="0" devices="tripinfo_f_0_1.0" vType="type1" speedFactor="1.28" vaporized=""/>
    <tripinfo id="f_0_3.2" depart="17.00" departLane="np3_nt3_0" departPos="42.51" departSpeed="0.00" departDelay="0.64" arrival="230.00" arrivalLane="nt14_np11_0" arrivalPos="75.00" arrivalSpeed="6.63" duration="213.00" routeLength="908.58" waitingTime="90.00" waitingCount="4" stopTime="0.00" timeLoss="119.76" rerouteNo="0" devices="tripinfo_f_0_3.2" vType="type1" speedFactor="0.82" vaporized=""/>
    <tripinfo id="f_0_3.3" depart="25.00" departLane="np3_nt3_0" departPos="25.29" departSpeed="0.00" departDelay="0.45" arrival="232.00" arrivalLane="nt14_np11_0" arrivalPos="75.00" arrivalSpeed="11.00" duration="207.00" routeLength="925.80" waitingTime="84.00" waitingCount="5" stopTime="0.00" timeLoss="130.01" rerouteNo="0" devices="tripinfo_f_0_3.3" vType="type1" speedFactor="1.01" vaporized=""/>
    <tripinfo id="f_0_2.2" depart="17.00" departLane="np2_nt2_0" departPos="44.03" departSpeed="0.00" departDelay="0.64" arrival="278.00" arrivalLane="nt15_np10_0" arrivalPos="75.00" arrivalSpeed="8.15" duration="261.00" routeLength="907.05" waitingTime="147.00" waitingCount="7" stopTime="0.00" timeLoss="182.04" rerouteNo="0" devices="tripinfo_f_0_2.2" vType="type1" speedFactor="0.97" vaporized=""/>
    <tripinfo id="f_0_2.3" depart="25.00" departLane="np2_nt2_0" departPos="54.29" departSpeed="0.00" departDelay="0.45" arrival="287.00" arrivalLane="nt15_np10_0" arrivalPos="75.00" arrivalSpeed="10.21" duration="262.00" routeLength="896.79" waitingTime="153.00" waitingCount="8" stopTime="0.00" timeLoss="185.36" rerouteNo="0" devices="tripinfo_f_0_2.3" vType="type1" speedFactor="0.98" vaporized=""/>
    <tripinfo id="f_0_2.4" depart="33.00" departLane="np2_nt2_0" departPos="14.33" departSpeed="0.00" departDelay="0.27" arrival="307.00" arrivalLane="nt15_np10_0" arrivalPos="75.00" arrivalSpeed="10.22" duration="274.00" routeLength="936.75" waitingTime="156.00" waitingCount="9" stopTime="0.00" timeLoss="194.59" rerouteNo="0" devices="tripinfo_f_0_2.4" vType="type1" speedFactor="0.99" vaporized=""/>
    <tripinfo id="f_0_2.5" depart="41.00" departLane="np2_nt2_0" departPos="42.97" departSpeed="0.00" departDelay="0.09" arrival="310.00" arrivalLane="nt15_np10_0" arrivalPos="75.00" arrivalSpeed="8.30" duration="269.00" routeLength="908.11" waitingTime="135.00" waitingCount="11" stopTime="0.00" timeLoss="182.83" rerouteNo="0" devices="tripinfo_f_0_2.5" vType="type1" speedFactor="0.88" vaporized=""/>
    <tripinfo id="f_0_3.4" depart="33.00" departLane="np3_nt3_0" departPos="44.31" departSpeed="0.00" departDelay="0.27" arrival="313.00" arrivalLane="nt14_np11_0" arrivalPos="75.00" arrivalSpeed="8.33" duration="280.00" routeLength="906.78" waitingTime="157.00" waitingCount="7" stopTime="0.00" timeLoss="199.04" rerouteNo="0" devices="tripinfo_f_0_3.4" vType="type1" speedFactor="0.94" vaporized=""/>
    <tripinfo id="f_0_3.5" depart="41.00" departLane="np3_nt3_0" departPos="6.10" departSpeed="0.00" departDelay="0.09" arrival="315.00" arrivalLane="nt14_np11_0" arrivalPos="75.00" arrivalSpeed="9.47" duration="274.00" routeLength="944.99" waitingTime="140.00" waitingCount="7" stopTime="0.00" timeLoss="189.31" rerouteNo="0" devices="tripinfo_f_0_3.5" vType="type1" speedFactor="0.93" vaporized=""/>
    <tripinfo id="f_0_2.6" depart="50.00" departLane="np2_nt2_0" departPos="51.19" departSpeed="0.00" departDelay="0.91" arrival="326.00" arrivalLane="nt15_np10_0" arrivalPos="75.00" arrivalSpeed="11.59" duration="276.00" routeLength="899.89" waitingTime="107.00" waitingCount="13" stopTime="0.00" timeLoss="209.79" rerouteNo="0" devices="tripinfo_f_0_2.6" vType="type1" speedFactor="1.14" vaporized=""/>
    <tripinfo id="f_0_3.6" depart="50.00" departLane="np3_nt3_0" departPos="21.62" departSpeed="0.00" departDelay="0.91" arrival="326.00" arrivalLane="nt14_np11_0" arrivalPos="75.00" arrivalSpeed="10.46" duration="276.00" routeLength="929.47" waitingTime="152.00" waitingCount="9" stopTime="0.00" timeLoss="204.47" rerouteNo="0" devices="tripinfo_f_0_3.6" vType="type1" speedFactor="1.09" vaporized=""/>
    <tripinfo id="f_0_0.2" depart="28.00" departLane="np13_nt13_0" departPos="63.50" departSpeed="0.00" departDelay="0.73" arrival="327.00" arrivalLane="nt4_np5_0" arrivalPos="75.00" arrivalSpeed="17.18" duration="299.00" routeLength="1284.39" waitingTime="175.00" waitingCount="6" stopTime="0.00" timeLoss="206.82" rerouteNo="0" devices="tripinfo_f_0_0.2" vType="type1" speedFactor="0.98" vaporized=""/>
    <tripinfo id="f_0_3.7" depart="58.00" departLane="np3_nt3_0" departPos="18.44" departSpeed="0.00" departDelay="0.73" arrival="329.00" arrivalLane="nt14_np11_0" arrivalPos="75.00" arrivalSpeed="10.83" duration="271.00" routeLength="932.65" waitingTime="143.00" waitingCount="8" stopTime="0.00" timeLoss="192.14" rerouteNo="0" devices="tripinfo_f_0_3.7" vType="type1" speedFactor="1.00" vaporized=""/>
    <tripinfo id="f_0_2.7" depart="58.00" departLane="np2_nt2_0" departPos="46.85" departSpeed="0.00" departDelay="0.73" arrival="330.00" arrivalLane="nt15_np10_0" arrivalPos="75.00" arrivalSpeed="9.84" duration="272.00" routeLength="904.23" waitingTime="94.00" waitingCount="11" stopTime="0.00" timeLoss="188.48" rerouteNo="0" devices="tripinfo_f_0_2.7" vType="type1" speedFactor="0.91" vaporized=""/>
    <tripinfo id="f_0_1.1" depart="14.00" departLane="np16_nt1_0" departPos="56.52" departSpeed="0.00" departDelay="0.36" arrival="334.00" arrivalLane="nt16_np8_0" arrivalPos="75.00" arrivalSpeed="16.77" duration="320.00" routeLength="1291.36" waitingTime="146.00" waitingCount="15" stopTime="0.00" timeLoss="217.45" rerouteNo="0" devices="tripinfo_f_0_1.1" vType="type1" speedFactor="0.88" vaporized=""/>
    <tripinfo id="f_0_1.2" depart="28.00" departLane="np16_nt1_0" departPos="55.50" departSpeed="0.00" departDelay="0.73" arrival="335.00" arrivalLane="nt16_np8_0" arrivalPos="75.00" arrivalSpeed="18.85" duration="307.00" routeLength="1292.38" waitingTime="124.00" waitingCount="14" stopTime="0.00" timeLoss="211.98" rerouteNo="0" devices="tripinfo_f_0_1.2" vType="type1" speedFactor="0.95" vaporized=""/>
    <tripinfo id="f_0_3.8" depart="66.00" departLane="np3_nt3_0" departPos="28.49" departSpeed="0.00" departDelay="0.54" arrival="341.00" arrivalLane="nt14_np11_0" arrivalPos="75.00" arrivalSpeed="11.49" duration="275.00" routeLength="922.60" waitingTime="148.00" waitingCount="10" stopTime="0.00" timeLoss="206.09" rerouteNo="0" devices="tripinfo_f_0_3.8" vType="type1" speedFactor="1.12" vaporized=""/>
    <tripinfo id="f_0_1.3" depart="41.00" departLane="np16_nt1_0" departPos="6.47" departSpeed="0.00" departDelay="0.09" arrival="342.00" arrivalLane="nt16_np8_0" arrivalPos="75.00" arrivalSpeed="17.54" duration="301.00" routeLength="1341.41" waitingTime="129.00" waitingCount="10" stopTime="0.00" timeLoss="200.52" rerouteNo="0" devices="tripinfo_f_0_1.3" vType="type1" speedFactor="0.93" vaporized=""/>
    <tripinfo id="f_0_1.4" depart="55.00" departLane="np16_nt1_0" departPos="30.92" departSpeed="0.00" departDelay="0.46" arrival="343.00" arrivalLane="nt16_np8_0" arrivalPos="75.00" arrivalSpeed="20.85" duration="288.00" routeLength="1316.96" waitingTime="143.00" waitingCount="8" stopTime="0.00" timeLoss="207.86" rerouteNo="0" devices="tripinfo_f_0_1.4" vType="type1" speedFactor="1.14" vaporized=""/>
    <tripinfo id="f_0_3.9" depart="74.00" departLane="np3_nt3_0" departPos="4.10" departSpeed="0.00" departDelay="0.36" arrival="344.00" arrivalLane="nt14_np11_0" arrivalPos="75.00" arrivalSpeed="10.37" duration="270.00" routeLength="946.99" waitingTime="133.00" waitingCount="11" stopTime="0.00" timeLoss="191.55" rerouteNo="0" devices="tripinfo_f_0_3.9" vType="type1" speedFactor="1.03" vaporized=""/>
    <tripinfo id="f_0_3.10" depart="82.00" departLane="np3_nt3_0" departPos="0.67" departSpeed="0.00" departDelay="0.18" arrival="346.00" arrivalLane="nt14_np11_0" arrivalPos="75.00" arrivalSpeed="11.97" duration="264.00" routeLength="950.42" waitingTime="128.00" waitingCount="9" stopTime="0.00" timeLoss="191.08" rerouteNo="0" devices="tripinfo_f_0_3.10" vType="type1" speedFactor="1.10" vaporized=""/>
    <tripinfo id="f_0_3.11" depart="90.00" departLane="np3_nt3_0" departPos="2.58" departSpeed="0.00" departDelay="0.00" arrival="348.00" arrivalLane="nt14_np11_0" arrivalPos="75.00" arrivalSpeed="10.42" duration="258.00" routeLength="948.51" waitingTime="119.00" waitingCount="10" stopTime="0.00" timeLoss="179.68" rerouteNo="0" devices="tripinfo_f_0_3.11" vType="type1" speedFactor="1.01" vaporized=""/>
    <tripinfo id="f_0_2.8" depart="66.00" departLane="np2_nt2_0" departPos="30.73" departSpeed="0.00" departDelay="0.54" arrival="367.00" arrivalLane="nt15_np10_0" arrivalPos="75.00" arrivalSpeed="10.84" duration="301.00" routeLength="920.35" waitingTime="169.00" waitingCount="9" stopTime="0.00" timeLoss="228.35" rerouteNo="0" devices="tripinfo_f_0_2.8" vType="type1" speedFactor="1.07" vaporized=""/>
    <tripinfo id="f_0_2.9" depart="74.00" departLane="np2_nt2_0" departPos="23.97" departSpeed="0.00" departDelay="0.36" arrival="370.00" arrivalLane="nt15_np10_0" arrivalPos="75.00" arrivalSpeed="7.95" duration="296.00" routeLength="927.11" waitingTime="154.00" waitingCount="7" stopTime="0.00" timeLoss="209.96" rerouteNo="0" devices="tripinfo_f_0_2.9" vType="type1" speedFactor="0.90" vaporized=""/>
    <tripinfo id="f_0_0.3" depart="41.00" departLane="np13_nt13_0" departPos="40.28" departSpeed="0.00" departDelay="0.09" arrival="378.00" arrivalLane="nt4_np5_0" arrivalPos="75.00" arrivalSpeed="16.00" duration="337.00" routeLength="1307.61" waitingTime="195.00" waitingCount="7" stopTime="0.00" timeLoss="232.97" rerouteNo="0" devices="tripinfo_f_0_0.3" vType="type1" speedFactor="0.87" vaporized=""/>
    <tripinfo id="f_0_0.4" depart="55.00" departLane="np13_nt13_0" departPos="46.01" departSpeed="0.00" departDelay="0.46" arrival="386.00" arrivalLane="nt4_np5_0" arrivalPos="75.00" arrivalSpeed="19.45" duration="331.00" routeLength="1301.88" waitingTime="196.00" waitingCount="8" stopTime="0.00" timeLoss="238.37" rerouteNo="0" devices="tripinfo_f_0_0.4" vType="type1" speedFactor="0.98" vaporized=""/>
    <tripinfo id="f_0_0.5" depart="69.00" departLane="np13_nt13_0" departPos="57.07" departSpeed="0.00" departDelay="0.82" arrival="403.00" arrivalLane="nt4_np5_0" arrivalPos="75.00" arrivalSpeed="18.85" duration="334.00" routeLength="1290.82" waitingTime="191.00" waitingCount="13" stopTime="0.00" timeLoss="246.48" rerouteNo="0" devices="tripinfo_f_0_0.5" vType="type1" speedFactor="1.03" vaporized=""/>
    <tripinfo id="f_0_0.6" depart="82.00" departLane="np13_nt13_0" departPos="4.37" departSpeed="0.00" departDelay="0.18" arrival="405.00" arrivalLane="nt4_np5_0" arrivalPos="75.00" arrivalSpeed="17.57" duration="323.00" routeLength="1343.52" waitingTime="162.00" waitingCount="13" stopTime="0.00" timeLoss="228.29" rerouteNo="0" devices="tripinfo_f_0_0.6" vType="type1" speedFactor="0.98" vaporized=""/>
    <tripinfo id="f_0_0.7" depart="96.00" departLane="np13_nt13_0" departPos="53.92" departSpeed="0.00" departDelay="0.55" arrival="407.00" arrivalLane="nt4_np5_0" arrivalPos="75.00" arrivalSpeed="20.83" duration="311.00" routeLength="1293.97" waitingTime="153.00" waitingCount="13" stopTime="0.00" timeLoss="232.41" rerouteNo="0" devices="tripinfo_f_0_0.7" vType="type1" speedFactor="1.16" vaporized=""/>
    <tripinfo id="f_0_0.8" depart="110.00" departLane="np13_nt13_0" departPos="27.79" departSpeed="0.00" departDelay="0.91" arrival="409.00" arrivalLane="nt4_np5_0" arrivalPos="75.00" arrivalSpeed="18.64" duration="299.00" routeLength="1320.10" waitingTime="121.00" waitingCount="10" stopTime="0.00" timeLoss="200.78" rerouteNo="0" devices="tripinfo_f_0_0.8" vType="type1" speedFactor="0.94" vaporized=""/>
    <tripinfo id="f_0_3.12" depart="99.00" departLane="np3_nt3_0" departPos="14.80" departSpeed="0.00" departDelay="0.82" arrival="411.00" arrivalLane="nt14_np11_0" arrivalPos="75.00" arrivalSpeed="10.15" duration="312.00" routeLength="936.29" waitingTime="174.00" waitingCount="11" stopTime="0.00" timeLoss="242.83" rerouteNo="0" devices="tripinfo_f_0_3.12" vType="type1" speedFactor="1.13" vaporized=""/>
    <tripinfo id="f_0_1.11" depart="150.00" departLane="np16_nt1_0" departPos="30.11" departSpeed="0.00" departDelay="0.00" arrival="438.00" arrivalLane="nt16_np8_0" arrivalPos="75.00" arrivalSpeed="20.85" duration="288.00" routeLength="1317.77" waitingTime="148.00" waitingCount="8" stopTime="0.00" timeLoss="202.30" rerouteNo="0" devices="tripinfo_f_0_1.11" vType="type1" speedFactor="1.08" vaporized=""/>
    <tripinfo id="f_0_0.9" depart="123.00" departLane="np13_nt13_0" departPos="23.09" departSpeed="0.00" departDelay="0.28" arrival="440.00" arrivalLane="nt4_np5_0" arrivalPos="75.00" arrivalSpeed="19.81" duration="317.00" routeLength="1324.80" waitingTime="152.00" waitingCount="11" stopTime="0.00" timeLoss="228.59" rerouteNo="0" devices="tripinfo_f_0_0.9" vType="type1" speedFactor="1.04" vaporized=""/>
    <tripinfo id="f_0_1.5" depart="69.00" departLane="np16_nt1_0" departPos="42.13" departSpeed="0.00" departDelay="0.82" arrival="448.00" arrivalLane="nt16_np8_0" arrivalPos="75.00" arrivalSpeed="18.96" duration="379.00" routeLength="1305.75" waitingTime="206.00" waitingCount="11" stopTime="0.00" timeLoss="282.68" rerouteNo="0" devices="tripinfo_f_0_1.5" vType="type1" speedFactor="0.95" vaporized=""/>
    <tripinfo id="f_0_3.13" depart="107.00" departLane="np3_nt3_0" departPos="12.08" departSpeed="0.00" departDelay="0.63" arrival="449.00" arrivalLane="nt14_np11_0" arrivalPos="75.00" arrivalSpeed="8.42" duration="342.00" routeLength="939.01" waitingTime="182.00" waitingCount="10" stopTime="0.00" timeLoss="250.18" rerouteNo="0" devices="tripinfo_f_0_3.13" vType="type1" speedFactor="0.86" vaporized=""/>
    <tripinfo id="f_0_3.14" depart="115.00" departLane="np3_nt3_0" departPos="15.44" departSpeed="0.00" departDelay="0.45" arrival="450.00" arrivalLane="nt14_np11_0" arrivalPos="75.00" arrivalSpeed="8.44" duration="335.00" routeLength="935.65" waitingTime="180.00" waitingCount="11" stopTime="0.00" timeLoss="252.66" rerouteNo="0" devices="tripinfo_f_0_3.14" vType="type1" speedFactor="0.95" vaporized=""/>
    <tripinfo id="f_0_2.10" depart="82.00" departLane="np2_nt2_0" departPos="22.33" departSpeed="0.00" departDelay="0.18" arrival="453.00" arrivalLane="nt15_np10_0" arrivalPos="75.00" arrivalSpeed="9.31" duration="371.00" routeLength="928.75" waitingTime="206.00" waitingCount="10" stopTime="0.00" timeLoss="285.38" rerouteNo="0" devices="tripinfo_f_0_2.10" vType="type1" speedFactor="0.92" vaporized=""/>
    <tripinfo id="f_0_0.10" depart="137.00" departLane="np13_nt13_0" departPos="11.86" departSpeed="0.00" departDelay="0.64" arrival="463.00" arrivalLane="nt4_np5_0" arrivalPos="75.00" arrivalSpeed="17.30" duration="326.00" routeLength="1336.03" waitingTime="141.00" waitingCount="13" stopTime="0.00" timeLoss="228.20" rerouteNo="0" devices="tripinfo_f_0_0.10" vType="type1" speedFactor="0.94" vaporized=""/>
    <tripinfo id="f_0_0.11" depart="150.00" departLane="np13_nt13_0" departPos="56.59" departSpeed="0.00" departDelay="0.00" arrival="465.00" arrivalLane="nt4_np5_0" arrivalPos="75.00" arrivalSpeed="21.19" duration="315.00" routeLength="1291.30" waitingTime="142.00" waitingCount="13" stopTime="0.00" timeLoss="233.60" rerouteNo="0" devices="tripinfo_f_0_0.11" vType="type1" speedFactor="1.11" vaporized=""/>
    <tripinfo id="f_0_1.12" depart="164.00" departLane="np16_nt1_0" departPos="17.04" departSpeed="0.00" departDelay="0.37" arrival="465.00" arrivalLane="nt16_np8_0" arrivalPos="75.00" arrivalSpeed="19.53" duration="301.00" routeLength="1330.84" waitingTime="163.00" waitingCount="9" stopTime="0.00" timeLoss="210.14" rerouteNo="0" devices="tripinfo_f_0_1.12" vType="type1" speedFactor="1.02" vaporized=""/>
    <tripinfo id="f_0_3.15" depart="123.00" departLane="np3_nt3_0" departPos="0.37" departSpeed="0.00" departDelay="0.27" arrival="466.00" arrivalLane="nt14_np11_0" arrivalPos="75.00" arrivalSpeed="9.87" duration="343.00" routeLength="950.72" waitingTime="178.00" waitingCount="11" stopTime="0.00" timeLoss="271.23" rerouteNo="0" devices="tripinfo_f_0_3.15" vType="type1" speedFactor="1.11" vaporized=""/>
    <tripinfo id="f_0_2.11" depart="90.00" departLane="np2_nt2_0" departPos="26.75" departSpeed="0.00" departDelay="0.00" arrival="467.00" arrivalLane="nt15_np10_0" arrivalPos="75.00" arrivalSpeed="9.04" duration="377.00" routeLength="924.33" waitingTime="217.00" waitingCount="10" stopTime="0.00" timeLoss="298.38" rerouteNo="0" devices="tripinfo_f_0_2.11" vType="type1" speedFactor="0.99" vaporized=""/>
    <tripinfo id="f_0_0.12" depart="164.00" departLane="np13_nt13_0" departPos="28.45" departSpeed="0.00" departDelay="0.37" arrival="467.00" arrivalLane="nt4_np5_0" arrivalPos="75.00" arrivalSpeed="19.41" duration="303.00" routeLength="1319.44" waitingTime="139.00" waitingCount="9" stopTime="0.00" timeLoss="212.07" rerouteNo="0" devices="tripinfo_f_0_0.12" vType="type1" speedFactor="1.01" vaporized=""/>
    <tripinfo id="f_0_0.13" depart="178.00" departLane="np13_nt13_0" departPos="3.76" departSpeed="0.00" departDelay="0.73" arrival="469.00" arrivalLane="nt4_np5_0" arrivalPos="75.00" arrivalSpeed="16.55" duration="291.00" routeLength="1344.13" waitingTime="118.00" waitingCount="9" stopTime="0.00" timeLoss="184.75" rerouteNo="0" devices="tripinfo_f_0_0.13" vType="type1" speedFactor="0.88" vaporized=""/>
    <tripinfo id="f_0_0.14" depart="191.00" departLane="np13_nt13_0" departPos="33.93" departSpeed="0.00" departDelay="0.10" arrival="470.00" arrivalLane="nt4_np5_0" arrivalPos="75.00" arrivalSpeed="20.15" duration="279.00" routeLength="1313.96" waitingTime="123.00" waitingCount="10" stopTime="0.00" timeLoss="195.28" rerouteNo="0" devices="tripinfo_f_0_0.14" vType="type1" speedFactor="1.09" vaporized=""/>
    <tripinfo id="f_0_0.15" depart="205.00" departLane="np13_nt13_0" departPos="50.19" departSpeed="0.00" departDelay="0.46" arrival="472.00" arrivalLane="nt4_np5_0" arrivalPos="75.00" arrivalSpeed="18.22" duration="267.00" routeLength="1297.70" waitingTime="126.00" waitingCount="7" stopTime="0.00" timeLoss="172.39" rerouteNo="0" devices="tripinfo_f_0_0.15" vType="type1" speedFactor="0.96" vaporized=""/>
    <tripinfo id="f_0_3.16" depart="131.00" departLane="np3_nt3_0" departPos="3.61" departSpeed="0.00" departDelay="0.09" arrival="473.00" arrivalLane="nt14_np11_0" arrivalPos="75.00" arrivalSpeed="7.48" duration="342.00" routeLength="947.48" waitingTime="157.00" waitingCount="10" stopTime="0.00" timeLoss="238.87" rerouteNo="0" devices="tripinfo_f_0_3.16" vType="type1" speedFactor="0.77" vaporized=""/>
    <tripinfo id="f_0_3.17" depart="140.00" departLane="np3_nt3_0" departPos="0.50" departSpeed="0.00" departDelay="0.91" arrival="481.00" arrivalLane="nt14_np11_0" arrivalPos="75.00" arrivalSpeed="11.01" duration="341.00" routeLength="950.59" waitingTime="180.00" waitingCount="14" stopTime="0.00" timeLoss="272.45" rerouteNo="0" devices="tripinfo_f_0_3.17" vType="type1" speedFactor="1.17" vaporized=""/>
    <tripinfo id="f_0_3.18" depart="148.00" departLane="np3_nt3_0" departPos="22.32" departSpeed="0.00" departDelay="0.72" arrival="483.00" arrivalLane="nt14_np11_0" arrivalPos="75.00" arrivalSpeed="9.83" duration="335.00" routeLength="928.77" waitingTime="169.00" waitingCount="12" stopTime="0.00" timeLoss="259.15" rerouteNo="0" devices="tripinfo_f_0_3.18" vType="type1" speedFactor="1.03" vaporized=""/>
    <tripinfo id="f_0_1.13" depart="178.00" departLane="np16_nt1_0" departPos="16.42" departSpeed="0.00" departDelay="0.73" arrival="484.00" arrivalLane="nt16_np8_0" arrivalPos="75.00" arrivalSpeed="16.51" duration="306.00" routeLength="1331.46" waitingTime="156.00" waitingCount="12" stopTime="0.00" timeLoss="208.73" rerouteNo="0" devices="tripinfo_f_0_1.13" vType="type1" speedFactor="0.95" vaporized=""/>
    <tripinfo id="f_0_2.12" depart="99.00" departLane="np2_nt2_0" departPos="39.89" departSpeed="0.00" departDelay="0.82" arrival="487.00" arrivalLane="nt15_np10_0" arrivalPos="75.00" arrivalSpeed="9.99" duration="388.00" routeLength="911.19" waitingTime="217.00" waitingCount="15" stopTime="0.00" timeLoss="318.15" rerouteNo="0" devices="tripinfo_f_0_2.12" vType="type1" speedFactor="1.09" vaporized=""/>
    <tripinfo id="f_0_2.24" depart="197.00" departLane="np2_nt2_0" departPos="3.94" departSpeed="0.00" departDelay="0.63" arrival="490.00" arrivalLane="nt15_np10_0" arrivalPos="75.00" arrivalSpeed="8.87" duration="293.00" routeLength="947.14" waitingTime="148.00" waitingCount="14" stopTime="0.00" timeLoss="210.97" rerouteNo="0" devices="tripinfo_f_0_2.24" vType="type1" speedFactor="0.98" vaporized=""/>
    <tripinfo id="f_0_3.19" depart="156.00" departLane="np3_nt3_0" departPos="34.01" departSpeed="0.00" departDelay="0.54" arrival="494.00" arrivalLane="nt14_np11_0" arrivalPos="75.00" arrivalSpeed="8.42" duration="338.00" routeLength="917.08" waitingTime="162.00" waitingCount="13" stopTime="0.00" timeLoss="259.06" rerouteNo="0" devices="tripinfo_f_0_3.19" vType="type1" speedFactor="0.97" vaporized=""/>
    <tripinfo id="f_0_0.16" depart="219.00" departLane="np13_nt13_0" departPos="40.82" departSpeed="0.00" departDelay="0.82" arrival="498.00" arrivalLane="nt4_np5_0" arrivalPos="75.00" arrivalSpeed="20.51" duration="279.00" routeLength="1307.07" waitingTime="143.00" waitingCount="9" stopTime="0.00" timeLoss="197.11" rerouteNo="0" devices="tripinfo_f_0_0.16" vType="type1" speedFactor="1.11" vaporized=""/>
    <tripinfo id="f_0_1.6" depart="82.00" departLane="np16_nt1_0" departPos="45.17" departSpeed="0.00" departDelay="0.18" arrival="502.00" arrivalLane="nt16_np8_0" arrivalPos="75.00" arrivalSpeed="18.02" duration="420.00" routeLength="1302.71" waitingTime="198.00" waitingCount="16" stopTime="0.00" timeLoss="323.22" rerouteNo="0" devices="tripinfo_f_0_1.6" vType="type1" speedFactor="0.94" vaporized=""/>
    <tripinfo id="f_0_2.25" depart="205.00" departLane="np2_nt2_0" departPos="24.33" departSpeed="0.00" departDelay="0.45" arrival="517.00" arrivalLane="nt15_np10_0" arrivalPos="75.00" arrivalSpeed="11.22" duration="312.00" routeLength="926.75" waitingTime="172.00" waitingCount="12" stopTime="0.00" timeLoss="236.43" rerouteNo="0" devices="tripinfo_f_0_2.25" vType="type1" speedFactor="1.03" vaporized=""/>
    <tripinfo id="f_0_3.20" depart="164.00" departLane="np3_nt3_0" departPos="38.61" departSpeed="0.00" departDelay="0.36" arrival="537.00" arrivalLane="nt14_np11_0" arrivalPos="75.00" arrivalSpeed="8.53" duration="373.00" routeLength="912.48" waitingTime="205.00" waitingCount="12" stopTime="0.00" timeLoss="295.38" rerouteNo="0" devices="tripinfo_f_0_3.20" vType="type1" speedFactor="0.98" vaporized=""/>
    <tripinfo id="f_0_3.21" depart="172.00" departLane="np3_nt3_0" departPos="22.50" departSpeed="0.00" departDelay="0.18" arrival="546.00" arrivalLane="nt14_np11_0" arrivalPos="75.00" arrivalSpeed="11.32" duration="374.00" routeLength="928.59" waitingTime="205.00" waitingCount="14" stopTime="0.00" timeLoss="307.01" rerouteNo="0" devices="tripinfo_f_0_3.21" vType="type1" speedFactor="1.17" vaporized=""/>
    <tripinfo id="f_0_3.22" depart="180.00" departLane="np3_nt3_0" departPos="19.00" departSpeed="0.00" departDelay="0.00" arrival="548.00" arrivalLane="nt14_np11_0" arrivalPos="75.00" arrivalSpeed="10.22" duration="368.00" routeLength="932.09" waitingTime="195.00" waitingCount="13" stopTime="0.00" timeLoss="295.30" rerouteNo="0" devices="tripinfo_f_0_3.22" vType="type1" speedFactor="1.07" vaporized=""/>
    <tripinfo id="f_0_3.23" depart="189.00" departLane="np3_nt3_0" departPos="57.41" departSpeed="0.00" departDelay="0.81" arrival="567.00" arrivalLane="nt14_np11_0" arrivalPos="75.00" arrivalSpeed="9.55" duration="378.00" routeLength="893.68" waitingTime="207.00" waitingCount="15" stopTime="0.00" timeLoss="302.87" rerouteNo="0" devices="tripinfo_f_0_3.23" vType="type1" speedFactor="1.00" vaporized=""/>
    <tripinfo id="f_0_3.24" depart="197.00" departLane="np3_nt3_0" departPos="14.39" departSpeed="0.00" departDelay="0.63" arrival="582.00" arrivalLane="nt14_np11_0" arrivalPos="75.00" arrivalSpeed="9.84" duration="385.00" routeLength="936.70" waitingTime="214.00" waitingCount="13" stopTime="0.00" timeLoss="308.57" rerouteNo="0" devices="tripinfo_f_0_3.24" vType="type1" speedFactor="1.04" vaporized=""/>
    <tripinfo id="f_0_3.25" depart="205.00" departLane="np3_nt3_0" departPos="3.98" departSpeed="0.00" departDelay="0.45" arrival="584.00" arrivalLane="nt14_np11_0" arrivalPos="75.00" arrivalSpeed="9.93" duration="379.00" routeLength="947.11" waitingTime="201.00" waitingCount="15" stopTime="0.00" timeLoss="302.81" rerouteNo="0" devices="tripinfo_f_0_3.25" vType="type1" speedFactor="1.04" vaporized=""/>
    <tripinfo id="f_0_3.26" depart="213.00" departLane="np3_nt3_0" departPos="51.37" departSpeed="0.00" departDelay="0.27" arrival="587.00" arrivalLane="nt14_np11_0" arrivalPos="75.00" arrivalSpeed="9.44" duration="374.00" routeLength="899.72" waitingTime="196.00" waitingCount="15" stopTime="0.00" timeLoss="294.52" rerouteNo="0" devices="tripinfo_f_0_3.26" vType="type1" speedFactor="0.95" vaporized=""/>
    <tripinfo id="f_0_3.27" depart="221.00" departLane="np3_nt3_0" departPos="24.38" departSpeed="0.00" departDelay="0.09" arrival="589.00" arrivalLane="nt14_np11_0" arrivalPos="75.00" arrivalSpeed="9.78" duration="368.00" routeLength="926.71" waitingTime="196.00" waitingCount="11" stopTime="0.00" timeLoss="287.58" rerouteNo="0" devices="tripinfo_f_0_3.27" vType="type1" speedFactor="0.97" vaporized=""/>
    <tripinfo id="f_0_1.7" depart="96.00" departLane="np16_nt1_0" departPos="5.81" departSpeed="0.00" departDelay="0.55" arrival="612.00" arrivalLane="nt16_np8_0" arrivalPos="75.00" arrivalSpeed="18.17" duration="516.00" routeLength="1342.07" waitingTime="310.00" waitingCount="11" stopTime="0.00" timeLoss="421.18" rerouteNo="0" devices="tripinfo_f_0_1.7" vType="type1" speedFactor="0.98" vaporized=""/>