<?xml version="1.0" encoding="UTF-8"?>

<!-- generated on 2023-08-30 18:37:50 by Eclipse SUMO libsumo Version 1.18.0
<configuration xmlns:xsi="http://www.w3.org/2001/XMLSchema-instance" xsi:noNamespaceSchemaLocation="http://sumo.dlr.de/xsd/libsumoConfiguration.xsd">

    <input>
        <net-file value="/home/stefan/RESCO/./environments/arterial4x4/arterial4x4.net.xml"/>
        <route-files value="/home/stefan/RESCO/./environments/arterial4x4/arterial4x4_39.rou.xml"/>
    </input>

    <output>
        <tripinfo-output value="/home/stefan/results/RAINBOW-tr0-arterial4x4-0-drq_norm-wait_norm/tripinfo_39.xml"/>
        <tripinfo-output.write-unfinished value="true"/>
    </output>

    <processing>
        <time-to-teleport value="-1"/>
    </processing>

    <report>
        <no-warnings value="True"/>
        <no-step-log value="True"/>
    </report>

    <random_number>
        <random value="true"/>
    </random_number>

</configuration>
-->

<tripinfos xmlns:xsi="http://www.w3.org/2001/XMLSchema-instance" xsi:noNamespaceSchemaLocation="http://sumo.dlr.de/xsd/tripinfo_file.xsd">
    <tripinfo id="f_0_2.0" depart="0.00" departLane="np2_nt2_0" departPos="46.74" departSpeed="0.00" departDelay="0.00" arrival="161.00" arrivalLane="nt15_np10_0" arrivalPos="75.00" arrivalSpeed="10.37" duration="161.00" routeLength="904.34" waitingTime="70.00" waitingCount="3" stopTime="0.00" timeLoss="93.26" rerouteNo="0" devices="tripinfo_f_0_2.0" vType="type1" speedFactor="1.12" vaporized=""/>
    <tripinfo id="f_0_3.0" depart="0.00" departLane="np3_nt3_0" departPos="23.05" departSpeed="0.00" departDelay="0.00" arrival="202.00" arrivalLane="nt14_np11_0" arrivalPos="75.00" arrivalSpeed="10.19" duration="202.00" routeLength="928.04" waitingTime="100.00" waitingCount="5" stopTime="0.00" timeLoss="126.14" rerouteNo="0" devices="tripinfo_f_0_3.0" vType="type1" speedFactor="1.03" vaporized=""/>
    <tripinfo id="f_0_3.1" depart="9.00" departLane="np3_nt3_0" departPos="8.87" departSpeed="0.00" departDelay="0.82" arrival="238.00" arrivalLane="nt14_np11_0" arrivalPos="75.00" arrivalSpeed="9.17" duration="229.00" routeLength="942.22" waitingTime="114.00" waitingCount="5" stopTime="0.00" timeLoss="145.01" rerouteNo="0" devices="tripinfo_f_0_3.1" vType="type1" speedFactor="0.94" vaporized=""/>
    <tripinfo id="f_0_2.1" depart="9.00" departLane="np2_nt2_0" departPos="10.73" departSpeed="0.00" departDelay="0.82" arrival="257.00" arrivalLane="nt15_np10_0" arrivalPos="75.00" arrivalSpeed="9.68" duration="248.00" routeLength="940.35" waitingTime="147.00" waitingCount="5" stopTime="0.00" timeLoss="172.12" rerouteNo="0" devices="tripinfo_f_0_2.1" vType="type1" speedFactor="1.04" vaporized=""/>
    <tripinfo id="f_0_3.2" depart="17.00" departLane="np3_nt3_0" departPos="7.98" departSpeed="0.00" departDelay="0.64" arrival="257.00" arrivalLane="nt14_np11_0" arrivalPos="75.00" arrivalSpeed="9.11" duration="240.00" routeLength="943.11" waitingTime="116.00" waitingCount="8" stopTime="0.00" timeLoss="162.24" rerouteNo="0" devices="tripinfo_f_0_3.2" vType="type1" speedFactor="1.01" vaporized=""/>
    <tripinfo id="f_0_2.2" depart="17.00" departLane="np2_nt2_0" departPos="49.22" departSpeed="0.00" departDelay="0.64" arrival="259.00" arrivalLane="nt15_np10_0" arrivalPos="75.00" arrivalSpeed="9.95" duration="242.00" routeLength="901.86" waitingTime="135.00" waitingCount="5" stopTime="0.00" timeLoss="169.84" rerouteNo="0" devices="tripinfo_f_0_2.2" vType="type1" speedFactor="1.05" vaporized=""/>
    <tripinfo id="f_0_2.3" depart="25.00" departLane="np2_nt2_0" departPos="55.33" departSpeed="0.00" departDelay="0.45" arrival="291.00" arrivalLane="nt15_np10_0" arrivalPos="75.00" arrivalSpeed="10.63" duration="266.00" routeLength="895.75" waitingTime="166.00" waitingCount="5" stopTime="0.00" timeLoss="197.21" rerouteNo="0" devices="tripinfo_f_0_2.3" vType="type1" speedFactor="1.09" vaporized=""/>
    <tripinfo id="f_0_1.0" depart="0.00" departLane="np16_nt1_0" departPos="2.19" departSpeed="0.00" departDelay="0.00" arrival="309.00" arrivalLane="nt16_np8_0" arrivalPos="75.00" arrivalSpeed="17.66" duration="309.00" routeLength="1345.69" waitingTime="172.00" waitingCount="7" stopTime="0.00" timeLoss="213.58" rerouteNo="0" devices="tripinfo_f_0_1.0" vType="type1" speedFactor="0.98" vaporized=""/>
    <tripinfo id="f_0_0.0" depart="0.00" departLane="np13_nt13_0" departPos="46.50" departSpeed="0.00" departDelay="0.00" arrival="333.00" arrivalLane="nt4_np5_0" arrivalPos="75.00" arrivalSpeed="21.79" duration="333.00" routeLength="1301.39" waitingTime="216.00" waitingCount="6" stopTime="0.00" timeLoss="252.76" rerouteNo="0" devices="tripinfo_f_0_0.0" vType="type1" speedFactor="1.13" vaporized=""/>
    <tripinfo id="f_0_3.3" depart="25.00" departLane="np3_nt3_0" departPos="6.87" departSpeed="0.00" departDelay="0.45" arrival="342.00" arrivalLane="nt14_np11_0" arrivalPos="75.00" arrivalSpeed="10.87" duration="317.00" routeLength="944.22" waitingTime="205.00" waitingCount="8" stopTime="0.00" timeLoss="243.52" rerouteNo="0" devices="tripinfo_f_0_3.3" vType="type1" speedFactor="1.08" vaporized=""/>
    <tripinfo id="f_0_2.4" depart="33.00" departLane="np2_nt2_0" departPos="30.70" departSpeed="0.00" departDelay="0.27" arrival="376.00" arrivalLane="nt15_np10_0" arrivalPos="75.00" arrivalSpeed="11.41" duration="343.00" routeLength="920.38" waitingTime="229.00" waitingCount="6" stopTime="0.00" timeLoss="270.34" rerouteNo="0" devices="tripinfo_f_0_2.4" vType="type1" speedFactor="1.06" vaporized=""/>
    <tripinfo id="f_0_1.1" depart="14.00" departLane="np16_nt1_0" departPos="32.00" departSpeed="0.00" departDelay="0.36" arrival="408.00" arrivalLane="nt16_np8_0" arrivalPos="75.00" arrivalSpeed="21.15" duration="394.00" routeLength="1315.88" waitingTime="265.00" waitingCount="9" stopTime="0.00" timeLoss="312.93" rerouteNo="0" devices="tripinfo_f_0_1.1" vType="type1" speedFactor="1.13" vaporized=""/>
    <tripinfo id="f_0_2.5" depart="41.00" departLane="np2_nt2_0" departPos="50.73" departSpeed="0.00" departDelay="0.09" arrival="412.00" arrivalLane="nt15_np10_0" arrivalPos="75.00" arrivalSpeed="10.20" duration="371.00" routeLength="900.35" waitingTime="249.00" waitingCount="8" stopTime="0.00" timeLoss="298.80" rerouteNo="0" devices="tripinfo_f_0_2.5" vType="type1" speedFactor="1.05" vaporized=""/>
    <tripinfo id="f_0_3.4" depart="33.00" departLane="np3_nt3_0" departPos="0.00" departSpeed="0.00" departDelay="0.27" arrival="427.00" arrivalLane="nt14_np11_0" arrivalPos="75.00" arrivalSpeed="11.43" duration="394.00" routeLength="951.09" waitingTime="275.00" waitingCount="8" stopTime="0.00" timeLoss="318.97" rerouteNo="0" devices="tripinfo_f_0_3.4" vType="type1" speedFactor="1.06" vaporized=""/>
    <tripinfo id="f_0_3.5" depart="41.00" departLane="np3_nt3_0" departPos="18.63" departSpeed="0.00" departDelay="0.09" arrival="464.00" arrivalLane="nt14_np11_0" arrivalPos="75.00" arrivalSpeed="8.92" duration="423.00" routeLength="932.46" waitingTime="287.00" waitingCount="10" stopTime="0.00" timeLoss="334.26" rerouteNo="0" devices="tripinfo_f_0_3.5" vType="type1" speedFactor="0.88" vaporized=""/>
    <tripinfo id="f_0_0.1" depart="14.00" departLane="np13_nt13_0" departPos="57.98" departSpeed="0.00" departDelay="0.36" arrival="475.00" arrivalLane="nt4_np5_0" arrivalPos="75.00" arrivalSpeed="14.67" duration="461.00" routeLength="1289.91" waitingTime="304.00" waitingCount="6" stopTime="0.00" timeLoss="339.93" rerouteNo="0" devices="tripinfo_f_0_0.1" vType="type1" speedFactor="0.75" vaporized=""/>
    <tripinfo id="f_0_3.6" depart="50.00" departLane="np3_nt3_0" departPos="14.84" departSpeed="0.00" departDelay="0.91" arrival="476.00" arrivalLane="nt14_np11_0" arrivalPos="75.00" arrivalSpeed="6.77" duration="426.00" routeLength="936.25" waitingTime="266.00" waitingCount="11" stopTime="0.00" timeLoss="323.37" rerouteNo="0" devices="tripinfo_f_0_3.6" vType="type1" speedFactor="0.77" vaporized=""/>
    <tripinfo id="f_0_0.2" depart="28.00" departLane="np13_nt13_0" departPos="48.31" departSpeed="0.00" departDelay="0.73" arrival="493.00" arrivalLane="nt4_np5_0" arrivalPos="75.00" arrivalSpeed="20.85" duration="465.00" routeLength="1299.58" waitingTime="302.00" waitingCount="10" stopTime="0.00" timeLoss="381.52" rerouteNo="0" devices="tripinfo_f_0_0.2" vType="type1" speedFactor="1.09" vaporized=""/>
    <tripinfo id="f_0_0.3" depart="41.00" departLane="np13_nt13_0" departPos="58.76" departSpeed="0.00" departDelay="0.09" arrival="495.00" arrivalLane="nt4_np5_0" arrivalPos="75.00" arrivalSpeed="16.87" duration="454.00" routeLength="1289.13" waitingTime="300.00" waitingCount="10" stopTime="0.00" timeLoss="361.21" rerouteNo="0" devices="tripinfo_f_0_0.3" vType="type1" speedFactor="0.97" vaporized=""/>
    <tripinfo id="f_0_0.4" depart="55.00" departLane="np13_nt13_0" departPos="19.06" departSpeed="0.00" departDelay="0.46" arrival="497.00" arrivalLane="nt4_np5_0" arrivalPos="75.00" arrivalSpeed="19.38" duration="442.00" routeLength="1328.83" waitingTime="289.00" waitingCount="10" stopTime="0.00" timeLoss="352.84" rerouteNo="0" devices="tripinfo_f_0_0.4" vType="type1" speedFactor="1.04" vaporized=""/>
    <tripinfo id="f_0_0.5" depart="69.00" departLane="np13_nt13_0" departPos="27.45" departSpeed="0.00" departDelay="0.82" arrival="499.00" arrivalLane="nt4_np5_0" arrivalPos="75.00" arrivalSpeed="19.83" duration="430.00" routeLength="1320.44" waitingTime="288.00" waitingCount="9" stopTime="0.00" timeLoss="344.81" rerouteNo="0" devices="tripinfo_f_0_0.5" vType="type1" speedFactor="1.08" vaporized=""/>
    <tripinfo id="f_0_3.7" depart="58.00" departLane="np3_nt3_0" departPos="0.00" departSpeed="0.00" departDelay="0.73" arrival="528.00" arrivalLane="nt14_np11_0" arrivalPos="75.00" arrivalSpeed="9.73" duration="470.00" routeLength="951.09" waitingTime="323.00" waitingCount="11" stopTime="0.00" timeLoss="384.05" rerouteNo="0" devices="tripinfo_f_0_3.7" vType="type1" speedFactor="0.93" vaporized=""/>
    <tripinfo id="f_0_2.6" depart="50.00" departLane="np2_nt2_0" departPos="25.24" departSpeed="0.00" departDelay="0.91" arrival="538.00" arrivalLane="nt15_np10_0" arrivalPos="75.00" arrivalSpeed="9.49" duration="488.00" routeLength="925.84" waitingTime="353.00" waitingCount="8" stopTime="0.00" timeLoss="400.82" rerouteNo="0" devices="tripinfo_f_0_2.6" vType="type1" speedFactor="0.89" vaporized=""/>
    <tripinfo id="f_0_0.6" depart="82.00" departLane="np13_nt13_0" departPos="45.76" departSpeed="0.00" departDelay="0.18" arrival="548.00" arrivalLane="nt4_np5_0" arrivalPos="75.00" arrivalSpeed="20.63" duration="466.00" routeLength="1302.13" waitingTime="317.00" waitingCount="10" stopTime="0.00" timeLoss="382.25" rerouteNo="0" devices="tripinfo_f_0_0.6" vType="type1" speedFactor="1.08" vaporized=""/>
    <tripinfo id="f_0_0.7" depart="96.00" departLane="np13_nt13_0" departPos="1.21" departSpeed="0.00" departDelay="0.55" arrival="550.00" arrivalLane="nt4_np5_0" arrivalPos="75.00" arrivalSpeed="20.42" duration="454.00" routeLength="1346.68" waitingTime="305.00" waitingCount="12" stopTime="0.00" timeLoss="370.61" rerouteNo="0" devices="tripinfo_f_0_0.7" vType="type1" speedFactor="1.12" vaporized=""/>
    <tripinfo id="f_0_2.7" depart="58.00" departLane="np2_nt2_0" departPos="1.24" departSpeed="0.00" departDelay="0.73" arrival="608.00" arrivalLane="nt15_np10_0" arrivalPos="75.00" arrivalSpeed="8.87" duration="550.00" routeLength="949.84" waitingTime="407.00" waitingCount="11" stopTime="0.00" timeLoss="469.64" rerouteNo="0" devices="tripinfo_f_0_2.7" vType="type1" speedFactor="0.99" vaporized=""/>
    <tripinfo id="f_0_0.8" depart="110.00" departLane="np13_nt13_0" departPos="23.79" departSpeed="0.00" departDelay="0.91" arrival="644.00" arrivalLane="nt4_np5_0" arrivalPos="75.00" arrivalSpeed="17.07" duration="534.00" routeLength="1324.10" waitingTime="374.00" waitingCount="9" stopTime="0.00" timeLoss="426.15" rerouteNo="0" devices="tripinfo_f_0_0.8" vType="type1" speedFactor="0.86" vaporized=""/>
    <tripinfo id="f_0_2.8" depart="66.00" departLane="np2_nt2_0" departPos="30.03" departSpeed="0.00" departDelay="0.54" arrival="707.00" arrivalLane="nt15_np10_0" arrivalPos="75.00" arrivalSpeed="11.32" duration="641.00" routeLength="921.05" waitingTime="501.00" waitingCount="11" stopTime="0.00" timeLoss="570.87" rerouteNo="0" devices="tripinfo_f_0_2.8" vType="type1" speedFactor="1.11" vaporized=""/>
    <tripinfo id="f_0_0.9" depart="123.00" departLane="np13_nt13_0" departPos="9.68" departSpeed="0.00" departDelay="0.28" arrival="714.00" arrivalLane="nt4_np5_0" arrivalPos="75.00" arrivalSpeed="15.20" duration="591.00" routeLength="1338.21" waitingTime="428.00" waitingCount="8" stopTime="0.00" timeLoss="482.44" rerouteNo="0" devices="tripinfo_f_0_0.9" vType="type1" speedFactor="0.86" vaporized=""/>
    <tripinfo id="f_0_3.8" depart="66.00" departLane="np3_nt3_0" departPos="8.44" departSpeed="0.00" departDelay="0.54" arrival="743.00" arrivalLane="nt14_np11_0" arrivalPos="75.00" arrivalSpeed="9.73" duration="677.00" routeLength="942.65" waitingTime="530.00" waitingCount="10" stopTime="0.00" timeLoss="593.37" rerouteNo="0" devices="tripinfo_f_0_3.8" vType="type1" speedFactor="0.95" vaporized=""/>
    <tripinfo id="f_0_1.2" depart="28.00" departLane="np16_nt1_0" departPos="27.96" departSpeed="0.00" departDelay="0.73" arrival="749.00" arrivalLane="nt16_np8_0" arrivalPos="75.00" arrivalSpeed="15.56" duration="721.00" routeLength="1319.92" waitingTime="550.00" waitingCount="11" stopTime="0.00" timeLoss="616.23" rerouteNo="0" devices="tripinfo_f_0_1.2" vType="type1" speedFactor="0.88" vaporized=""/>
    <tripinfo id="f_0_2.9" depart="74.00" departLane="np2_nt2_0" departPos="21.45" departSpeed="0.00" departDelay="0.36" arrival="762.00" arrivalLane="nt15_np10_0" arrivalPos="75.00" arrivalSpeed="10.16" duration="688.00" routeLength="929.63" waitingTime="547.00" waitingCount="11" stopTime="0.00" timeLoss="605.93" rerouteNo="0" devices="tripinfo_f_0_2.9" vType="type1" speedFactor="0.95" vaporized=""/>
    <tripinfo id="f_0_2.10" depart="82.00" departLane="np2_nt2_0" departPos="58.94" departSpeed="0.00" departDelay="0.18" arrival="764.00" arrivalLane="nt15_np10_0" arrivalPos="75.00" arrivalSpeed="8.87" duration="682.00" routeLength="892.14" waitingTime="536.00" waitingCount="11" stopTime="0.00" timeLoss="608.65" rerouteNo="0" devices="tripinfo_f_0_2.10" vType="type1" speedFactor="1.02" vaporized=""/>
    <tripinfo id="f_0_0.10" depart="137.00" departLane="np13_nt13_0" departPos="15.26" departSpeed="0.00" departDelay="0.64" arrival="776.00" arrivalLane="nt4_np5_0" arrivalPos="75.00" arrivalSpeed="17.82" duration="639.00" routeLength="1332.63" waitingTime="476.00" waitingCount="12" stopTime="0.00" timeLoss="541.28" rerouteNo="0" devices="tripinfo_f_0_0.10" vType="type1" speedFactor="0.95" vaporized=""/>
    <tripinfo id="f_0_0.11" depart="150.00" departLane="np13_nt13_0" departPos="10.53" departSpeed="0.00" departDelay="0.00" arrival="778.00" arrivalLane="nt4_np5_0" arrivalPos="75.00" arrivalSpeed="18.03" duration="628.00" routeLength="1337.36" waitingTime="460.00" waitingCount="12" stopTime="0.00" timeLoss="530.83" rerouteNo="0" devices="tripinfo_f_0_0.11" vType="type1" speedFactor="0.95" vaporized=""/>
    <tripinfo id="f_0_2.11" depart="90.00" departLane="np2_nt2_0" departPos="10.10" departSpeed="0.00" departDelay="0.00" arrival="782.00" arrivalLane="nt15_np10_0" arrivalPos="75.00" arrivalSpeed="9.98" duration="692.00" routeLength="940.98" waitingTime="530.00" waitingCount="14" stopTime="0.00" timeLoss="616.06" rerouteNo="0" devices="tripinfo_f_0_2.11" vType="type1" speedFactor="1.04" vaporized=""/>
    <tripinfo id="f_0_1.10" depart="137.00" departLane="np16_nt1_0" departPos="49.37" departSpeed="0.00" departDelay="0.64" arrival="788.00" arrivalLane="nt16_np8_0" arrivalPos="75.00" arrivalSpeed="19.24" duration="651.00" routeLength="1298.51" waitingTime="495.00" waitingCount="12" stopTime="0.00" timeLoss="560.92" rerouteNo="0" devices="tripinfo_f_0_1.10" vType="type1" speedFactor="1.00" vaporized=""/>
    <tripinfo id="f_0_1.3" depart="41.00" departLane="np16_nt1_0" departPos="46.87" departSpeed="0.00" departDelay="0.09" arrival="790.00" arrivalLane="nt16_np8_0" arrivalPos="75.00" arrivalSpeed="19.61" duration="749.00" routeLength="1301.01" waitingTime="562.00" waitingCount="15" stopTime="0.00" timeLoss="661.13" rerouteNo="0" devices="tripinfo_f_0_1.3" vType="type1" speedFactor="1.04" vaporized=""/>
    <tripinfo id="f_0_1.11" depart="150.00" departLane="np16_nt1_0" departPos="12.26" departSpeed="0.00" departDelay="0.00" arrival="814.00" arrivalLane="nt16_np8_0" arrivalPos="75.00" arrivalSpeed="16.22" duration="664.00" routeLength="1335.62" waitingTime="481.00" waitingCount="14" stopTime="0.00" timeLoss="554.63" rerouteNo="0" devices="tripinfo_f_0_1.11" vType="type1" speedFactor="0.85" vaporized=""/>
    <tripinfo id="f_0_3.9" depart="74.00" departLane="np3_nt3_0" departPos="7.17" departSpeed="0.00" departDelay="0.36" arrival="839.00" arrivalLane="nt14_np11_0" arrivalPos="75.00" arrivalSpeed="8.02" duration="765.00" routeLength="943.92" waitingTime="612.00" waitingCount="13" stopTime="0.00" timeLoss="677.73" rerouteNo="0" devices="tripinfo_f_0_3.9" vType="type1" speedFactor="0.91" vaporized=""/>
    <tripinfo id="f_0_3.10" depart="82.00" departLane="np3_nt3_0" departPos="0.00" departSpeed="0.00" departDelay="0.18" arrival="862.00" arrivalLane="nt14_np11_0" arrivalPos="75.00" arrivalSpeed="11.56" duration="780.00" routeLength="951.09" waitingTime="624.00" waitingCount="15" stopTime="0.00" timeLoss="705.70" rerouteNo="0" devices="tripinfo_f_0_3.10" vType="type1" speedFactor="1.08" vaporized=""/>
    <tripinfo id="f_0_3.11" depart="98.00" departLane="np3_nt3_0" departPos="0.00" departSpeed="0.00" departDelay="8.00" arrival="864.00" arrivalLane="nt14_np11_0" arrivalPos="75.00" arrivalSpeed="12.33" duration="766.00" routeLength="951.09" waitingTime="602.00" waitingCount="14" stopTime="0.00" timeLoss="696.80" rerouteNo="0" devices="tripinfo_f_0_3.11" vType="type1" speedFactor="1.16" vaporized=""/>
    <tripinfo id="f_0_0.12" depart="164.00" departLane="np13_nt13_0" departPos="66.90" departSpeed="0.00" departDelay="0.37" arrival="869.00" arrivalLane="nt4_np5_0" arrivalPos="75.00" arrivalSpeed="17.12" duration="705.00" routeLength="1280.99" waitingTime="544.00" waitingCount="13" stopTime="0.00" timeLoss="609.48" rerouteNo="0" devices="tripinfo_f_0_0.12" vType="type1" speedFactor="0.94" vaporized=""/>
    <tripinfo id="f_0_3.12" depart="134.00" departLane="np3_nt3_0" departPos="0.00" departSpeed="0.00" departDelay="35.82" arrival="882.00" arrivalLane="nt14_np11_0" arrivalPos="75.00" arrivalSpeed="10.41" duration="748.00" routeLength="951.09" waitingTime="573.00" waitingCount="17" stopTime="0.00" timeLoss="670.13" rerouteNo="0" devices="tripinfo_f_0_3.12" vType="type1" speedFactor="1.03" vaporized=""/>
    <tripinfo id="f_0_3.13" depart="168.00" departLane="np3_nt3_0" departPos="0.00" departSpeed="0.00" departDelay="61.63" arrival="884.00" arrivalLane="nt14_np11_0" arrivalPos="75.00" arrivalSpeed="11.07" duration="716.00" routeLength="951.09" waitingTime="544.00" waitingCount="16" stopTime="0.00" timeLoss="644.36" rerouteNo="0" devices="tripinfo_f_0_3.13" vType="type1" speedFactor="1.12" vaporized=""/>
    <tripinfo id="f_0_3.14" depart="268.00" departLane="np3_nt3_0" departPos="0.85" departSpeed="0.00" departDelay="153.45" arrival="961.00" arrivalLane="nt14_np11_0" arrivalPos="75.00" arrivalSpeed="9.69" duration="693.00" routeLength="950.24" waitingTime="515.00" waitingCount="18" stopTime="0.00" timeLoss="619.86" rerouteNo="0" devices="tripinfo_f_0_3.14" vType="type1" speedFactor="1.09" vaporized=""/>
    <tripinfo id="f_0_3.15" depart="293.00" departLane="np3_nt3_0" departPos="0.00" departSpeed="0.00" departDelay="170.27" arrival="964.00" arrivalLane="nt14_np11_0" arrivalPos="75.00" arrivalSpeed="9.26" duration="671.00" routeLength="951.09" waitingTime="500.00" waitingCount="17" stopTime="0.00" timeLoss="593.81" rerouteNo="0" devices="tripinfo_f_0_3.15" vType="type1" speedFactor="1.04" vaporized=""/>
    <tripinfo id="f_0_3.16" depart="377.00" departLane="np3_nt3_0" departPos="0.00" departSpeed="0.00" departDelay="246.09" arrival="987.00" arrivalLane="nt14_np11_0" arrivalPos="75.00" arrivalSpeed="10.67" duration="610.00" routeLength="951.09" waitingTime="452.00" waitingCount="15" stopTime="0.00" timeLoss="529.62" rerouteNo="0" devices="tripinfo_f_0_3.16" vType="type1" speedFactor="0.99" vaporized=""/>
    <tripinfo id="f_0_0.13" depart="178.00" departLane="np13_nt13_0" departPos="16.54" departSpeed="0.00" departDelay="0.73" arrival="1018.00" arrivalLane="nt4_np5_0" arrivalPos="75.00" arrivalSpeed="21.20" duration="840.00" routeLength="1331.35" waitingTime="677.00" waitingCount="14" stopTime="0.00" timeLoss="754.06" rerouteNo="0" devices="tripinfo_f_0_0.13" vType="type1" speedFactor="1.08" vaporized=""/>
    <tripinfo id="f_0_1.4" depart="55.00" departLane="np16_nt1_0" departPos="7.70" departSpeed="0.00" departDelay="0.46" arrival="1044.00" arrivalLane="nt16_np8_0" arrivalPos="75.00" arrivalSpeed="15.01" duration="989.00" routeLength="1340.18" waitingTime="783.00" waitingCount="19" stopTime="0.00" timeLoss="881.68" rerouteNo="0" devices="tripinfo_f_0_1.4" vType="type1" speedFactor="0.86" vaporized=""/>
    <tripinfo id="f_3_5.0" depart="900.00" departLane="np8_nt16_0" departPos="9.59" departSpeed="0.00" departDelay="0.00" arrival="1054.00" arrivalLane="nt1_np16_0" arrivalPos="67.80" arrivalSpeed="23.91" duration="154.00" routeLength="1338.29" waitingTime="50.00" waitingCount="3" stopTime="0.00" timeLoss="78.49" rerouteNo="0" devices="tripinfo_f_3_5.0" vType="type1" speedFactor="1.23" vaporized=""/>
    <tripinfo id="f_3_5.1" depart="922.00" departLane="np8_nt16_0" departPos="27.06" departSpeed="0.00" departDelay="0.31" arrival="1070.00" arrivalLane="nt1_np16_0" arrivalPos="67.80" arrivalSpeed="15.33" duration="148.00" routeLength="1320.82" waitingTime="9.00" waitingCount="4" stopTime="0.00" timeLoss="41.11" rerouteNo="0" devices="tripinfo_f_3_5.1" vType="type1" speedFactor="0.86" vaporized=""/>
    <tripinfo id="f_0_1.12" depart="164.00" departLane="np16_nt1_0" departPos="52.49" departSpeed="0.00" departDelay="0.37" arrival="1074.00" arrivalLane="nt16_np8_0" arrivalPos="75.00" arrivalSpeed="17.48" duration="910.00" routeLength="1295.39" waitingTime="723.00" waitingCount="16" stopTime="0.00" timeLoss="808.71" rerouteNo="0" devices="tripinfo_f_0_1.12" vType="type1" speedFactor="0.90" vaporized=""/>
    <tripinfo id="f_0_0.14" depart="191.00" departLane="np13_nt13_0" departPos="37.49" departSpeed="0.00" departDelay="0.10" arrival="1079.00" arrivalLane="nt4_np5_0" arrivalPos="75.00" arrivalSpeed="19.54" duration="888.00" routeLength="1310.40" waitingTime="705.00" waitingCount="16" stopTime="0.00" timeLoss="800.77" rerouteNo="0" devices="tripinfo_f_0_0.14" vType="type1" speedFactor="1.05" vaporized=""/>
    <tripinfo id="f_0_0.15" depart="205.00" departLane="np13_nt13_0" departPos="26.22" departSpeed="0.00" departDelay="0.46" arrival="1081.00" arrivalLane="nt4_np5_0" arrivalPos="75.00" arrivalSpeed="17.61" duration="876.00" routeLength="1321.67" waitingTime="673.00" waitingCount="18" stopTime="0.00" timeLoss="780.92" rerouteNo="0" devices="tripinfo_f_0_0.15" vType="type1" speedFactor="0.97" vaporized=""/>
    <tripinfo id="f_0_0.16" depart="219.00" departLane="np13_nt13_0" departPos="27.33" departSpeed="0.00" departDelay="0.82" arrival="1089.00" arrivalLane="nt4_np5_0" arrivalPos="75.00" arrivalSpeed="17.67" duration="870.00" routeLength="1320.56" waitingTime="667.00" waitingCount="18" stopTime="0.00" timeLoss="770.70" rerouteNo="0" devices="tripinfo_f_0_0.16" vType="type1" speedFactor="0.93" vaporized=""/>
    <tripinfo id="f_0_2.12" depart="99.00" departLane="np2_nt2_0" departPos="8.16" departSpeed="0.00" departDelay="0.82" arrival="1093.00" arrivalLane="nt15_np10_0" arrivalPos="75.00" arrivalSpeed="8.37" duration="994.00" routeLength="942.92" waitingTime="804.00" waitingCount="14" stopTime="0.00" timeLoss="911.24" rerouteNo="0" devices="tripinfo_f_0_2.12" vType="type1" speedFactor="0.96" vaporized=""/>
    <tripinfo id="f_0_2.26" depart="213.00" departLane="np2_nt2_0" departPos="53.76" departSpeed="0.00" departDelay="0.27" arrival="1094.00" arrivalLane="nt15_np10_0" arrivalPos="75.00" arrivalSpeed="11.10" duration="881.00" routeLength="897.32" waitingTime="724.00" waitingCount="13" stopTime="0.00" timeLoss="816.83" rerouteNo="0" devices="tripinfo_f_0_2.26" vType="type1" speedFactor="1.16" vaporized=""/>
    <tripinfo id="f_0_3.17" depart="380.00" departLane="np3_nt3_0" departPos="0.00" departSpeed="0.00" departDelay="240.91" arrival="1112.00" arrivalLane="nt14_np11_0" arrivalPos="75.00" arrivalSpeed="10.26" duration="732.00" routeLength="951.09" waitingTime="564.00" waitingCount="15" stopTime="0.00" timeLoss="647.09" rerouteNo="0" devices="tripinfo_f_0_3.17" vType="type1" speedFactor="0.94" vaporized=""/>
    <tripinfo id="f_0_2.25" depart="205.00" departLane="np2_nt2_0" departPos="15.51" departSpeed="0.00" departDelay="0.45" arrival="1119.00" arrivalLane="nt15_np10_0" arrivalPos="75.00" arrivalSpeed="6.95" duration="914.00" routeLength="935.57" waitingTime="736.00" waitingCount="15" stopTime="0.00" timeLoss="819.26" rerouteNo="0" devices="tripinfo_f_0_2.25" vType="type1" speedFactor="0.83" vaporized=""/>
    <tripinfo id="f_0_2.13" depart="107.00" departLane="np2_nt2_0" departPos="12.52" departSpeed="0.00" departDelay="0.63" arrival="1138.00" arrivalLane="nt15_np10_0" arrivalPos="75.00" arrivalSpeed="9.25" duration="1031.00" routeLength="938.56" waitingTime="806.00" waitingCount="16" stopTime="0.00" timeLoss="941.33" rerouteNo="0" devices="tripinfo_f_0_2.13" vType="type1" speedFactor="0.89" vaporized=""/>
    <tripinfo id="f_0_1.5" depart="69.00" departLane="np16_nt1_0" departPos="42.01" departSpeed="0.00" departDelay="0.82" arrival="1139.00" arrivalLane="nt16_np8_0" arrivalPos="75.00" arrivalSpeed="17.02" duration="1070.00" routeLength="1305.87" waitingTime="839.00" waitingCount="21" stopTime="0.00" timeLoss="971.43" rerouteNo="0" devices="tripinfo_f_0_1.5" vType="type1" speedFactor="0.93" vaporized=""/>
    <tripinfo id="f_0_1.6" depart="82.00" departLane="np16_nt1_0" departPos="64.27" departSpeed="0.00" departDelay="0.18" arrival="1140.00" arrivalLane="nt16_np8_0" arrivalPos="75.00" arrivalSpeed="16.64" duration="1058.00" routeLength="1283.61" waitingTime="818.00" waitingCount="19" stopTime="0.00" timeLoss="960.51" rerouteNo="0" devices="tripinfo_f_0_1.6" vType="type1" speedFactor="0.92" vaporized=""/>
    <tripinfo id="f_0_2.31" depart="254.00" departLane="np2_nt2_0" departPos="26.30" departSpeed="0.00" departDelay="0.36" arrival="1140.00" arrivalLane="nt15_np10_0" arrivalPos="75.00" arrivalSpeed="8.79" duration="886.00" routeLength="924.78" waitingTime="705.00" waitingCount="13" stopTime="0.00" timeLoss="800.90" rerouteNo="0" devices="tripinfo_f_0_2.31" vType="type1" speedFactor="0.91" vaporized=""/>
    <tripinfo id="f_3_5.2" depart="944.00" departLane="np8_nt16_0" departPos="73.33" departSpeed="0.00" departDelay="0.63" arrival="1146.00" arrivalLane="nt1_np16_0" arrivalPos="67.80" arrivalSpeed="20.28" duration="202.00" routeLength="1274.55" waitingTime="93.00" waitingCount="5" stopTime="0.00" timeLoss="119.95" rerouteNo="0" devices="tripinfo_f_3_5.2" vType="type1" speedFactor="1.10" vaporized=""/>
    <tripinfo id="f_0_1.13" depart="178.00" departLane="np16_nt1_0" departPos="63.57" departSpeed="0.00" departDelay="0.73" arrival="1148.00" arrivalLane="nt16_np8_0" arrivalPos="75.00" arrivalSpeed="22.32" duration="970.00" routeLength="1284.31" waitingTime="765.00" waitingCount="19" stopTime="0.00" timeLoss="892.90" rerouteNo="0" devices="tripinfo_f_0_1.13" vType="type1" speedFactor="1.17" vaporized=""/>
    <tripinfo id="f_0_3.18" depart="388.00" departLane="np3_nt3_0" departPos="0.00" departSpeed="0.00" departDelay="240.72" arrival="1158.00" arrivalLane="nt14_np11_0" arrivalPos="75.00" arrivalSpeed="9.27" duration="770.00" routeLength="951.09" waitingTime="590.00" waitingCount="16" stopTime="0.00" timeLoss="680.91" rerouteNo="0" devices="tripinfo_f_0_3.18" vType="type1" speedFactor="0.90" vaporized=""/>
    <tripinfo id="f_0_3.19" depart="428.00" departLane="np3_nt3_0" departPos="0.00" departSpeed="0.00" departDelay="272.54" arrival="1160.00" arrivalLane="nt14_np11_0" arrivalPos="75.00" arrivalSpeed="8.61" duration="732.00" routeLength="951.09" waitingTime="566.00" waitingCount="15" stopTime="0.00" timeLoss="644.95" rerouteNo="0" devices="tripinfo_f_0_3.19" vType="type1" speedFactor="0.92" vaporized=""/>
    <tripinfo id="f_0_3.20" depart="447.00" departLane="np3_nt3_0" departPos="0.00" departSpeed="0.00" departDelay="283.36" arrival="1162.00" arrivalLane="nt14_np11_0" arrivalPos="75.00" arrivalSpeed="8.35" duration="715.00" routeLength="951.09" waitingTime="561.00" waitingCount="13" stopTime="0.00" timeLoss="628.24" rerouteNo="0" devices="tripinfo_f_0_3.20" vType="type1" speedFactor="0.92" vaporized=""/>
    <tripinfo id="f_0_3.21" depart="451.00" departLane="np3_nt3_0" departPos="0.00" departSpeed="0.00" departDelay="279.18" arrival="1164.00" arrivalLane="nt14_np11_0" arrivalPos="75.00" arrivalSpeed="10.08" duration="713.00" routeLength="951.09" waitingTime="548.00" waitingCount="14" stopTime="0.00" timeLoss="641.90" rerouteNo="0" devices="tripinfo_f_0_3.21" vType="type1" speedFactor="1.13" vaporized=""/>
    <tripinfo id="f_3_4.0" depart="900.00" departLane="np5_nt4_0" departPos="69.43" departSpeed="0.00" departDelay="0.00" arrival="1173.00" arrivalLane="nt13_np13_1" arrivalPos="67.80" arrivalSpeed="21.43" duration="273.00" routeLength="1278.46" waitingTime="162.00" waitingCount="5" stopTime="0.00" timeLoss="193.23" rerouteNo="0" devices="tripinfo_f_3_4.0" vType="type1" speedFactor="1.12" vaporized=""/>