<?xml version="1.0" encoding="UTF-8"?>

<!-- generated on 2023-08-30 19:43:41 by Eclipse SUMO libsumo Version 1.18.0
<configuration xmlns:xsi="http://www.w3.org/2001/XMLSchema-instance" xsi:noNamespaceSchemaLocation="http://sumo.dlr.de/xsd/libsumoConfiguration.xsd">

    <input>
        <net-file value="/home/stefan/RESCO/./environments/arterial4x4/arterial4x4.net.xml"/>
        <route-files value="/home/stefan/RESCO/./environments/arterial4x4/arterial4x4_94.rou.xml"/>
    </input>

    <output>
        <tripinfo-output value="/home/stefan/results/RAINBOW-tr0-arterial4x4-0-drq_norm-wait_norm/tripinfo_94.xml"/>
        <tripinfo-output.write-unfinished value="true"/>
    </output>

    <processing>
        <time-to-teleport value="-1"/>
    </processing>

    <report>
        <no-warnings value="True"/>
        <no-step-log value="True"/>
    </report>

    <random_number>
        <random value="true"/>
    </random_number>

</configuration>
-->

<tripinfos xmlns:xsi="http://www.w3.org/2001/XMLSchema-instance" xsi:noNamespaceSchemaLocation="http://sumo.dlr.de/xsd/tripinfo_file.xsd">
    <tripinfo id="f_0_1.0" depart="0.00" departLane="np16_nt1_0" departPos="44.87" departSpeed="0.00" departDelay="0.00" arrival="2804.00" arrivalLane="nt16_np8_0" arrivalPos="75.00" arrivalSpeed="19.21" duration="2804.00" routeLength="1303.01" waitingTime="2692.00" waitingCount="2" stopTime="0.00" timeLoss="2711.29" rerouteNo="0" devices="tripinfo_f_0_1.0" vType="type1" speedFactor="0.98" vaporized=""/>
    <tripinfo id="f_0_2.0" depart="0.00" departLane="np2_nt2_0" departPos="35.69" departSpeed="0.00" departDelay="0.00" arrival="2962.00" arrivalLane="nt15_np10_0" arrivalPos="75.00" arrivalSpeed="9.94" duration="2962.00" routeLength="915.39" waitingTime="2856.00" waitingCount="5" stopTime="0.00" timeLoss="2884.91" rerouteNo="0" devices="tripinfo_f_0_2.0" vType="type1" speedFactor="0.99" vaporized=""/>
    <tripinfo id="f_0_1.1" depart="14.00" departLane="np16_nt1_0" departPos="8.97" departSpeed="0.00" departDelay="0.36" arrival="2973.00" arrivalLane="nt16_np8_0" arrivalPos="75.00" arrivalSpeed="18.40" duration="2959.00" routeLength="1338.91" waitingTime="2836.00" waitingCount="4" stopTime="0.00" timeLoss="2861.87" rerouteNo="0" devices="tripinfo_f_0_1.1" vType="type1" speedFactor="0.96" vaporized=""/>
    <tripinfo id="f_0_1.2" depart="28.00" departLane="np16_nt1_0" departPos="19.95" departSpeed="0.00" departDelay="0.73" arrival="3263.00" arrivalLane="nt16_np8_0" arrivalPos="75.00" arrivalSpeed="22.01" duration="3235.00" routeLength="1327.93" waitingTime="3122.00" waitingCount="5" stopTime="0.00" timeLoss="3155.62" rerouteNo="0" devices="tripinfo_f_0_1.2" vType="type1" speedFactor="1.17" vaporized=""/>
    <tripinfo id="f_0_1.3" depart="41.00" departLane="np16_nt1_0" departPos="47.58" departSpeed="0.00" departDelay="0.09" arrival="3265.00" arrivalLane="nt16_np8_0" arrivalPos="75.00" arrivalSpeed="17.51" duration="3224.00" routeLength="1300.30" waitingTime="3088.00" waitingCount="5" stopTime="0.00" timeLoss="3121.74" rerouteNo="0" devices="tripinfo_f_0_1.3" vType="type1" speedFactor="0.89" vaporized=""/>
    <tripinfo id="f_0_0.0" depart="0.00" departLane="np13_nt13_0" departPos="66.23" departSpeed="0.00" departDelay="0.00" arrival="-1.00" arrivalLane="" arrivalPos="-1.00" arrivalSpeed="-1.00" duration="3600.00" routeLength="988.80" waitingTime="3502.00" waitingCount="4" stopTime="0.00" timeLoss="3526.37" rerouteNo="0" devices="tripinfo_f_0_0.0" vType="type1" speedFactor="1.02" vaporized="end"/>
    <tripinfo id="f_0_3.0" depart="0.00" departLane="np3_nt3_0" departPos="9.44" departSpeed="0.00" departDelay="0.00" arrival="-1.00" arrivalLane="" arrivalPos="-1.00" arrivalSpeed="-1.00" duration="3600.00" routeLength="54.16" waitingTime="3591.00" waitingCount="1" stopTime="0.00" timeLoss="3593.13" rerouteNo="0" devices="tripinfo_f_0_3.0" vType="type1" speedFactor="0.84" vaporized="end"/>
    <tripinfo id="f_0_2.1" depart="9.00" departLane="np2_nt2_0" departPos="23.88" departSpeed="0.00" departDelay="0.82" arrival="-1.00" arrivalLane="" arrivalPos="-1.00" arrivalSpeed="-1.00" duration="3591.00" routeLength="830.40" waitingTime="3486.00" waitingCount="7" stopTime="0.00" timeLoss="3528.83" rerouteNo="0" devices="tripinfo_f_0_2.1" vType="type1" speedFactor="1.12" vaporized="end"/>
    <tripinfo id="f_0_3.1" depart="9.00" departLane="np3_nt3_0" departPos="25.63" departSpeed="0.00" departDelay="0.82" arrival="-1.00" arrivalLane="" arrivalPos="-1.00" arrivalSpeed="-1.00" duration="3591.00" routeLength="30.47" waitingTime="3585.00" waitingCount="1" stopTime="0.00" timeLoss="3587.46" rerouteNo="0" devices="tripinfo_f_0_3.1" vType="type1" speedFactor="1.09" vaporized="end"/>
    <tripinfo id="f_0_0.1" depart="14.00" departLane="np13_nt13_0" departPos="1.49" departSpeed="0.00" departDelay="0.36" arrival="-1.00" arrivalLane="" arrivalPos="-1.00" arrivalSpeed="-1.00" duration="3586.00" routeLength="65.31" waitingTime="3579.00" waitingCount="1" stopTime="0.00" timeLoss="3581.63" rerouteNo="0" devices="tripinfo_f_0_0.1" vType="type1" speedFactor="0.97" vaporized="end"/>
    <tripinfo id="f_0_2.2" depart="17.00" departLane="np2_nt2_0" departPos="5.04" departSpeed="0.00" departDelay="0.64" arrival="-1.00" arrivalLane="" arrivalPos="-1.00" arrivalSpeed="-1.00" duration="3583.00" routeLength="649.24" waitingTime="3483.00" waitingCount="8" stopTime="0.00" timeLoss="3525.62" rerouteNo="0" devices="tripinfo_f_0_2.2" vType="type1" speedFactor="0.93" vaporized="end"/>
    <tripinfo id="f_0_3.2" depart="17.00" departLane="np3_nt3_0" departPos="18.88" departSpeed="0.00" departDelay="0.64" arrival="-1.00" arrivalLane="" arrivalPos="-1.00" arrivalSpeed="-1.00" duration="3583.00" routeLength="29.72" waitingTime="3575.00" waitingCount="1" stopTime="0.00" timeLoss="3579.66" rerouteNo="0" devices="tripinfo_f_0_3.2" vType="type1" speedFactor="1.16" vaporized="end"/>
    <tripinfo id="f_0_2.3" depart="25.00" departLane="np2_nt2_0" departPos="38.39" departSpeed="0.00" departDelay="0.45" arrival="-1.00" arrivalLane="" arrivalPos="-1.00" arrivalSpeed="-1.00" duration="3575.00" routeLength="608.39" waitingTime="3477.00" waitingCount="9" stopTime="0.00" timeLoss="3523.93" rerouteNo="0" devices="tripinfo_f_0_2.3" vType="type1" speedFactor="0.97" vaporized="end"/>
    <tripinfo id="f_0_3.3" depart="25.00" departLane="np3_nt3_0" departPos="21.18" departSpeed="0.00" departDelay="0.45" arrival="-1.00" arrivalLane="" arrivalPos="-1.00" arrivalSpeed="-1.00" duration="3575.00" routeLength="19.92" waitingTime="3569.00" waitingCount="1" stopTime="0.00" timeLoss="3572.16" rerouteNo="0" devices="tripinfo_f_0_3.3" vType="type1" speedFactor="0.98" vaporized="end"/>
    <tripinfo id="f_0_0.2" depart="28.00" departLane="np13_nt13_0" departPos="37.79" departSpeed="0.00" departDelay="0.73" arrival="-1.00" arrivalLane="" arrivalPos="-1.00" arrivalSpeed="-1.00" duration="3572.00" routeLength="21.51" waitingTime="3566.00" waitingCount="1" stopTime="0.00" timeLoss="3570.03" rerouteNo="0" devices="tripinfo_f_0_0.2" vType="type1" speedFactor="1.11" vaporized="end"/>
    <tripinfo id="f_0_2.4" depart="33.00" departLane="np2_nt2_0" departPos="6.69" departSpeed="0.00" departDelay="0.27" arrival="-1.00" arrivalLane="" arrivalPos="-1.00" arrivalSpeed="-1.00" duration="3567.00" routeLength="632.59" waitingTime="3464.00" waitingCount="8" stopTime="0.00" timeLoss="3514.87" rerouteNo="0" devices="tripinfo_f_0_2.4" vType="type1" speedFactor="0.99" vaporized="end"/>
    <tripinfo id="f_0_3.4" depart="33.00" departLane="np3_nt3_0" departPos="20.53" departSpeed="0.00" departDelay="0.27" arrival="-1.00" arrivalLane="" arrivalPos="-1.00" arrivalSpeed="-1.00" duration="3567.00" routeLength="13.06" waitingTime="3563.00" waitingCount="1" stopTime="0.00" timeLoss="3564.67" rerouteNo="0" devices="tripinfo_f_0_3.4" vType="type1" speedFactor="0.89" vaporized="end"/>
    <tripinfo id="f_0_0.3" depart="41.00" departLane="np13_nt13_0" departPos="15.40" departSpeed="0.00" departDelay="0.09" arrival="-1.00" arrivalLane="" arrivalPos="-1.00" arrivalSpeed="-1.00" duration="3559.00" routeLength="36.40" waitingTime="3552.00" waitingCount="1" stopTime="0.00" timeLoss="3556.33" rerouteNo="0" devices="tripinfo_f_0_0.3" vType="type1" speedFactor="1.09" vaporized="end"/>
    <tripinfo id="f_0_2.5" depart="41.00" departLane="np2_nt2_0" departPos="27.12" departSpeed="0.00" departDelay="0.09" arrival="-1.00" arrivalLane="" arrivalPos="-1.00" arrivalSpeed="-1.00" duration="3559.00" routeLength="604.66" waitingTime="3458.00" waitingCount="8" stopTime="0.00" timeLoss="3512.34" rerouteNo="0" devices="tripinfo_f_0_2.5" vType="type1" speedFactor="1.05" vaporized="end"/>
    <tripinfo id="f_0_3.5" depart="41.00" departLane="np3_nt3_0" departPos="11.99" departSpeed="0.00" departDelay="0.09" arrival="-1.00" arrivalLane="" arrivalPos="-1.00" arrivalSpeed="-1.00" duration="3559.00" routeLength="14.10" waitingTime="3554.00" waitingCount="1" stopTime="0.00" timeLoss="3556.64" rerouteNo="0" devices="tripinfo_f_0_3.5" vType="type1" speedFactor="0.94" vaporized="end"/>
    <tripinfo id="f_0_2.6" depart="50.00" departLane="np2_nt2_0" departPos="23.23" departSpeed="0.00" departDelay="0.91" arrival="-1.00" arrivalLane="" arrivalPos="-1.00" arrivalSpeed="-1.00" duration="3550.00" routeLength="601.05" waitingTime="3445.00" waitingCount="8" stopTime="0.00" timeLoss="3506.12" rerouteNo="0" devices="tripinfo_f_0_2.6" vType="type1" speedFactor="1.10" vaporized="end"/>
    <tripinfo id="f_0_3.6" depart="50.00" departLane="np3_nt3_0" departPos="13.58" departSpeed="0.00" departDelay="0.91" arrival="-1.00" arrivalLane="" arrivalPos="-1.00" arrivalSpeed="-1.00" duration="3550.00" routeLength="5.02" waitingTime="3546.00" waitingCount="1" stopTime="0.00" timeLoss="3548.55" rerouteNo="0" devices="tripinfo_f_0_3.6" vType="type1" speedFactor="1.01" vaporized="end"/>
    <tripinfo id="f_0_0.4" depart="55.00" departLane="np13_nt13_0" departPos="18.85" departSpeed="0.00" departDelay="0.46" arrival="-1.00" arrivalLane="" arrivalPos="-1.00" arrivalSpeed="-1.00" duration="3545.00" routeLength="25.44" waitingTime="3539.00" waitingCount="1" stopTime="0.00" timeLoss="3542.83" rerouteNo="0" devices="tripinfo_f_0_0.4" vType="type1" speedFactor="1.09" vaporized="end"/>
    <tripinfo id="f_0_1.4" depart="55.00" departLane="np16_nt1_0" departPos="21.36" departSpeed="0.00" departDelay="0.46" arrival="-1.00" arrivalLane="" arrivalPos="-1.00" arrivalSpeed="-1.00" duration="3545.00" routeLength="1033.99" waitingTime="3434.00" waitingCount="5" stopTime="0.00" timeLoss="3464.35" rerouteNo="0" devices="tripinfo_f_0_1.4" vType="type1" speedFactor="0.96" vaporized="end"/>
    <tripinfo id="f_0_2.7" depart="58.00" departLane="np2_nt2_0" departPos="2.46" departSpeed="0.00" departDelay="0.73" arrival="-1.00" arrivalLane="" arrivalPos="-1.00" arrivalSpeed="-1.00" duration="3542.00" routeLength="614.31" waitingTime="3425.00" waitingCount="7" stopTime="0.00" timeLoss="3494.19" rerouteNo="0" devices="tripinfo_f_0_2.7" vType="type1" speedFactor="1.05" vaporized="end"/>
    <tripinfo id="f_0_3.7" depart="58.00" departLane="np3_nt3_0" departPos="1.19" departSpeed="0.00" departDelay="0.73" arrival="-1.00" arrivalLane="" arrivalPos="-1.00" arrivalSpeed="-1.00" duration="3542.00" routeLength="9.90" waitingTime="3538.00" waitingCount="1" stopTime="0.00" timeLoss="3540.10" rerouteNo="0" devices="tripinfo_f_0_3.7" vType="type1" speedFactor="1.00" vaporized="end"/>
    <tripinfo id="f_0_2.8" depart="66.00" departLane="np2_nt2_0" departPos="9.28" departSpeed="0.00" departDelay="0.54" arrival="-1.00" arrivalLane="" arrivalPos="-1.00" arrivalSpeed="-1.00" duration="3534.00" routeLength="599.99" waitingTime="3419.00" waitingCount="8" stopTime="0.00" timeLoss="3485.33" rerouteNo="0" devices="tripinfo_f_0_2.8" vType="type1" speedFactor="1.00" vaporized="end"/>
    <tripinfo id="f_0_3.8" depart="66.00" departLane="np3_nt3_0" departPos="0.97" departSpeed="0.00" departDelay="0.54" arrival="-1.00" arrivalLane="" arrivalPos="-1.00" arrivalSpeed="-1.00" duration="3534.00" routeLength="2.62" waitingTime="3530.00" waitingCount="1" stopTime="0.00" timeLoss="3532.81" rerouteNo="0" devices="tripinfo_f_0_3.8" vType="type1" speedFactor="1.22" vaporized="end"/>
    <tripinfo id="f_0_0.5" depart="69.00" departLane="np13_nt13_0" departPos="24.94" departSpeed="0.00" departDelay="0.82" arrival="-1.00" arrivalLane="" arrivalPos="-1.00" arrivalSpeed="-1.00" duration="3531.00" routeLength="11.85" waitingTime="3526.00" waitingCount="1" stopTime="0.00" timeLoss="3529.49" rerouteNo="0" devices="tripinfo_f_0_0.5" vType="type1" speedFactor="1.17" vaporized="end"/>
    <tripinfo id="f_0_1.5" depart="69.00" departLane="np16_nt1_0" departPos="33.02" departSpeed="0.00" departDelay="0.82" arrival="-1.00" arrivalLane="" arrivalPos="-1.00" arrivalSpeed="-1.00" duration="3531.00" routeLength="717.31" waitingTime="3405.00" waitingCount="8" stopTime="0.00" timeLoss="3480.89" rerouteNo="0" devices="tripinfo_f_0_1.5" vType="type1" speedFactor="0.98" vaporized="end"/>
    <tripinfo id="f_0_2.9" depart="74.00" departLane="np2_nt2_0" departPos="0.40" departSpeed="0.00" departDelay="0.36" arrival="-1.00" arrivalLane="" arrivalPos="-1.00" arrivalSpeed="-1.00" duration="3526.00" routeLength="601.37" waitingTime="3402.00" waitingCount="8" stopTime="0.00" timeLoss="3475.04" rerouteNo="0" devices="tripinfo_f_0_2.9" vType="type1" speedFactor="0.97" vaporized="end"/>
    <tripinfo id="f_0_0.6" depart="82.00" departLane="np13_nt13_0" departPos="9.38" departSpeed="0.00" departDelay="0.18" arrival="-1.00" arrivalLane="" arrivalPos="-1.00" arrivalSpeed="-1.00" duration="3518.00" routeLength="19.92" waitingTime="3513.00" waitingCount="1" stopTime="0.00" timeLoss="3516.05" rerouteNo="0" devices="tripinfo_f_0_0.6" vType="type1" speedFactor="1.05" vaporized="end"/>
    <tripinfo id="f_0_1.6" depart="82.00" departLane="np16_nt1_0" departPos="62.73" departSpeed="0.00" departDelay="0.18" arrival="-1.00" arrivalLane="" arrivalPos="-1.00" arrivalSpeed="-1.00" duration="3518.00" routeLength="680.11" waitingTime="3390.00" waitingCount="8" stopTime="0.00" timeLoss="3477.09" rerouteNo="0" devices="tripinfo_f_0_1.6" vType="type1" speedFactor="1.14" vaporized="end"/>
    <tripinfo id="f_0_2.10" depart="82.00" departLane="np2_nt2_0" departPos="0.00" departSpeed="0.00" departDelay="0.18" arrival="-1.00" arrivalLane="" arrivalPos="-1.00" arrivalSpeed="-1.00" duration="3518.00" routeLength="594.27" waitingTime="3393.00" waitingCount="7" stopTime="0.00" timeLoss="3468.99" rerouteNo="0" devices="tripinfo_f_0_2.10" vType="type1" speedFactor="0.99" vaporized="end"/>
    <tripinfo id="f_0_2.11" depart="90.00" departLane="np2_nt2_0" departPos="1.36" departSpeed="0.00" departDelay="0.00" arrival="-1.00" arrivalLane="" arrivalPos="-1.00" arrivalSpeed="-1.00" duration="3510.00" routeLength="585.41" waitingTime="3387.00" waitingCount="7" stopTime="0.00" timeLoss="3468.38" rerouteNo="0" devices="tripinfo_f_0_2.11" vType="type1" speedFactor="1.14" vaporized="end"/>
    <tripinfo id="f_0_0.7" depart="96.00" departLane="np13_nt13_0" departPos="8.54" departSpeed="0.00" departDelay="0.55" arrival="-1.00" arrivalLane="" arrivalPos="-1.00" arrivalSpeed="-1.00" duration="3504.00" routeLength="13.25" waitingTime="3500.00" waitingCount="1" stopTime="0.00" timeLoss="3502.38" rerouteNo="0" devices="tripinfo_f_0_0.7" vType="type1" speedFactor="1.06" vaporized="end"/>
    <tripinfo id="f_0_1.7" depart="96.00" departLane="np16_nt1_0" departPos="23.67" departSpeed="0.00" departDelay="0.55" arrival="-1.00" arrivalLane="" arrivalPos="-1.00" arrivalSpeed="-1.00" duration="3504.00" routeLength="711.66" waitingTime="3384.00" waitingCount="8" stopTime="0.00" timeLoss="3464.99" rerouteNo="0" devices="tripinfo_f_0_1.7" vType="type1" speedFactor="1.24" vaporized="end"/>
    <tripinfo id="f_0_2.12" depart="99.00" departLane="np2_nt2_0" departPos="6.66" departSpeed="0.00" departDelay="0.82" arrival="-1.00" arrivalLane="" arrivalPos="-1.00" arrivalSpeed="-1.00" duration="3501.00" routeLength="572.61" waitingTime="3384.00" waitingCount="7" stopTime="0.00" timeLoss="3456.73" rerouteNo="0" devices="tripinfo_f_0_2.12" vType="type1" speedFactor="1.05" vaporized="end"/>
    <tripinfo id="f_0_2.13" depart="107.00" departLane="np2_nt2_0" departPos="4.63" departSpeed="0.00" departDelay="0.63" arrival="-1.00" arrivalLane="" arrivalPos="-1.00" arrivalSpeed="-1.00" duration="3493.00" routeLength="567.14" waitingTime="3371.00" waitingCount="6" stopTime="0.00" timeLoss="3443.78" rerouteNo="0" devices="tripinfo_f_0_2.13" vType="type1" speedFactor="0.93" vaporized="end"/>
    <tripinfo id="f_0_0.8" depart="110.00" departLane="np13_nt13_0" departPos="3.35" departSpeed="0.00" departDelay="0.91" arrival="-1.00" arrivalLane="" arrivalPos="-1.00" arrivalSpeed="-1.00" duration="3490.00" routeLength="10.94" waitingTime="3484.00" waitingCount="1" stopTime="0.00" timeLoss="3488.45" rerouteNo="0" devices="tripinfo_f_0_0.8" vType="type1" speedFactor="1.00" vaporized="end"/>
    <tripinfo id="f_0_1.8" depart="110.00" departLane="np16_nt1_0" departPos="20.51" departSpeed="0.00" departDelay="0.91" arrival="-1.00" arrivalLane="" arrivalPos="-1.00" arrivalSpeed="-1.00" duration="3490.00" routeLength="707.32" waitingTime="3368.00" waitingCount="9" stopTime="0.00" timeLoss="3441.73" rerouteNo="0" devices="tripinfo_f_0_1.8" vType="type1" speedFactor="0.99" vaporized="end"/>
    <tripinfo id="f_0_2.14" depart="115.00" departLane="np2_nt2_0" departPos="5.49" departSpeed="0.00" departDelay="0.45" arrival="-1.00" arrivalLane="" arrivalPos="-1.00" arrivalSpeed="-1.00" duration="3485.00" routeLength="558.78" waitingTime="3368.00" waitingCount="6" stopTime="0.00" timeLoss="3444.55" rerouteNo="0" devices="tripinfo_f_0_2.14" vType="type1" speedFactor="1.11" vaporized="end"/>
    <tripinfo id="f_0_0.9" depart="123.00" departLane="np13_nt13_0" departPos="0.00" departSpeed="0.00" departDelay="0.28" arrival="-1.00" arrivalLane="" arrivalPos="-1.00" arrivalSpeed="-1.00" duration="3477.00" routeLength="6.79" waitingTime="3473.00" waitingCount="1" stopTime="0.00" timeLoss="3475.70" rerouteNo="0" devices="tripinfo_f_0_0.9" vType="type1" speedFactor="1.13" vaporized="end"/>
    <tripinfo id="f_0_1.9" depart="123.00" departLane="np16_nt1_0" departPos="9.94" departSpeed="0.00" departDelay="0.28" arrival="-1.00" arrivalLane="" arrivalPos="-1.00" arrivalSpeed="-1.00" duration="3477.00" routeLength="710.38" waitingTime="3350.00" waitingCount="8" stopTime="0.00" timeLoss="3431.55" rerouteNo="0" devices="tripinfo_f_0_1.9" vType="type1" speedFactor="1.05" vaporized="end"/>
    <tripinfo id="f_0_2.15" depart="123.00" departLane="np2_nt2_0" departPos="14.44" departSpeed="0.00" departDelay="0.27" arrival="-1.00" arrivalLane="" arrivalPos="-1.00" arrivalSpeed="-1.00" duration="3477.00" routeLength="542.32" waitingTime="3366.00" waitingCount="7" stopTime="0.00" timeLoss="3440.03" rerouteNo="0" devices="tripinfo_f_0_2.15" vType="type1" speedFactor="1.17" vaporized="end"/>
    <tripinfo id="f_0_2.16" depart="131.00" departLane="np2_nt2_0" departPos="33.19" departSpeed="0.00" departDelay="0.09" arrival="-1.00" arrivalLane="" arrivalPos="-1.00" arrivalSpeed="-1.00" duration="3469.00" routeLength="516.08" waitingTime="3348.00" waitingCount="9" stopTime="0.00" timeLoss="3420.80" rerouteNo="0" devices="tripinfo_f_0_2.16" vType="type1" speedFactor="0.85" vaporized="end"/>
    <tripinfo id="f_0_1.10" depart="137.00" departLane="np16_nt1_0" departPos="5.64" departSpeed="0.00" departDelay="0.64" arrival="-1.00" arrivalLane="" arrivalPos="-1.00" arrivalSpeed="-1.00" duration="3463.00" routeLength="707.19" waitingTime="3354.00" waitingCount="8" stopTime="0.00" timeLoss="3421.08" rerouteNo="0" devices="tripinfo_f_0_1.10" vType="type1" speedFactor="1.12" vaporized="end"/>
    <tripinfo id="f_0_2.17" depart="140.00" departLane="np2_nt2_0" departPos="36.66" departSpeed="0.00" departDelay="0.91" arrival="-1.00" arrivalLane="" arrivalPos="-1.00" arrivalSpeed="-1.00" duration="3460.00" routeLength="380.11" waitingTime="3341.00" waitingCount="9" stopTime="0.00" timeLoss="3434.78" rerouteNo="0" devices="tripinfo_f_0_2.17" vType="type1" speedFactor="1.14" vaporized="end"/>
    <tripinfo id="f_0_2.18" depart="148.00" departLane="np2_nt2_0" departPos="8.99" departSpeed="0.00" departDelay="0.72" arrival="-1.00" arrivalLane="" arrivalPos="-1.00" arrivalSpeed="-1.00" duration="3452.00" routeLength="385.29" waitingTime="3333.00" waitingCount="10" stopTime="0.00" timeLoss="3418.80" rerouteNo="0" devices="tripinfo_f_0_2.18" vType="type1" speedFactor="0.88" vaporized="end"/>
    <tripinfo id="f_0_1.11" depart="150.00" departLane="np16_nt1_0" departPos="17.59" departSpeed="0.00" departDelay="0.00" arrival="-1.00" arrivalLane="" arrivalPos="-1.00" arrivalSpeed="-1.00" duration="3450.00" routeLength="680.23" waitingTime="3342.00" waitingCount="8" stopTime="0.00" timeLoss="3400.85" rerouteNo="0" devices="tripinfo_f_0_1.11" vType="type1" speedFactor="0.92" vaporized="end"/>
    <tripinfo id="f_0_2.19" depart="156.00" departLane="np2_nt2_0" departPos="48.38" departSpeed="0.00" departDelay="0.54" arrival="-1.00" arrivalLane="" arrivalPos="-1.00" arrivalSpeed="-1.00" duration="3444.00" routeLength="300.89" waitingTime="3315.00" waitingCount="13" stopTime="0.00" timeLoss="3419.83" rerouteNo="0" devices="tripinfo_f_0_2.19" vType="type1" speedFactor="0.90" vaporized="end"/>
    <tripinfo id="f_0_1.12" depart="164.00" departLane="np16_nt1_0" departPos="19.97" departSpeed="0.00" departDelay="0.37" arrival="-1.00" arrivalLane="" arrivalPos="-1.00" arrivalSpeed="-1.00" duration="3436.00" routeLength="642.88" waitingTime="3336.00" waitingCount="7" stopTime="0.00" timeLoss="3395.79" rerouteNo="0" devices="tripinfo_f_0_1.12" vType="type1" speedFactor="1.04" vaporized="end"/>
    <tripinfo id="f_0_2.20" depart="164.00" departLane="np2_nt2_0" departPos="5.76" departSpeed="0.00" departDelay="0.36" arrival="-1.00" arrivalLane="" arrivalPos="-1.00" arrivalSpeed="-1.00" duration="3436.00" routeLength="244.97" waitingTime="3335.00" waitingCount="15" stopTime="0.00" timeLoss="3419.21" rerouteNo="0" devices="tripinfo_f_0_2.20" vType="type1" speedFactor="0.99" vaporized="end"/>
    <tripinfo id="f_0_2.21" depart="172.00" departLane="np2_nt2_0" departPos="28.05" departSpeed="0.00" departDelay="0.18" arrival="-1.00" arrivalLane="" arrivalPos="-1.00" arrivalSpeed="-1.00" duration="3428.00" routeLength="162.67" waitingTime="3334.00" waitingCount="15" stopTime="0.00" timeLoss="3415.77" rerouteNo="0" devices="tripinfo_f_0_2.21" vType="type1" speedFactor="0.94" vaporized="end"/>
    <tripinfo id="f_0_1.13" depart="178.00" departLane="np16_nt1_0" departPos="3.94" departSpeed="0.00" departDelay="0.73" arrival="-1.00" arrivalLane="" arrivalPos="-1.00" arrivalSpeed="-1.00" duration="3422.00" routeLength="613.91" waitingTime="3294.00" waitingCount="7" stopTime="0.00" timeLoss="3377.38" rerouteNo="0" devices="tripinfo_f_0_1.13" vType="type1" speedFactor="0.86" vaporized="end"/>
    <tripinfo id="f_0_2.22" depart="180.00" departLane="np2_nt2_0" departPos="24.66" departSpeed="0.00" departDelay="0.00" arrival="-1.00" arrivalLane="" arrivalPos="-1.00" arrivalSpeed="-1.00" duration="3420.00" routeLength="150.75" waitingTime="3327.00" waitingCount="13" stopTime="0.00" timeLoss="3410.36" rerouteNo="0" devices="tripinfo_f_0_2.22" vType="type1" speedFactor="1.15" vaporized="end"/>
    <tripinfo id="f_0_2.23" depart="189.00" departLane="np2_nt2_0" departPos="9.45" departSpeed="0.00" departDelay="0.81" arrival="-1.00" arrivalLane="" arrivalPos="-1.00" arrivalSpeed="-1.00" duration="3411.00" routeLength="150.96" waitingTime="3320.00" waitingCount="14" stopTime="0.00" timeLoss="3397.04" rerouteNo="0" devices="tripinfo_f_0_2.23" vType="type1" speedFactor="0.83" vaporized="end"/>
    <tripinfo id="f_0_1.14" depart="191.00" departLane="np16_nt1_0" departPos="10.20" departSpeed="0.00" departDelay="0.10" arrival="-1.00" arrivalLane="" arrivalPos="-1.00" arrivalSpeed="-1.00" duration="3409.00" routeLength="577.64" waitingTime="3275.00" waitingCount="10" stopTime="0.00" timeLoss="3366.54" rerouteNo="0" devices="tripinfo_f_0_1.14" vType="type1" speedFactor="0.83" vaporized="end"/>
    <tripinfo id="f_0_2.24" depart="197.00" departLane="np2_nt2_0" departPos="0.27" departSpeed="0.00" departDelay="0.63" arrival="-1.00" arrivalLane="" arrivalPos="-1.00" arrivalSpeed="-1.00" duration="3403.00" routeLength="151.99" waitingTime="3308.00" waitingCount="12" stopTime="0.00" timeLoss="3390.83" rerouteNo="0" devices="tripinfo_f_0_2.24" vType="type1" speedFactor="0.99" vaporized="end"/>
    <tripinfo id="f_0_1.15" depart="205.00" departLane="np16_nt1_0" departPos="35.94" departSpeed="0.00" departDelay="0.46" arrival="-1.00" arrivalLane="" arrivalPos="-1.00" arrivalSpeed="-1.00" duration="3395.00" routeLength="536.89" waitingTime="3263.00" waitingCount="9" stopTime="0.00" timeLoss="3362.73" rerouteNo="0" devices="tripinfo_f_0_1.15" vType="type1" speedFactor="1.01" vaporized="end"/>
    <tripinfo id="f_0_2.25" depart="205.00" departLane="np2_nt2_0" departPos="0.00" departSpeed="0.00" departDelay="0.45" arrival="-1.00" arrivalLane="" arrivalPos="-1.00" arrivalSpeed="-1.00" duration="3395.00" routeLength="496.76" waitingTime="3282.00" waitingCount="9" stopTime="0.00" timeLoss="3355.70" rerouteNo="0" devices="tripinfo_f_0_2.25" vType="type1" speedFactor="1.00" vaporized="end"/>
    <tripinfo id="f_0_2.26" depart="213.00" departLane="np2_nt2_0" departPos="1.96" departSpeed="0.00" departDelay="0.27" arrival="-1.00" arrivalLane="" arrivalPos="-1.00" arrivalSpeed="-1.00" duration="3387.00" routeLength="479.79" waitingTime="3272.00" waitingCount="10" stopTime="0.00" timeLoss="3352.78" rerouteNo="0" devices="tripinfo_f_0_2.26" vType="type1" speedFactor="1.13" vaporized="end"/>
    <tripinfo id="f_0_1.16" depart="219.00" departLane="np16_nt1_0" departPos="44.48" departSpeed="0.00" departDelay="0.82" arrival="-1.00" arrivalLane="" arrivalPos="-1.00" arrivalSpeed="-1.00" duration="3381.00" routeLength="498.35" waitingTime="3246.00" waitingCount="10" stopTime="0.00" timeLoss="3346.20" rerouteNo="0" devices="tripinfo_f_0_1.16" vType="type1" speedFactor="0.84" vaporized="end"/>
    <tripinfo id="f_0_2.27" depart="221.00" departLane="np2_nt2_0" departPos="1.60" departSpeed="0.00" departDelay="0.09" arrival="-1.00" arrivalLane="" arrivalPos="-1.00" arrivalSpeed="-1.00" duration="3379.00" routeLength="422.67" waitingTime="3257.00" waitingCount="12" stopTime="0.00" timeLoss="3350.09" rerouteNo="0" devices="tripinfo_f_0_2.27" vType="type1" speedFactor="1.13" vaporized="end"/>
    <tripinfo id="f_0_2.28" depart="233.00" departLane="np2_nt2_0" departPos="0.00" departSpeed="0.00" departDelay="3.90" arrival="-1.00" arrivalLane="" arrivalPos="-1.00" arrivalSpeed="-1.00" duration="3367.00" routeLength="431.78" waitingTime="3252.00" waitingCount="10" stopTime="0.00" timeLoss="3326.23" rerouteNo="0" devices="tripinfo_f_0_2.28" vType="type1" speedFactor="0.82" vaporized="end"/>
    <tripinfo id="f_0_1.17" depart="232.00" departLane="np16_nt1_0" departPos="59.20" departSpeed="0.00" departDelay="0.19" arrival="-1.00" arrivalLane="" arrivalPos="-1.00" arrivalSpeed="-1.00" duration="3368.00" routeLength="431.13" waitingTime="3269.00" waitingCount="12" stopTime="0.00" timeLoss="3346.72" rerouteNo="0" devices="tripinfo_f_0_1.17" vType="type1" speedFactor="1.14" vaporized="end"/>
    <tripinfo id="f_0_2.29" depart="256.00" departLane="np2_nt2_0" departPos="0.00" departSpeed="0.00" departDelay="18.72" arrival="-1.00" arrivalLane="" arrivalPos="-1.00" arrivalSpeed="-1.00" duration="3344.00" routeLength="446.78" waitingTime="3241.00" waitingCount="7" stopTime="0.00" timeLoss="3314.70" rerouteNo="0" devices="tripinfo_f_0_2.29" vType="type1" speedFactor="1.20" vaporized="end"/>
    <tripinfo id="f_0_1.18" depart="246.00" departLane="np16_nt1_0" departPos="62.92" departSpeed="0.00" departDelay="0.55" arrival="-1.00" arrivalLane="" arrivalPos="-1.00" arrivalSpeed="-1.00" duration="3354.00" routeLength="381.37" waitingTime="3251.00" waitingCount="10" stopTime="0.00" timeLoss="3332.04" rerouteNo="0" devices="tripinfo_f_0_1.18" vType="type1" speedFactor="0.91" vaporized="end"/>
    <tripinfo id="f_0_2.30" depart="285.00" departLane="np2_nt2_0" departPos="0.00" departSpeed="0.00" departDelay="39.54" arrival="-1.00" arrivalLane="" arrivalPos="-1.00" arrivalSpeed="-1.00" duration="3315.00" routeLength="439.28" waitingTime="3218.00" waitingCount="6" stopTime="0.00" timeLoss="3284.18" rerouteNo="0" devices="tripinfo_f_0_2.30" vType="type1" speedFactor="1.11" vaporized="end"/>
    <tripinfo id="f_0_2.31" depart="288.00" departLane="np2_nt2_0" departPos="2.46" departSpeed="0.00" departDelay="34.36" arrival="-1.00" arrivalLane="" arrivalPos="-1.00" arrivalSpeed="-1.00" duration="3312.00" routeLength="399.32" waitingTime="3208.00" waitingCount="7" stopTime="0.00" timeLoss="3282.09" rerouteNo="0" devices="tripinfo_f_0_2.31" vType="type1" speedFactor="1.03" vaporized="end"/>
    <tripinfo id="f_0_1.19" depart="260.00" departLane="np16_nt1_0" departPos="11.24" departSpeed="0.00" departDelay="0.92" arrival="-1.00" arrivalLane="" arrivalPos="-1.00" arrivalSpeed="-1.00" duration="3340.00" routeLength="255.56" waitingTime="3321.00" waitingCount="1" stopTime="0.00" timeLoss="3326.09" rerouteNo="0" devices="tripinfo_f_0_1.19" vType="type1" speedFactor="0.99" vaporized="end"/>
    <tripinfo id="f_0_2.32" depart="291.00" departLane="np2_nt2_0" departPos="0.00" departSpeed="0.00" departDelay="29.18" arrival="-1.00" arrivalLane="" arrivalPos="-1.00" arrivalSpeed="-1.00" duration="3309.00" routeLength="386.77" waitingTime="3200.00" waitingCount="8" stopTime="0.00" timeLoss="3281.12" rerouteNo="0" devices="tripinfo_f_0_2.32" vType="type1" speedFactor="1.06" vaporized="end"/>