<?xml version="1.0" encoding="UTF-8"?>

<!-- generated on 2023-08-30 18:39:01 by Eclipse SUMO libsumo Version 1.18.0
<configuration xmlns:xsi="http://www.w3.org/2001/XMLSchema-instance" xsi:noNamespaceSchemaLocation="http://sumo.dlr.de/xsd/libsumoConfiguration.xsd">

    <input>
        <net-file value="/home/stefan/RESCO/./environments/arterial4x4/arterial4x4.net.xml"/>
        <route-files value="/home/stefan/RESCO/./environments/arterial4x4/arterial4x4_40.rou.xml"/>
    </input>

    <output>
        <tripinfo-output value="/home/stefan/results/RAINBOW-tr0-arterial4x4-0-drq_norm-wait_norm/tripinfo_40.xml"/>
        <tripinfo-output.write-unfinished value="true"/>
    </output>

    <processing>
        <time-to-teleport value="-1"/>
    </processing>

    <report>
        <no-warnings value="True"/>
        <no-step-log value="True"/>
    </report>

    <random_number>
        <random value="true"/>
    </random_number>

</configuration>
-->

<tripinfos xmlns:xsi="http://www.w3.org/2001/XMLSchema-instance" xsi:noNamespaceSchemaLocation="http://sumo.dlr.de/xsd/tripinfo_file.xsd">
    <tripinfo id="f_0_3.0" depart="0.00" departLane="np3_nt3_0" departPos="5.43" departSpeed="0.00" departDelay="0.00" arrival="152.00" arrivalLane="nt14_np11_0" arrivalPos="75.00" arrivalSpeed="10.41" duration="152.00" routeLength="945.66" waitingTime="51.00" waitingCount="3" stopTime="0.00" timeLoss="75.83" rerouteNo="0" devices="tripinfo_f_0_3.0" vType="type1" speedFactor="1.04" vaporized=""/>
    <tripinfo id="f_0_3.1" depart="9.00" departLane="np3_nt3_0" departPos="42.85" departSpeed="0.00" departDelay="0.82" arrival="154.00" arrivalLane="nt14_np11_0" arrivalPos="75.00" arrivalSpeed="8.53" duration="145.00" routeLength="908.24" waitingTime="46.00" waitingCount="4" stopTime="0.00" timeLoss="68.81" rerouteNo="0" devices="tripinfo_f_0_3.1" vType="type1" speedFactor="0.99" vaporized=""/>
    <tripinfo id="f_0_3.2" depart="17.00" departLane="np3_nt3_0" departPos="27.05" departSpeed="0.00" departDelay="0.64" arrival="172.00" arrivalLane="nt14_np11_0" arrivalPos="75.00" arrivalSpeed="10.18" duration="155.00" routeLength="924.04" waitingTime="42.00" waitingCount="5" stopTime="0.00" timeLoss="75.91" rerouteNo="0" devices="tripinfo_f_0_3.2" vType="type1" speedFactor="0.98" vaporized=""/>
    <tripinfo id="f_0_2.0" depart="0.00" departLane="np2_nt2_0" departPos="17.48" departSpeed="0.00" departDelay="0.00" arrival="256.00" arrivalLane="nt15_np10_0" arrivalPos="75.00" arrivalSpeed="12.47" duration="256.00" routeLength="933.60" waitingTime="159.00" waitingCount="4" stopTime="0.00" timeLoss="187.40" rerouteNo="0" devices="tripinfo_f_0_2.0" vType="type1" speedFactor="1.15" vaporized=""/>
    <tripinfo id="f_0_0.0" depart="0.00" departLane="np13_nt13_0" departPos="58.95" departSpeed="0.00" departDelay="0.00" arrival="274.00" arrivalLane="nt4_np5_0" arrivalPos="75.00" arrivalSpeed="18.76" duration="274.00" routeLength="1288.94" waitingTime="152.00" waitingCount="5" stopTime="0.00" timeLoss="188.44" rerouteNo="0" devices="tripinfo_f_0_0.0" vType="type1" speedFactor="1.06" vaporized=""/>
    <tripinfo id="f_0_3.3" depart="25.00" departLane="np3_nt3_0" departPos="27.74" departSpeed="0.00" departDelay="0.45" arrival="275.00" arrivalLane="nt14_np11_0" arrivalPos="75.00" arrivalSpeed="8.83" duration="250.00" routeLength="923.35" waitingTime="142.00" waitingCount="5" stopTime="0.00" timeLoss="167.09" rerouteNo="0" devices="tripinfo_f_0_3.3" vType="type1" speedFactor="0.94" vaporized=""/>
    <tripinfo id="f_0_3.4" depart="33.00" departLane="np3_nt3_0" departPos="13.53" departSpeed="0.00" departDelay="0.27" arrival="297.00" arrivalLane="nt14_np11_0" arrivalPos="75.00" arrivalSpeed="11.01" duration="264.00" routeLength="937.56" waitingTime="148.00" waitingCount="6" stopTime="0.00" timeLoss="189.25" rerouteNo="0" devices="tripinfo_f_0_3.4" vType="type1" speedFactor="1.05" vaporized=""/>
    <tripinfo id="f_0_0.1" depart="14.00" departLane="np13_nt13_0" departPos="41.93" departSpeed="0.00" departDelay="0.36" arrival="323.00" arrivalLane="nt4_np5_0" arrivalPos="75.00" arrivalSpeed="18.31" duration="309.00" routeLength="1305.96" waitingTime="182.00" waitingCount="6" stopTime="0.00" timeLoss="218.59" rerouteNo="0" devices="tripinfo_f_0_0.1" vType="type1" speedFactor="1.01" vaporized=""/>
    <tripinfo id="f_0_0.2" depart="28.00" departLane="np13_nt13_0" departPos="63.97" departSpeed="0.00" departDelay="0.73" arrival="325.00" arrivalLane="nt4_np5_0" arrivalPos="75.00" arrivalSpeed="19.77" duration="297.00" routeLength="1283.92" waitingTime="164.00" waitingCount="9" stopTime="0.00" timeLoss="210.72" rerouteNo="0" devices="tripinfo_f_0_0.2" vType="type1" speedFactor="1.04" vaporized=""/>
    <tripinfo id="f_0_2.1" depart="9.00" departLane="np2_nt2_0" departPos="21.56" departSpeed="0.00" departDelay="0.82" arrival="329.00" arrivalLane="nt15_np10_0" arrivalPos="75.00" arrivalSpeed="9.11" duration="320.00" routeLength="929.52" waitingTime="200.00" waitingCount="4" stopTime="0.00" timeLoss="228.38" rerouteNo="0" devices="tripinfo_f_0_2.1" vType="type1" speedFactor="0.86" vaporized=""/>
    <tripinfo id="f_0_2.2" depart="17.00" departLane="np2_nt2_0" departPos="47.54" departSpeed="0.00" departDelay="0.64" arrival="331.00" arrivalLane="nt15_np10_0" arrivalPos="75.00" arrivalSpeed="8.75" duration="314.00" routeLength="903.54" waitingTime="197.00" waitingCount="6" stopTime="0.00" timeLoss="233.66" rerouteNo="0" devices="tripinfo_f_0_2.2" vType="type1" speedFactor="0.94" vaporized=""/>
    <tripinfo id="f_0_2.3" depart="25.00" departLane="np2_nt2_0" departPos="25.38" departSpeed="0.00" departDelay="0.45" arrival="332.00" arrivalLane="nt15_np10_0" arrivalPos="75.00" arrivalSpeed="11.62" duration="307.00" routeLength="925.70" waitingTime="202.00" waitingCount="7" stopTime="0.00" timeLoss="238.56" rerouteNo="0" devices="tripinfo_f_0_2.3" vType="type1" speedFactor="1.13" vaporized=""/>
    <tripinfo id="f_0_3.5" depart="41.00" departLane="np3_nt3_0" departPos="15.26" departSpeed="0.00" departDelay="0.09" arrival="397.00" arrivalLane="nt14_np11_0" arrivalPos="75.00" arrivalSpeed="10.82" duration="356.00" routeLength="935.83" waitingTime="234.00" waitingCount="4" stopTime="0.00" timeLoss="277.73" rerouteNo="0" devices="tripinfo_f_0_3.5" vType="type1" speedFactor="1.00" vaporized=""/>
    <tripinfo id="f_0_0.3" depart="41.00" departLane="np13_nt13_0" departPos="9.29" departSpeed="0.00" departDelay="0.09" arrival="399.00" arrivalLane="nt4_np5_0" arrivalPos="75.00" arrivalSpeed="17.85" duration="358.00" routeLength="1338.60" waitingTime="211.00" waitingCount="9" stopTime="0.00" timeLoss="256.78" rerouteNo="0" devices="tripinfo_f_0_0.3" vType="type1" speedFactor="0.92" vaporized=""/>
    <tripinfo id="f_0_3.6" depart="50.00" departLane="np3_nt3_0" departPos="26.88" departSpeed="0.00" departDelay="0.91" arrival="401.00" arrivalLane="nt14_np11_0" arrivalPos="75.00" arrivalSpeed="8.13" duration="351.00" routeLength="924.21" waitingTime="224.00" waitingCount="7" stopTime="0.00" timeLoss="263.37" rerouteNo="0" devices="tripinfo_f_0_3.6" vType="type1" speedFactor="0.89" vaporized=""/>
    <tripinfo id="f_0_1.0" depart="0.00" departLane="np16_nt1_0" departPos="49.75" departSpeed="0.00" departDelay="0.00" arrival="408.00" arrivalLane="nt16_np8_0" arrivalPos="75.00" arrivalSpeed="18.49" duration="408.00" routeLength="1298.13" waitingTime="261.00" waitingCount="11" stopTime="0.00" timeLoss="315.46" rerouteNo="0" devices="tripinfo_f_0_1.0" vType="type1" speedFactor="0.98" vaporized=""/>
    <tripinfo id="f_0_2.4" depart="33.00" departLane="np2_nt2_0" departPos="11.49" departSpeed="0.00" departDelay="0.27" arrival="418.00" arrivalLane="nt15_np10_0" arrivalPos="75.00" arrivalSpeed="9.46" duration="385.00" routeLength="939.59" waitingTime="247.00" waitingCount="10" stopTime="0.00" timeLoss="305.90" rerouteNo="0" devices="tripinfo_f_0_2.4" vType="type1" speedFactor="1.01" vaporized=""/>
    <tripinfo id="f_0_0.4" depart="55.00" departLane="np13_nt13_0" departPos="9.72" departSpeed="0.00" departDelay="0.46" arrival="424.00" arrivalLane="nt4_np5_0" arrivalPos="75.00" arrivalSpeed="15.38" duration="369.00" routeLength="1338.17" waitingTime="208.00" waitingCount="10" stopTime="0.00" timeLoss="261.96" rerouteNo="0" devices="tripinfo_f_0_0.4" vType="type1" speedFactor="0.87" vaporized=""/>
    <tripinfo id="f_0_0.5" depart="69.00" departLane="np13_nt13_0" departPos="14.85" departSpeed="0.00" departDelay="0.82" arrival="425.00" arrivalLane="nt4_np5_0" arrivalPos="75.00" arrivalSpeed="19.93" duration="356.00" routeLength="1333.04" waitingTime="205.00" waitingCount="11" stopTime="0.00" timeLoss="264.73" rerouteNo="0" devices="tripinfo_f_0_0.5" vType="type1" speedFactor="1.01" vaporized=""/>
    <tripinfo id="f_0_2.5" depart="41.00" departLane="np2_nt2_0" departPos="5.96" departSpeed="0.00" departDelay="0.09" arrival="431.00" arrivalLane="nt15_np10_0" arrivalPos="75.00" arrivalSpeed="11.10" duration="390.00" routeLength="945.12" waitingTime="246.00" waitingCount="12" stopTime="0.00" timeLoss="320.00" rerouteNo="0" devices="tripinfo_f_0_2.5" vType="type1" speedFactor="1.13" vaporized=""/>
    <tripinfo id="f_0_0.6" depart="82.00" departLane="np13_nt13_0" departPos="65.98" departSpeed="0.00" departDelay="0.18" arrival="433.00" arrivalLane="nt4_np5_0" arrivalPos="75.00" arrivalSpeed="19.94" duration="351.00" routeLength="1281.91" waitingTime="193.00" waitingCount="12" stopTime="0.00" timeLoss="267.36" rerouteNo="0" devices="tripinfo_f_0_0.6" vType="type1" speedFactor="1.07" vaporized=""/>
    <tripinfo id="f_0_0.7" depart="96.00" departLane="np13_nt13_0" departPos="22.05" departSpeed="0.00" departDelay="0.55" arrival="436.00" arrivalLane="nt4_np5_0" arrivalPos="75.00" arrivalSpeed="15.38" duration="340.00" routeLength="1325.84" waitingTime="162.00" waitingCount="11" stopTime="0.00" timeLoss="236.77" rerouteNo="0" devices="tripinfo_f_0_0.7" vType="type1" speedFactor="0.89" vaporized=""/>
    <tripinfo id="f_0_3.7" depart="58.00" departLane="np3_nt3_0" departPos="7.88" departSpeed="0.00" departDelay="0.73" arrival="447.00" arrivalLane="nt14_np11_0" arrivalPos="75.00" arrivalSpeed="10.92" duration="389.00" routeLength="943.21" waitingTime="260.00" waitingCount="9" stopTime="0.00" timeLoss="312.93" rerouteNo="0" devices="tripinfo_f_0_3.7" vType="type1" speedFactor="1.05" vaporized=""/>
    <tripinfo id="f_0_3.8" depart="66.00" departLane="np3_nt3_0" departPos="10.60" departSpeed="0.00" departDelay="0.54" arrival="449.00" arrivalLane="nt14_np11_0" arrivalPos="75.00" arrivalSpeed="11.03" duration="383.00" routeLength="940.49" waitingTime="247.00" waitingCount="10" stopTime="0.00" timeLoss="304.35" rerouteNo="0" devices="tripinfo_f_0_3.8" vType="type1" speedFactor="1.01" vaporized=""/>
    <tripinfo id="f_0_0.8" depart="110.00" departLane="np13_nt13_0" departPos="21.25" departSpeed="0.00" departDelay="0.91" arrival="458.00" arrivalLane="nt4_np5_0" arrivalPos="75.00" arrivalSpeed="15.74" duration="348.00" routeLength="1326.64" waitingTime="172.00" waitingCount="10" stopTime="0.00" timeLoss="243.65" rerouteNo="0" devices="tripinfo_f_0_0.8" vType="type1" speedFactor="0.88" vaporized=""/>
    <tripinfo id="f_0_3.9" depart="74.00" departLane="np3_nt3_0" departPos="1.41" departSpeed="0.00" departDelay="0.36" arrival="494.00" arrivalLane="nt14_np11_0" arrivalPos="75.00" arrivalSpeed="8.95" duration="420.00" routeLength="949.68" waitingTime="279.00" waitingCount="9" stopTime="0.00" timeLoss="338.33" rerouteNo="0" devices="tripinfo_f_0_3.9" vType="type1" speedFactor="0.98" vaporized=""/>
    <tripinfo id="f_0_3.10" depart="82.00" departLane="np3_nt3_0" departPos="9.57" departSpeed="0.00" departDelay="0.18" arrival="501.00" arrivalLane="nt14_np11_0" arrivalPos="75.00" arrivalSpeed="11.66" duration="419.00" routeLength="941.52" waitingTime="287.00" waitingCount="9" stopTime="0.00" timeLoss="344.83" rerouteNo="0" devices="tripinfo_f_0_3.10" vType="type1" speedFactor="1.06" vaporized=""/>
    <tripinfo id="f_0_3.11" depart="90.00" departLane="np3_nt3_0" departPos="23.33" departSpeed="0.00" departDelay="0.00" arrival="505.00" arrivalLane="nt14_np11_0" arrivalPos="75.00" arrivalSpeed="7.93" duration="415.00" routeLength="927.76" waitingTime="278.00" waitingCount="9" stopTime="0.00" timeLoss="328.51" rerouteNo="0" devices="tripinfo_f_0_3.11" vType="type1" speedFactor="0.90" vaporized=""/>
    <tripinfo id="f_0_3.12" depart="99.00" departLane="np3_nt3_0" departPos="11.21" departSpeed="0.00" departDelay="0.82" arrival="507.00" arrivalLane="nt14_np11_0" arrivalPos="75.00" arrivalSpeed="7.77" duration="408.00" routeLength="939.88" waitingTime="262.00" waitingCount="8" stopTime="0.00" timeLoss="322.97" rerouteNo="0" devices="tripinfo_f_0_3.12" vType="type1" speedFactor="0.93" vaporized=""/>
    <tripinfo id="f_0_2.6" depart="50.00" departLane="np2_nt2_0" departPos="58.39" departSpeed="0.00" departDelay="0.91" arrival="531.00" arrivalLane="nt15_np10_0" arrivalPos="75.00" arrivalSpeed="12.18" duration="481.00" routeLength="892.69" waitingTime="339.00" waitingCount="14" stopTime="0.00" timeLoss="414.41" rerouteNo="0" devices="tripinfo_f_0_2.6" vType="type1" speedFactor="1.13" vaporized=""/>
    <tripinfo id="f_0_2.7" depart="58.00" departLane="np2_nt2_0" departPos="58.98" departSpeed="0.00" departDelay="0.73" arrival="533.00" arrivalLane="nt15_np10_0" arrivalPos="75.00" arrivalSpeed="10.30" duration="475.00" routeLength="892.10" waitingTime="350.00" waitingCount="10" stopTime="0.00" timeLoss="408.25" rerouteNo="0" devices="tripinfo_f_0_2.7" vType="type1" speedFactor="1.12" vaporized=""/>
    <tripinfo id="f_0_2.8" depart="66.00" departLane="np2_nt2_0" departPos="38.11" departSpeed="0.00" departDelay="0.54" arrival="540.00" arrivalLane="nt15_np10_0" arrivalPos="75.00" arrivalSpeed="8.19" duration="474.00" routeLength="912.97" waitingTime="321.00" waitingCount="13" stopTime="0.00" timeLoss="394.87" rerouteNo="0" devices="tripinfo_f_0_2.8" vType="type1" speedFactor="0.97" vaporized=""/>
    <tripinfo id="f_0_1.5" depart="69.00" departLane="np16_nt1_0" departPos="50.60" departSpeed="0.00" departDelay="0.82" arrival="548.00" arrivalLane="nt16_np8_0" arrivalPos="75.00" arrivalSpeed="19.15" duration="479.00" routeLength="1297.28" waitingTime="344.00" waitingCount="8" stopTime="0.00" timeLoss="393.93" rerouteNo="0" devices="tripinfo_f_0_1.5" vType="type1" speedFactor="1.07" vaporized=""/>
    <tripinfo id="f_0_3.13" depart="107.00" departLane="np3_nt3_0" departPos="3.31" departSpeed="0.00" departDelay="0.63" arrival="555.00" arrivalLane="nt14_np11_0" arrivalPos="75.00" arrivalSpeed="8.40" duration="448.00" routeLength="947.78" waitingTime="296.00" waitingCount="9" stopTime="0.00" timeLoss="349.05" rerouteNo="0" devices="tripinfo_f_0_3.13" vType="type1" speedFactor="0.81" vaporized=""/>
    <tripinfo id="f_0_3.14" depart="115.00" departLane="np3_nt3_0" departPos="0.69" departSpeed="0.00" departDelay="0.45" arrival="557.00" arrivalLane="nt14_np11_0" arrivalPos="75.00" arrivalSpeed="9.47" duration="442.00" routeLength="950.40" waitingTime="282.00" waitingCount="8" stopTime="0.00" timeLoss="352.11" rerouteNo="0" devices="tripinfo_f_0_3.14" vType="type1" speedFactor="0.89" vaporized=""/>
    <tripinfo id="f_0_0.9" depart="123.00" departLane="np13_nt13_0" departPos="32.61" departSpeed="0.00" departDelay="0.28" arrival="568.00" arrivalLane="nt4_np5_0" arrivalPos="75.00" arrivalSpeed="20.46" duration="445.00" routeLength="1315.28" waitingTime="286.00" waitingCount="13" stopTime="0.00" timeLoss="359.51" rerouteNo="0" devices="tripinfo_f_0_0.9" vType="type1" speedFactor="1.07" vaporized=""/>
    <tripinfo id="f_0_0.10" depart="137.00" departLane="np13_nt13_0" departPos="43.99" departSpeed="0.00" departDelay="0.64" arrival="598.00" arrivalLane="nt4_np5_0" arrivalPos="75.00" arrivalSpeed="20.54" duration="461.00" routeLength="1303.90" waitingTime="280.00" waitingCount="15" stopTime="0.00" timeLoss="372.92" rerouteNo="0" devices="tripinfo_f_0_0.10" vType="type1" speedFactor="1.03" vaporized=""/>
    <tripinfo id="f_0_0.11" depart="150.00" departLane="np13_nt13_0" departPos="25.41" departSpeed="0.00" departDelay="0.00" arrival="600.00" arrivalLane="nt4_np5_0" arrivalPos="75.00" arrivalSpeed="18.53" duration="450.00" routeLength="1322.48" waitingTime="271.00" waitingCount="11" stopTime="0.00" timeLoss="350.99" rerouteNo="0" devices="tripinfo_f_0_0.11" vType="type1" speedFactor="0.93" vaporized=""/>
    <tripinfo id="f_0_1.1" depart="14.00" departLane="np16_nt1_0" departPos="61.31" departSpeed="0.00" departDelay="0.36" arrival="618.00" arrivalLane="nt16_np8_0" arrivalPos="75.00" arrivalSpeed="16.58" duration="604.00" routeLength="1286.57" waitingTime="421.00" waitingCount="17" stopTime="0.00" timeLoss="509.11" rerouteNo="0" devices="tripinfo_f_0_1.1" vType="type1" speedFactor="0.94" vaporized=""/>
    <tripinfo id="f_0_1.6" depart="82.00" departLane="np16_nt1_0" departPos="55.81" departSpeed="0.00" departDelay="0.18" arrival="620.00" arrivalLane="nt16_np8_0" arrivalPos="75.00" arrivalSpeed="16.77" duration="538.00" routeLength="1292.07" waitingTime="363.00" waitingCount="15" stopTime="0.00" timeLoss="440.76" rerouteNo="0" devices="tripinfo_f_0_1.6" vType="type1" speedFactor="0.93" vaporized=""/>
    <tripinfo id="f_0_0.12" depart="164.00" departLane="np13_nt13_0" departPos="11.11" departSpeed="0.00" departDelay="0.37" arrival="624.00" arrivalLane="nt4_np5_0" arrivalPos="75.00" arrivalSpeed="16.39" duration="460.00" routeLength="1336.78" waitingTime="276.00" waitingCount="13" stopTime="0.00" timeLoss="352.62" rerouteNo="0" devices="tripinfo_f_0_0.12" vType="type1" speedFactor="0.86" vaporized=""/>
    <tripinfo id="f_0_0.13" depart="178.00" departLane="np13_nt13_0" departPos="14.17" departSpeed="0.00" departDelay="0.73" arrival="633.00" arrivalLane="nt4_np5_0" arrivalPos="75.00" arrivalSpeed="22.37" duration="455.00" routeLength="1333.72" waitingTime="265.00" waitingCount="15" stopTime="0.00" timeLoss="372.74" rerouteNo="0" devices="tripinfo_f_0_0.13" vType="type1" speedFactor="1.12" vaporized=""/>
    <tripinfo id="f_0_0.14" depart="191.00" departLane="np13_nt13_0" departPos="18.94" departSpeed="0.00" departDelay="0.10" arrival="635.00" arrivalLane="nt4_np5_0" arrivalPos="75.00" arrivalSpeed="18.59" duration="444.00" routeLength="1328.95" waitingTime="261.00" waitingCount="15" stopTime="0.00" timeLoss="352.70" rerouteNo="0" devices="tripinfo_f_0_0.14" vType="type1" speedFactor="1.01" vaporized=""/>
    <tripinfo id="f_0_2.9" depart="74.00" departLane="np2_nt2_0" departPos="1.91" departSpeed="0.00" departDelay="0.36" arrival="637.00" arrivalLane="nt15_np10_0" arrivalPos="75.00" arrivalSpeed="10.93" duration="563.00" routeLength="949.17" waitingTime="389.00" waitingCount="15" stopTime="0.00" timeLoss="486.56" rerouteNo="0" devices="tripinfo_f_0_2.9" vType="type1" speedFactor="1.05" vaporized=""/>
    <tripinfo id="f_0_3.15" depart="138.00" departLane="np3_nt3_0" departPos="0.63" departSpeed="0.00" departDelay="15.27" arrival="643.00" arrivalLane="nt14_np11_0" arrivalPos="75.00" arrivalSpeed="10.72" duration="505.00" routeLength="950.46" waitingTime="346.00" waitingCount="9" stopTime="0.00" timeLoss="425.66" rerouteNo="0" devices="tripinfo_f_0_3.15" vType="type1" speedFactor="1.02" vaporized=""/>
    <tripinfo id="f_0_3.16" depart="141.00" departLane="np3_nt3_0" departPos="0.00" departSpeed="0.00" departDelay="10.09" arrival="663.00" arrivalLane="nt14_np11_0" arrivalPos="75.00" arrivalSpeed="8.26" duration="522.00" routeLength="951.09" waitingTime="355.00" waitingCount="11" stopTime="0.00" timeLoss="439.73" rerouteNo="0" devices="tripinfo_f_0_3.16" vType="type1" speedFactor="0.97" vaporized=""/>
    <tripinfo id="f_0_3.17" depart="148.00" departLane="np3_nt3_0" departPos="0.00" departSpeed="0.00" departDelay="8.91" arrival="665.00" arrivalLane="nt14_np11_0" arrivalPos="75.00" arrivalSpeed="11.34" duration="517.00" routeLength="951.09" waitingTime="351.00" waitingCount="11" stopTime="0.00" timeLoss="446.68" rerouteNo="0" devices="tripinfo_f_0_3.17" vType="type1" speedFactor="1.14" vaporized=""/>
    <tripinfo id="f_0_3.18" depart="152.00" departLane="np3_nt3_0" departPos="0.00" departSpeed="0.00" departDelay="4.72" arrival="667.00" arrivalLane="nt14_np11_0" arrivalPos="75.00" arrivalSpeed="10.40" duration="515.00" routeLength="951.09" waitingTime="344.00" waitingCount="11" stopTime="0.00" timeLoss="441.38" rerouteNo="0" devices="tripinfo_f_0_3.18" vType="type1" speedFactor="1.09" vaporized=""/>
    <tripinfo id="f_0_0.15" depart="205.00" departLane="np13_nt13_0" departPos="44.32" departSpeed="0.00" departDelay="0.46" arrival="669.00" arrivalLane="nt4_np5_0" arrivalPos="75.00" arrivalSpeed="17.60" duration="464.00" routeLength="1303.57" waitingTime="267.00" waitingCount="16" stopTime="0.00" timeLoss="360.61" rerouteNo="0" devices="tripinfo_f_0_0.15" vType="type1" speedFactor="0.88" vaporized=""/>
    <tripinfo id="f_0_1.2" depart="28.00" departLane="np16_nt1_0" departPos="37.33" departSpeed="0.00" departDelay="0.73" arrival="674.00" arrivalLane="nt16_np8_0" arrivalPos="75.00" arrivalSpeed="17.12" duration="646.00" routeLength="1310.55" waitingTime="430.00" waitingCount="17" stopTime="0.00" timeLoss="544.13" rerouteNo="0" devices="tripinfo_f_0_1.2" vType="type1" speedFactor="0.90" vaporized=""/>
    <tripinfo id="f_0_2.10" depart="82.00" departLane="np2_nt2_0" departPos="4.00" departSpeed="0.00" departDelay="0.18" arrival="718.00" arrivalLane="nt15_np10_0" arrivalPos="75.00" arrivalSpeed="9.62" duration="636.00" routeLength="947.08" waitingTime="451.00" waitingCount="19" stopTime="0.00" timeLoss="553.34" rerouteNo="0" devices="tripinfo_f_0_2.10" vType="type1" speedFactor="0.97" vaporized=""/>
    <tripinfo id="f_0_3.19" depart="183.00" departLane="np3_nt3_0" departPos="0.00" departSpeed="0.00" departDelay="27.54" arrival="723.00" arrivalLane="nt14_np11_0" arrivalPos="75.00" arrivalSpeed="9.59" duration="540.00" routeLength="951.09" waitingTime="378.00" waitingCount="10" stopTime="0.00" timeLoss="453.28" rerouteNo="0" devices="tripinfo_f_0_3.19" vType="type1" speedFactor="0.92" vaporized=""/>
    <tripinfo id="f_0_0.16" depart="219.00" departLane="np13_nt13_0" departPos="44.29" departSpeed="0.00" departDelay="0.82" arrival="724.00" arrivalLane="nt4_np5_0" arrivalPos="75.00" arrivalSpeed="19.95" duration="505.00" routeLength="1303.60" waitingTime="322.00" waitingCount="11" stopTime="0.00" timeLoss="415.85" rerouteNo="0" devices="tripinfo_f_0_0.16" vType="type1" speedFactor="1.03" vaporized=""/>
    <tripinfo id="f_0_0.17" depart="232.00" departLane="np13_nt13_0" departPos="33.06" departSpeed="0.00" departDelay="0.19" arrival="727.00" arrivalLane="nt4_np5_0" arrivalPos="75.00" arrivalSpeed="14.56" duration="495.00" routeLength="1314.83" waitingTime="292.00" waitingCount="11" stopTime="0.00" timeLoss="374.19" rerouteNo="0" devices="tripinfo_f_0_0.17" vType="type1" speedFactor="0.76" vaporized=""/>
    <tripinfo id="f_0_0.18" depart="246.00" departLane="np13_nt13_0" departPos="43.69" departSpeed="0.00" departDelay="0.55" arrival="728.00" arrivalLane="nt4_np5_0" arrivalPos="75.00" arrivalSpeed="18.12" duration="482.00" routeLength="1304.20" waitingTime="295.00" waitingCount="9" stopTime="0.00" timeLoss="389.43" rerouteNo="0" devices="tripinfo_f_0_0.18" vType="type1" speedFactor="0.99" vaporized=""/>
    <tripinfo id="f_0_0.19" depart="260.00" departLane="np13_nt13_0" departPos="32.80" departSpeed="0.00" departDelay="0.92" arrival="730.00" arrivalLane="nt4_np5_0" arrivalPos="75.00" arrivalSpeed="18.55" duration="470.00" routeLength="1315.09" waitingTime="283.00" waitingCount="10" stopTime="0.00" timeLoss="379.05" rerouteNo="0" devices="tripinfo_f_0_0.19" vType="type1" speedFactor="1.01" vaporized=""/>
    <tripinfo id="f_0_0.20" depart="273.00" departLane="np13_nt13_0" departPos="26.29" departSpeed="0.00" departDelay="0.28" arrival="731.00" arrivalLane="nt4_np5_0" arrivalPos="75.00" arrivalSpeed="16.92" duration="458.00" routeLength="1321.60" waitingTime="284.00" waitingCount="11" stopTime="0.00" timeLoss="356.70" rerouteNo="0" devices="tripinfo_f_0_0.20" vType="type1" speedFactor="0.91" vaporized=""/>
    <tripinfo id="f_0_0.21" depart="287.00" departLane="np13_nt13_0" departPos="10.68" departSpeed="0.00" departDelay="0.64" arrival="733.00" arrivalLane="nt4_np5_0" arrivalPos="75.00" arrivalSpeed="15.65" duration="446.00" routeLength="1337.21" waitingTime="267.00" waitingCount="8" stopTime="0.00" timeLoss="343.57" rerouteNo="0" devices="tripinfo_f_0_0.21" vType="type1" speedFactor="0.91" vaporized=""/>
    <tripinfo id="f_0_0.22" depart="300.00" departLane="np13_nt13_0" departPos="51.27" departSpeed="0.00" departDelay="0.01" arrival="735.00" arrivalLane="nt4_np5_0" arrivalPos="75.00" arrivalSpeed="16.28" duration="435.00" routeLength="1296.62" waitingTime="265.00" waitingCount="10" stopTime="0.00" timeLoss="333.06" rerouteNo="0" devices="tripinfo_f_0_0.22" vType="type1" speedFactor="0.90" vaporized=""/>
    <tripinfo id="f_1_0.0" depart="300.00" departLane="np13_nt13_0" departPos="31.84" departSpeed="0.00" departDelay="0.00" arrival="743.00" arrivalLane="nt4_np5_0" arrivalPos="75.00" arrivalSpeed="21.19" duration="443.00" routeLength="1316.05" waitingTime="275.00" waitingCount="13" stopTime="0.00" timeLoss="362.38" rerouteNo="0" devices="tripinfo_f_1_0.0" vType="type1" speedFactor="1.14" vaporized=""/>
    <tripinfo id="f_1_0.1" depart="308.00" departLane="np13_nt13_0" departPos="31.84" departSpeed="0.00" departDelay="0.19" arrival="744.00" arrivalLane="nt4_np5_0" arrivalPos="75.00" arrivalSpeed="21.59" duration="436.00" routeLength="1316.05" waitingTime="268.00" waitingCount="11" stopTime="0.00" timeLoss="356.95" rerouteNo="0" devices="tripinfo_f_1_0.1" vType="type1" speedFactor="1.16" vaporized=""/>
    <tripinfo id="f_0_1.7" depart="96.00" departLane="np16_nt1_0" departPos="6.07" departSpeed="0.00" departDelay="0.55" arrival="758.00" arrivalLane="nt16_np8_0" arrivalPos="75.00" arrivalSpeed="17.58" duration="662.00" routeLength="1341.81" waitingTime="498.00" waitingCount="13" stopTime="0.00" timeLoss="569.01" rerouteNo="0" devices="tripinfo_f_0_1.7" vType="type1" speedFactor="1.00" vaporized=""/>
    <tripinfo id="f_0_1.8" depart="110.00" departLane="np16_nt1_0" departPos="52.73" departSpeed="0.00" departDelay="0.91" arrival="760.00" arrivalLane="nt16_np8_0" arrivalPos="75.00" arrivalSpeed="18.76" duration="650.00" routeLength="1295.15" waitingTime="468.00" waitingCount="18" stopTime="0.00" timeLoss="560.53" rerouteNo="0" devices="tripinfo_f_0_1.8" vType="type1" speedFactor="1.02" vaporized=""/>
    <tripinfo id="f_0_2.23" depart="189.00" departLane="np2_nt2_0" departPos="12.86" departSpeed="0.00" departDelay="0.81" arrival="773.00" arrivalLane="nt15_np10_0" arrivalPos="75.00" arrivalSpeed="9.66" duration="584.00" routeLength="938.22" waitingTime="424.00" waitingCount="17" stopTime="0.00" timeLoss="500.01" rerouteNo="0" devices="tripinfo_f_0_2.23" vType="type1" speedFactor="0.94" vaporized=""/>
    <tripinfo id="f_0_2.28" depart="230.00" departLane="np2_nt2_0" departPos="47.90" departSpeed="0.00" departDelay="0.90" arrival="776.00" arrivalLane="nt15_np10_0" arrivalPos="75.00" arrivalSpeed="9.49" duration="546.00" routeLength="903.18" waitingTime="418.00" waitingCount="12" stopTime="0.00" timeLoss="476.11" rerouteNo="0" devices="tripinfo_f_0_2.28" vType="type1" speedFactor="1.08" vaporized=""/>
    <tripinfo id="f_0_1.9" depart="123.00" departLane="np16_nt1_0" departPos="35.96" departSpeed="0.00" departDelay="0.28" arrival="788.00" arrivalLane="nt16_np8_0" arrivalPos="75.00" arrivalSpeed="18.82" duration="665.00" routeLength="1311.92" waitingTime="469.00" waitingCount="20" stopTime="0.00" timeLoss="571.66" rerouteNo="0" devices="tripinfo_f_0_1.9" vType="type1" speedFactor="0.98" vaporized=""/>
    <tripinfo id="f_0_3.20" depart="185.00" departLane="np3_nt3_0" departPos="0.00" departSpeed="0.00" departDelay="21.36" arrival="807.00" arrivalLane="nt14_np11_0" arrivalPos="75.00" arrivalSpeed="10.19" duration="622.00" routeLength="951.09" waitingTime="457.00" waitingCount="12" stopTime="0.00" timeLoss="546.11" rerouteNo="0" devices="tripinfo_f_0_3.20" vType="type1" speedFactor="1.06" vaporized=""/>
    <tripinfo id="f_0_3.21" depart="188.00" departLane="np3_nt3_0" departPos="0.20" departSpeed="0.00" departDelay="16.18" arrival="809.00" arrivalLane="nt14_np11_0" arrivalPos="75.00" arrivalSpeed="9.38" duration="621.00" routeLength="950.89" waitingTime="447.00" waitingCount="11" stopTime="0.00" timeLoss="543.05" rerouteNo="0" devices="tripinfo_f_0_3.21" vType="type1" speedFactor="1.02" vaporized=""/>
    <tripinfo id="f_0_2.29" depart="238.00" departLane="np2_nt2_0" departPos="5.93" departSpeed="0.00" departDelay="0.72" arrival="818.00" arrivalLane="nt15_np10_0" arrivalPos="75.00" arrivalSpeed="8.41" duration="580.00" routeLength="945.15" waitingTime="441.00" waitingCount="12" stopTime="0.00" timeLoss="494.66" rerouteNo="0" devices="tripinfo_f_0_2.29" vType="type1" speedFactor="0.93" vaporized=""/>
    <tripinfo id="f_0_2.25" depart="205.00" departLane="np2_nt2_0" departPos="19.86" departSpeed="0.00" departDelay="0.45" arrival="820.00" arrivalLane="nt15_np10_0" arrivalPos="75.00" arrivalSpeed="9.50" duration="615.00" routeLength="931.22" waitingTime="462.00" waitingCount="13" stopTime="0.00" timeLoss="536.30" rerouteNo="0" devices="tripinfo_f_0_2.25" vType="type1" speedFactor="0.99" vaporized=""/>
    <tripinfo id="f_0_2.30" depart="246.00" departLane="np2_nt2_0" departPos="6.14" departSpeed="0.00" departDelay="0.54" arrival="831.00" arrivalLane="nt15_np10_0" arrivalPos="75.00" arrivalSpeed="9.89" duration="585.00" routeLength="944.94" waitingTime="433.00" waitingCount="13" stopTime="0.00" timeLoss="512.38" rerouteNo="0" devices="tripinfo_f_0_2.30" vType="type1" speedFactor="1.10" vaporized=""/>