<?xml version="1.0" encoding="UTF-8"?>

<!-- generated on 2023-08-30 19:50:51 by Eclipse SUMO libsumo Version 1.18.0
<configuration xmlns:xsi="http://www.w3.org/2001/XMLSchema-instance" xsi:noNamespaceSchemaLocation="http://sumo.dlr.de/xsd/libsumoConfiguration.xsd">

    <input>
        <net-file value="/home/stefan/RESCO/./environments/arterial4x4/arterial4x4.net.xml"/>
        <route-files value="/home/stefan/RESCO/./environments/arterial4x4/arterial4x4_100.rou.xml"/>
    </input>

    <output>
        <tripinfo-output value="/home/stefan/results/RAINBOW-tr0-arterial4x4-0-drq_norm-wait_norm/tripinfo_100.xml"/>
        <tripinfo-output.write-unfinished value="true"/>
    </output>

    <processing>
        <time-to-teleport value="-1"/>
    </processing>

    <report>
        <no-warnings value="True"/>
        <no-step-log value="True"/>
    </report>

    <random_number>
        <random value="true"/>
    </random_number>

</configuration>
-->

<tripinfos xmlns:xsi="http://www.w3.org/2001/XMLSchema-instance" xsi:noNamespaceSchemaLocation="http://sumo.dlr.de/xsd/tripinfo_file.xsd">
    <tripinfo id="f_0_0.0" depart="0.00" departLane="np13_nt13_0" departPos="47.51" departSpeed="0.00" departDelay="0.00" arrival="-1.00" arrivalLane="" arrivalPos="-1.00" arrivalSpeed="-1.00" duration="3600.00" routeLength="1007.52" waitingTime="3514.00" waitingCount="3" stopTime="0.00" timeLoss="3536.05" rerouteNo="0" devices="tripinfo_f_0_0.0" vType="type1" speedFactor="1.19" vaporized="end"/>
    <tripinfo id="f_0_1.0" depart="0.00" departLane="np16_nt1_0" departPos="34.89" departSpeed="0.00" departDelay="0.00" arrival="-1.00" arrivalLane="" arrivalPos="-1.00" arrivalSpeed="-1.00" duration="3600.00" routeLength="231.91" waitingTime="3582.00" waitingCount="1" stopTime="0.00" timeLoss="3587.53" rerouteNo="0" devices="tripinfo_f_0_1.0" vType="type1" speedFactor="1.01" vaporized="end"/>
    <tripinfo id="f_0_2.0" depart="0.00" departLane="np2_nt2_0" departPos="33.17" departSpeed="0.00" departDelay="0.00" arrival="-1.00" arrivalLane="" arrivalPos="-1.00" arrivalSpeed="-1.00" duration="3600.00" routeLength="821.11" waitingTime="3500.00" waitingCount="3" stopTime="0.00" timeLoss="3522.31" rerouteNo="0" devices="tripinfo_f_0_2.0" vType="type1" speedFactor="0.89" vaporized="end"/>
    <tripinfo id="f_0_3.0" depart="0.00" departLane="np3_nt3_0" departPos="18.03" departSpeed="0.00" departDelay="0.00" arrival="-1.00" arrivalLane="" arrivalPos="-1.00" arrivalSpeed="-1.00" duration="3600.00" routeLength="45.57" waitingTime="3591.00" waitingCount="1" stopTime="0.00" timeLoss="3595.21" rerouteNo="0" devices="tripinfo_f_0_3.0" vType="type1" speedFactor="1.09" vaporized="end"/>
    <tripinfo id="f_0_2.1" depart="9.00" departLane="np2_nt2_0" departPos="28.76" departSpeed="0.00" departDelay="0.82" arrival="-1.00" arrivalLane="" arrivalPos="-1.00" arrivalSpeed="-1.00" duration="3591.00" routeLength="818.01" waitingTime="3498.00" waitingCount="3" stopTime="0.00" timeLoss="3524.14" rerouteNo="0" devices="tripinfo_f_0_2.1" vType="type1" speedFactor="1.03" vaporized="end"/>
    <tripinfo id="f_0_3.1" depart="9.00" departLane="np3_nt3_0" departPos="25.75" departSpeed="0.00" departDelay="0.82" arrival="-1.00" arrivalLane="" arrivalPos="-1.00" arrivalSpeed="-1.00" duration="3591.00" routeLength="30.35" waitingTime="3584.00" waitingCount="1" stopTime="0.00" timeLoss="3587.23" rerouteNo="0" devices="tripinfo_f_0_3.1" vType="type1" speedFactor="0.99" vaporized="end"/>
    <tripinfo id="f_0_0.1" depart="14.00" departLane="np13_nt13_0" departPos="52.75" departSpeed="0.00" departDelay="0.36" arrival="-1.00" arrivalLane="" arrivalPos="-1.00" arrivalSpeed="-1.00" duration="3586.00" routeLength="994.78" waitingTime="3473.00" waitingCount="4" stopTime="0.00" timeLoss="3497.92" rerouteNo="0" devices="tripinfo_f_0_0.1" vType="type1" speedFactor="0.85" vaporized="end"/>
    <tripinfo id="f_0_1.1" depart="14.00" departLane="np16_nt1_0" departPos="19.20" departSpeed="0.00" departDelay="0.36" arrival="-1.00" arrivalLane="" arrivalPos="-1.00" arrivalSpeed="-1.00" duration="3586.00" routeLength="240.10" waitingTime="3568.00" waitingCount="1" stopTime="0.00" timeLoss="3574.32" rerouteNo="0" devices="tripinfo_f_0_1.1" vType="type1" speedFactor="1.12" vaporized="end"/>
    <tripinfo id="f_0_2.2" depart="17.00" departLane="np2_nt2_0" departPos="15.55" departSpeed="0.00" departDelay="0.64" arrival="-1.00" arrivalLane="" arrivalPos="-1.00" arrivalSpeed="-1.00" duration="3583.00" routeLength="823.73" waitingTime="3497.00" waitingCount="4" stopTime="0.00" timeLoss="3520.58" rerouteNo="0" devices="tripinfo_f_0_2.2" vType="type1" speedFactor="1.11" vaporized="end"/>
    <tripinfo id="f_0_3.2" depart="17.00" departLane="np3_nt3_0" departPos="37.04" departSpeed="0.00" departDelay="0.64" arrival="-1.00" arrivalLane="" arrivalPos="-1.00" arrivalSpeed="-1.00" duration="3583.00" routeLength="11.55" waitingTime="3577.00" waitingCount="1" stopTime="0.00" timeLoss="3580.98" rerouteNo="0" devices="tripinfo_f_0_3.2" vType="type1" speedFactor="1.03" vaporized="end"/>
    <tripinfo id="f_0_2.3" depart="25.00" departLane="np2_nt2_0" departPos="11.66" departSpeed="0.00" departDelay="0.45" arrival="-1.00" arrivalLane="" arrivalPos="-1.00" arrivalSpeed="-1.00" duration="3575.00" routeLength="820.12" waitingTime="3484.00" waitingCount="4" stopTime="0.00" timeLoss="3508.06" rerouteNo="0" devices="tripinfo_f_0_2.3" vType="type1" speedFactor="1.02" vaporized="end"/>
    <tripinfo id="f_0_3.3" depart="25.00" departLane="np3_nt3_0" departPos="11.88" departSpeed="0.00" departDelay="0.45" arrival="-1.00" arrivalLane="" arrivalPos="-1.00" arrivalSpeed="-1.00" duration="3575.00" routeLength="29.21" waitingTime="3568.00" waitingCount="1" stopTime="0.00" timeLoss="3571.56" rerouteNo="0" devices="tripinfo_f_0_3.3" vType="type1" speedFactor="1.09" vaporized="end"/>
    <tripinfo id="f_0_0.2" depart="28.00" departLane="np13_nt13_0" departPos="7.71" departSpeed="0.00" departDelay="0.73" arrival="-1.00" arrivalLane="" arrivalPos="-1.00" arrivalSpeed="-1.00" duration="3572.00" routeLength="1032.31" waitingTime="3450.00" waitingCount="5" stopTime="0.00" timeLoss="3483.12" rerouteNo="0" devices="tripinfo_f_0_0.2" vType="type1" speedFactor="0.86" vaporized="end"/>
    <tripinfo id="f_0_1.2" depart="28.00" departLane="np16_nt1_0" departPos="61.61" departSpeed="0.00" departDelay="0.73" arrival="-1.00" arrivalLane="" arrivalPos="-1.00" arrivalSpeed="-1.00" duration="3572.00" routeLength="190.19" waitingTime="3555.00" waitingCount="1" stopTime="0.00" timeLoss="3559.69" rerouteNo="0" devices="tripinfo_f_0_1.2" vType="type1" speedFactor="0.84" vaporized="end"/>
    <tripinfo id="f_0_2.4" depart="33.00" departLane="np2_nt2_0" departPos="1.12" departSpeed="0.00" departDelay="0.27" arrival="-1.00" arrivalLane="" arrivalPos="-1.00" arrivalSpeed="-1.00" duration="3567.00" routeLength="653.16" waitingTime="3496.00" waitingCount="4" stopTime="0.00" timeLoss="3517.51" rerouteNo="0" devices="tripinfo_f_0_2.4" vType="type1" speedFactor="1.09" vaporized="end"/>
    <tripinfo id="f_0_3.4" depart="33.00" departLane="np3_nt3_0" departPos="13.98" departSpeed="0.00" departDelay="0.27" arrival="-1.00" arrivalLane="" arrivalPos="-1.00" arrivalSpeed="-1.00" duration="3567.00" routeLength="19.61" waitingTime="3561.00" waitingCount="1" stopTime="0.00" timeLoss="3564.25" rerouteNo="0" devices="tripinfo_f_0_3.4" vType="type1" speedFactor="1.02" vaporized="end"/>
    <tripinfo id="f_0_0.3" depart="41.00" departLane="np13_nt13_0" departPos="32.54" departSpeed="0.00" departDelay="0.09" arrival="-1.00" arrivalLane="" arrivalPos="-1.00" arrivalSpeed="-1.00" duration="3559.00" routeLength="622.49" waitingTime="3487.00" waitingCount="4" stopTime="0.00" timeLoss="3522.59" rerouteNo="0" devices="tripinfo_f_0_0.3" vType="type1" speedFactor="1.12" vaporized="end"/>
    <tripinfo id="f_0_1.3" depart="41.00" departLane="np16_nt1_0" departPos="52.95" departSpeed="0.00" departDelay="0.09" arrival="-1.00" arrivalLane="" arrivalPos="-1.00" arrivalSpeed="-1.00" duration="3559.00" routeLength="191.35" waitingTime="3546.00" waitingCount="1" stopTime="0.00" timeLoss="3549.25" rerouteNo="0" devices="tripinfo_f_0_1.3" vType="type1" speedFactor="1.09" vaporized="end"/>
    <tripinfo id="f_0_2.5" depart="41.00" departLane="np2_nt2_0" departPos="40.98" departSpeed="0.00" departDelay="0.09" arrival="-1.00" arrivalLane="" arrivalPos="-1.00" arrivalSpeed="-1.00" duration="3559.00" routeLength="605.80" waitingTime="3483.00" waitingCount="4" stopTime="0.00" timeLoss="3509.39" rerouteNo="0" devices="tripinfo_f_0_2.5" vType="type1" speedFactor="0.99" vaporized="end"/>
    <tripinfo id="f_0_3.5" depart="41.00" departLane="np3_nt3_0" departPos="20.06" departSpeed="0.00" departDelay="0.09" arrival="-1.00" arrivalLane="" arrivalPos="-1.00" arrivalSpeed="-1.00" duration="3559.00" routeLength="6.03" waitingTime="3555.00" waitingCount="1" stopTime="0.00" timeLoss="3557.48" rerouteNo="0" devices="tripinfo_f_0_3.5" vType="type1" speedFactor="1.06" vaporized="end"/>
    <tripinfo id="f_0_2.6" depart="50.00" departLane="np2_nt2_0" departPos="41.78" departSpeed="0.00" departDelay="0.91" arrival="-1.00" arrivalLane="" arrivalPos="-1.00" arrivalSpeed="-1.00" duration="3550.00" routeLength="597.50" waitingTime="3480.00" waitingCount="4" stopTime="0.00" timeLoss="3510.07" rerouteNo="0" devices="tripinfo_f_0_2.6" vType="type1" speedFactor="1.21" vaporized="end"/>
    <tripinfo id="f_0_3.6" depart="50.00" departLane="np3_nt3_0" departPos="6.18" departSpeed="0.00" departDelay="0.91" arrival="-1.00" arrivalLane="" arrivalPos="-1.00" arrivalSpeed="-1.00" duration="3550.00" routeLength="12.41" waitingTime="3545.00" waitingCount="1" stopTime="0.00" timeLoss="3547.98" rerouteNo="0" devices="tripinfo_f_0_3.6" vType="type1" speedFactor="1.11" vaporized="end"/>
    <tripinfo id="f_0_0.4" depart="55.00" departLane="np13_nt13_0" departPos="50.35" departSpeed="0.00" departDelay="0.46" arrival="-1.00" arrivalLane="" arrivalPos="-1.00" arrivalSpeed="-1.00" duration="3545.00" routeLength="16.45" waitingTime="3540.00" waitingCount="1" stopTime="0.00" timeLoss="3543.14" rerouteNo="0" devices="tripinfo_f_0_0.4" vType="type1" speedFactor="0.96" vaporized="end"/>
    <tripinfo id="f_0_1.4" depart="55.00" departLane="np16_nt1_0" departPos="61.45" departSpeed="0.00" departDelay="0.46" arrival="-1.00" arrivalLane="" arrivalPos="-1.00" arrivalSpeed="-1.00" duration="3545.00" routeLength="175.34" waitingTime="3530.00" waitingCount="1" stopTime="0.00" timeLoss="3534.41" rerouteNo="0" devices="tripinfo_f_0_1.4" vType="type1" speedFactor="0.91" vaporized="end"/>
    <tripinfo id="f_0_2.7" depart="58.00" departLane="np2_nt2_0" departPos="7.61" departSpeed="0.00" departDelay="0.73" arrival="-1.00" arrivalLane="" arrivalPos="-1.00" arrivalSpeed="-1.00" duration="3542.00" routeLength="624.17" waitingTime="3461.00" waitingCount="4" stopTime="0.00" timeLoss="3485.77" rerouteNo="0" devices="tripinfo_f_0_2.7" vType="type1" speedFactor="0.91" vaporized="end"/>
    <tripinfo id="f_0_3.7" depart="58.00" departLane="np3_nt3_0" departPos="0.00" departSpeed="0.00" departDelay="0.73" arrival="-1.00" arrivalLane="" arrivalPos="-1.00" arrivalSpeed="-1.00" duration="3542.00" routeLength="11.09" waitingTime="3538.00" waitingCount="1" stopTime="0.00" timeLoss="3540.01" rerouteNo="0" devices="tripinfo_f_0_3.7" vType="type1" speedFactor="1.02" vaporized="end"/>
    <tripinfo id="f_0_2.8" depart="66.00" departLane="np2_nt2_0" departPos="4.23" departSpeed="0.00" departDelay="0.54" arrival="-1.00" arrivalLane="" arrivalPos="-1.00" arrivalSpeed="-1.00" duration="3534.00" routeLength="620.05" waitingTime="3458.00" waitingCount="4" stopTime="0.00" timeLoss="3491.44" rerouteNo="0" devices="tripinfo_f_0_2.8" vType="type1" speedFactor="1.19" vaporized="end"/>
    <tripinfo id="f_0_3.8" depart="66.00" departLane="np3_nt3_0" departPos="0.00" departSpeed="0.00" departDelay="0.54" arrival="-1.00" arrivalLane="" arrivalPos="-1.00" arrivalSpeed="-1.00" duration="3534.00" routeLength="3.59" waitingTime="3531.00" waitingCount="1" stopTime="0.00" timeLoss="3532.70" rerouteNo="0" devices="tripinfo_f_0_3.8" vType="type1" speedFactor="1.09" vaporized="end"/>
    <tripinfo id="f_0_0.5" depart="69.00" departLane="np13_nt13_0" departPos="45.09" departSpeed="0.00" departDelay="0.82" arrival="-1.00" arrivalLane="" arrivalPos="-1.00" arrivalSpeed="-1.00" duration="3531.00" routeLength="14.21" waitingTime="3525.00" waitingCount="1" stopTime="0.00" timeLoss="3529.26" rerouteNo="0" devices="tripinfo_f_0_0.5" vType="type1" speedFactor="0.96" vaporized="end"/>
    <tripinfo id="f_0_1.5" depart="69.00" departLane="np16_nt1_0" departPos="34.05" departSpeed="0.00" departDelay="0.82" arrival="-1.00" arrivalLane="" arrivalPos="-1.00" arrivalSpeed="-1.00" duration="3531.00" routeLength="195.24" waitingTime="3515.00" waitingCount="1" stopTime="0.00" timeLoss="3519.45" rerouteNo="0" devices="tripinfo_f_0_1.5" vType="type1" speedFactor="0.93" vaporized="end"/>
    <tripinfo id="f_0_2.9" depart="74.00" departLane="np2_nt2_0" departPos="41.71" departSpeed="0.00" departDelay="0.36" arrival="-1.00" arrivalLane="" arrivalPos="-1.00" arrivalSpeed="-1.00" duration="3526.00" routeLength="575.06" waitingTime="3448.00" waitingCount="4" stopTime="0.00" timeLoss="3476.80" rerouteNo="0" devices="tripinfo_f_0_2.9" vType="type1" speedFactor="0.94" vaporized="end"/>
    <tripinfo id="f_0_0.6" depart="82.00" departLane="np13_nt13_0" departPos="50.34" departSpeed="0.00" departDelay="0.18" arrival="-1.00" arrivalLane="" arrivalPos="-1.00" arrivalSpeed="-1.00" duration="3518.00" routeLength="1.46" waitingTime="3514.00" waitingCount="1" stopTime="0.00" timeLoss="3516.93" rerouteNo="0" devices="tripinfo_f_0_0.6" vType="type1" speedFactor="1.01" vaporized="end"/>
    <tripinfo id="f_0_1.6" depart="82.00" departLane="np16_nt1_0" departPos="49.15" departSpeed="0.00" departDelay="0.18" arrival="-1.00" arrivalLane="" arrivalPos="-1.00" arrivalSpeed="-1.00" duration="3518.00" routeLength="172.64" waitingTime="3504.00" waitingCount="1" stopTime="0.00" timeLoss="3509.19" rerouteNo="0" devices="tripinfo_f_0_1.6" vType="type1" speedFactor="1.10" vaporized="end"/>
    <tripinfo id="f_0_2.10" depart="82.00" departLane="np2_nt2_0" departPos="15.08" departSpeed="0.00" departDelay="0.18" arrival="-1.00" arrivalLane="" arrivalPos="-1.00" arrivalSpeed="-1.00" duration="3518.00" routeLength="594.19" waitingTime="3446.00" waitingCount="4" stopTime="0.00" timeLoss="3473.55" rerouteNo="0" devices="tripinfo_f_0_2.10" vType="type1" speedFactor="1.08" vaporized="end"/>
    <tripinfo id="f_0_2.11" depart="90.00" departLane="np2_nt2_0" departPos="27.53" departSpeed="0.00" departDelay="0.00" arrival="-1.00" arrivalLane="" arrivalPos="-1.00" arrivalSpeed="-1.00" duration="3510.00" routeLength="574.24" waitingTime="3438.00" waitingCount="4" stopTime="0.00" timeLoss="3466.66" rerouteNo="0" devices="tripinfo_f_0_2.11" vType="type1" speedFactor="1.06" vaporized="end"/>
    <tripinfo id="f_0_0.7" depart="96.00" departLane="np13_nt13_0" departPos="0.02" departSpeed="0.00" departDelay="0.55" arrival="-1.00" arrivalLane="" arrivalPos="-1.00" arrivalSpeed="-1.00" duration="3504.00" routeLength="44.27" waitingTime="3495.00" waitingCount="1" stopTime="0.00" timeLoss="3500.83" rerouteNo="0" devices="tripinfo_f_0_0.7" vType="type1" speedFactor="1.02" vaporized="end"/>
    <tripinfo id="f_0_1.7" depart="96.00" departLane="np16_nt1_0" departPos="62.47" departSpeed="0.00" departDelay="0.55" arrival="-1.00" arrivalLane="" arrivalPos="-1.00" arrivalSpeed="-1.00" duration="3504.00" routeLength="151.83" waitingTime="3492.00" waitingCount="1" stopTime="0.00" timeLoss="3495.91" rerouteNo="0" devices="tripinfo_f_0_1.7" vType="type1" speedFactor="1.07" vaporized="end"/>
    <tripinfo id="f_0_2.12" depart="99.00" departLane="np2_nt2_0" departPos="58.78" departSpeed="0.00" departDelay="0.82" arrival="-1.00" arrivalLane="" arrivalPos="-1.00" arrivalSpeed="-1.00" duration="3501.00" routeLength="535.49" waitingTime="3423.00" waitingCount="5" stopTime="0.00" timeLoss="3455.17" rerouteNo="0" devices="tripinfo_f_0_2.12" vType="type1" speedFactor="0.93" vaporized="end"/>
    <tripinfo id="f_0_2.13" depart="107.00" departLane="np2_nt2_0" departPos="33.24" departSpeed="0.00" departDelay="0.63" arrival="-1.00" arrivalLane="" arrivalPos="-1.00" arrivalSpeed="-1.00" duration="3493.00" routeLength="553.53" waitingTime="3419.00" waitingCount="4" stopTime="0.00" timeLoss="3446.09" rerouteNo="0" devices="tripinfo_f_0_2.13" vType="type1" speedFactor="0.94" vaporized="end"/>
    <tripinfo id="f_0_0.8" depart="110.00" departLane="np13_nt13_0" departPos="13.67" departSpeed="0.00" departDelay="0.91" arrival="-1.00" arrivalLane="" arrivalPos="-1.00" arrivalSpeed="-1.00" duration="3490.00" routeLength="23.13" waitingTime="3484.00" waitingCount="1" stopTime="0.00" timeLoss="3487.74" rerouteNo="0" devices="tripinfo_f_0_0.8" vType="type1" speedFactor="0.91" vaporized="end"/>
    <tripinfo id="f_0_1.8" depart="110.00" departLane="np16_nt1_0" departPos="1.59" departSpeed="0.00" departDelay="0.91" arrival="-1.00" arrivalLane="" arrivalPos="-1.00" arrivalSpeed="-1.00" duration="3490.00" routeLength="205.20" waitingTime="3474.00" waitingCount="1" stopTime="0.00" timeLoss="3479.15" rerouteNo="0" devices="tripinfo_f_0_1.8" vType="type1" speedFactor="1.04" vaporized="end"/>
    <tripinfo id="f_0_2.14" depart="115.00" departLane="np2_nt2_0" departPos="16.85" departSpeed="0.00" departDelay="0.45" arrival="-1.00" arrivalLane="" arrivalPos="-1.00" arrivalSpeed="-1.00" duration="3485.00" routeLength="562.42" waitingTime="3415.00" waitingCount="4" stopTime="0.00" timeLoss="3443.89" rerouteNo="0" devices="tripinfo_f_0_2.14" vType="type1" speedFactor="1.11" vaporized="end"/>
    <tripinfo id="f_0_0.9" depart="123.00" departLane="np13_nt13_0" departPos="16.49" departSpeed="0.00" departDelay="0.28" arrival="-1.00" arrivalLane="" arrivalPos="-1.00" arrivalSpeed="-1.00" duration="3477.00" routeLength="12.81" waitingTime="3472.00" waitingCount="1" stopTime="0.00" timeLoss="3475.37" rerouteNo="0" devices="tripinfo_f_0_0.9" vType="type1" speedFactor="1.01" vaporized="end"/>
    <tripinfo id="f_0_1.9" depart="123.00" departLane="np16_nt1_0" departPos="38.27" departSpeed="0.00" departDelay="0.28" arrival="-1.00" arrivalLane="" arrivalPos="-1.00" arrivalSpeed="-1.00" duration="3477.00" routeLength="161.01" waitingTime="3463.00" waitingCount="1" stopTime="0.00" timeLoss="3468.02" rerouteNo="0" devices="tripinfo_f_0_1.9" vType="type1" speedFactor="1.01" vaporized="end"/>
    <tripinfo id="f_0_2.15" depart="123.00" departLane="np2_nt2_0" departPos="32.18" departSpeed="0.00" departDelay="0.27" arrival="-1.00" arrivalLane="" arrivalPos="-1.00" arrivalSpeed="-1.00" duration="3477.00" routeLength="539.58" waitingTime="3402.00" waitingCount="4" stopTime="0.00" timeLoss="3433.30" rerouteNo="0" devices="tripinfo_f_0_2.15" vType="type1" speedFactor="0.99" vaporized="end"/>
    <tripinfo id="f_0_2.16" depart="131.00" departLane="np2_nt2_0" departPos="27.23" departSpeed="0.00" departDelay="0.09" arrival="-1.00" arrivalLane="" arrivalPos="-1.00" arrivalSpeed="-1.00" duration="3469.00" routeLength="537.04" waitingTime="3391.00" waitingCount="4" stopTime="0.00" timeLoss="3422.14" rerouteNo="0" devices="tripinfo_f_0_2.16" vType="type1" speedFactor="0.92" vaporized="end"/>
    <tripinfo id="f_0_0.10" depart="137.00" departLane="np13_nt13_0" departPos="11.17" departSpeed="0.00" departDelay="0.64" arrival="-1.00" arrivalLane="" arrivalPos="-1.00" arrivalSpeed="-1.00" duration="3463.00" routeLength="10.63" waitingTime="3458.00" waitingCount="1" stopTime="0.00" timeLoss="3461.48" rerouteNo="0" devices="tripinfo_f_0_0.10" vType="type1" speedFactor="1.03" vaporized="end"/>
    <tripinfo id="f_0_1.10" depart="137.00" departLane="np16_nt1_0" departPos="66.88" departSpeed="0.00" departDelay="0.64" arrival="-1.00" arrivalLane="" arrivalPos="-1.00" arrivalSpeed="-1.00" duration="3463.00" routeLength="124.91" waitingTime="3451.00" waitingCount="1" stopTime="0.00" timeLoss="3455.30" rerouteNo="0" devices="tripinfo_f_0_1.10" vType="type1" speedFactor="0.93" vaporized="end"/>
    <tripinfo id="f_0_2.17" depart="140.00" departLane="np2_nt2_0" departPos="45.05" departSpeed="0.00" departDelay="0.91" arrival="-1.00" arrivalLane="" arrivalPos="-1.00" arrivalSpeed="-1.00" duration="3460.00" routeLength="511.72" waitingTime="3388.00" waitingCount="4" stopTime="0.00" timeLoss="3422.62" rerouteNo="0" devices="tripinfo_f_0_2.17" vType="type1" speedFactor="1.09" vaporized="end"/>
    <tripinfo id="f_0_2.18" depart="148.00" departLane="np2_nt2_0" departPos="44.65" departSpeed="0.00" departDelay="0.72" arrival="-1.00" arrivalLane="" arrivalPos="-1.00" arrivalSpeed="-1.00" duration="3452.00" routeLength="504.62" waitingTime="3378.00" waitingCount="4" stopTime="0.00" timeLoss="3408.54" rerouteNo="0" devices="tripinfo_f_0_2.18" vType="type1" speedFactor="0.92" vaporized="end"/>
    <tripinfo id="f_0_0.11" depart="150.00" departLane="np13_nt13_0" departPos="0.48" departSpeed="0.00" departDelay="0.00" arrival="-1.00" arrivalLane="" arrivalPos="-1.00" arrivalSpeed="-1.00" duration="3450.00" routeLength="13.81" waitingTime="3444.00" waitingCount="1" stopTime="0.00" timeLoss="3448.24" rerouteNo="0" devices="tripinfo_f_0_0.11" vType="type1" speedFactor="0.91" vaporized="end"/>
    <tripinfo id="f_0_1.11" depart="150.00" departLane="np16_nt1_0" departPos="8.75" departSpeed="0.00" departDelay="0.00" arrival="-1.00" arrivalLane="" arrivalPos="-1.00" arrivalSpeed="-1.00" duration="3450.00" routeLength="175.54" waitingTime="3435.00" waitingCount="1" stopTime="0.00" timeLoss="3439.69" rerouteNo="0" devices="tripinfo_f_0_1.11" vType="type1" speedFactor="0.94" vaporized="end"/>
    <tripinfo id="f_0_2.19" depart="156.00" departLane="np2_nt2_0" departPos="15.58" departSpeed="0.00" departDelay="0.54" arrival="-1.00" arrivalLane="" arrivalPos="-1.00" arrivalSpeed="-1.00" duration="3444.00" routeLength="526.19" waitingTime="3363.00" waitingCount="3" stopTime="0.00" timeLoss="3395.71" rerouteNo="0" devices="tripinfo_f_0_2.19" vType="type1" speedFactor="0.87" vaporized="end"/>
    <tripinfo id="f_0_0.12" depart="164.00" departLane="np13_nt13_0" departPos="5.66" departSpeed="0.00" departDelay="0.37" arrival="-1.00" arrivalLane="" arrivalPos="-1.00" arrivalSpeed="-1.00" duration="3436.00" routeLength="1.13" waitingTime="3433.00" waitingCount="1" stopTime="0.00" timeLoss="3434.94" rerouteNo="0" devices="tripinfo_f_0_0.12" vType="type1" speedFactor="0.99" vaporized="end"/>
    <tripinfo id="f_0_1.12" depart="164.00" departLane="np16_nt1_0" departPos="22.83" departSpeed="0.00" departDelay="0.37" arrival="-1.00" arrivalLane="" arrivalPos="-1.00" arrivalSpeed="-1.00" duration="3436.00" routeLength="153.95" waitingTime="3422.00" waitingCount="1" stopTime="0.00" timeLoss="3427.22" rerouteNo="0" devices="tripinfo_f_0_1.12" vType="type1" speedFactor="0.99" vaporized="end"/>
    <tripinfo id="f_0_2.20" depart="164.00" departLane="np2_nt2_0" departPos="42.55" departSpeed="0.00" departDelay="0.36" arrival="-1.00" arrivalLane="" arrivalPos="-1.00" arrivalSpeed="-1.00" duration="3436.00" routeLength="491.71" waitingTime="3362.00" waitingCount="3" stopTime="0.00" timeLoss="3396.00" rerouteNo="0" devices="tripinfo_f_0_2.20" vType="type1" speedFactor="0.97" vaporized="end"/>
    <tripinfo id="f_0_2.21" depart="172.00" departLane="np2_nt2_0" departPos="20.84" departSpeed="0.00" departDelay="0.18" arrival="-1.00" arrivalLane="" arrivalPos="-1.00" arrivalSpeed="-1.00" duration="3428.00" routeLength="505.92" waitingTime="3360.00" waitingCount="3" stopTime="0.00" timeLoss="3390.29" rerouteNo="0" devices="tripinfo_f_0_2.21" vType="type1" speedFactor="1.08" vaporized="end"/>
    <tripinfo id="f_0_1.13" depart="178.00" departLane="np16_nt1_0" departPos="48.68" departSpeed="0.00" departDelay="0.73" arrival="-1.00" arrivalLane="" arrivalPos="-1.00" arrivalSpeed="-1.00" duration="3422.00" routeLength="120.61" waitingTime="3410.00" waitingCount="1" stopTime="0.00" timeLoss="3414.75" rerouteNo="0" devices="tripinfo_f_0_1.13" vType="type1" speedFactor="0.96" vaporized="end"/>
    <tripinfo id="f_0_2.22" depart="180.00" departLane="np2_nt2_0" departPos="54.75" departSpeed="0.00" departDelay="0.00" arrival="-1.00" arrivalLane="" arrivalPos="-1.00" arrivalSpeed="-1.00" duration="3420.00" routeLength="464.51" waitingTime="3350.00" waitingCount="3" stopTime="0.00" timeLoss="3382.15" rerouteNo="0" devices="tripinfo_f_0_2.22" vType="type1" speedFactor="0.96" vaporized="end"/>
    <tripinfo id="f_0_2.23" depart="189.00" departLane="np2_nt2_0" departPos="12.21" departSpeed="0.00" departDelay="0.81" arrival="-1.00" arrivalLane="" arrivalPos="-1.00" arrivalSpeed="-1.00" duration="3411.00" routeLength="499.55" waitingTime="3338.00" waitingCount="4" stopTime="0.00" timeLoss="3374.87" rerouteNo="0" devices="tripinfo_f_0_2.23" vType="type1" speedFactor="1.11" vaporized="end"/>
    <tripinfo id="f_0_1.14" depart="191.00" departLane="np16_nt1_0" departPos="6.17" departSpeed="0.00" departDelay="0.10" arrival="-1.00" arrivalLane="" arrivalPos="-1.00" arrivalSpeed="-1.00" duration="3409.00" routeLength="155.62" waitingTime="3395.00" waitingCount="1" stopTime="0.00" timeLoss="3400.00" rerouteNo="0" devices="tripinfo_f_0_1.14" vType="type1" speedFactor="0.97" vaporized="end"/>
    <tripinfo id="f_0_2.24" depart="197.00" departLane="np2_nt2_0" departPos="13.81" departSpeed="0.00" departDelay="0.63" arrival="-1.00" arrivalLane="" arrivalPos="-1.00" arrivalSpeed="-1.00" duration="3403.00" routeLength="490.45" waitingTime="3327.00" waitingCount="5" stopTime="0.00" timeLoss="3364.20" rerouteNo="0" devices="tripinfo_f_0_2.24" vType="type1" speedFactor="0.99" vaporized="end"/>
    <tripinfo id="f_0_1.15" depart="205.00" departLane="np16_nt1_0" departPos="22.05" departSpeed="0.00" departDelay="0.46" arrival="-1.00" arrivalLane="" arrivalPos="-1.00" arrivalSpeed="-1.00" duration="3395.00" routeLength="132.23" waitingTime="3382.00" waitingCount="1" stopTime="0.00" timeLoss="3387.29" rerouteNo="0" devices="tripinfo_f_0_1.15" vType="type1" speedFactor="0.99" vaporized="end"/>
    <tripinfo id="f_0_2.25" depart="205.00" departLane="np2_nt2_0" departPos="40.65" departSpeed="0.00" departDelay="0.45" arrival="-1.00" arrivalLane="" arrivalPos="-1.00" arrivalSpeed="-1.00" duration="3395.00" routeLength="456.11" waitingTime="3326.00" waitingCount="5" stopTime="0.00" timeLoss="3362.60" rerouteNo="0" devices="tripinfo_f_0_2.25" vType="type1" speedFactor="1.11" vaporized="end"/>
    <tripinfo id="f_0_2.26" depart="213.00" departLane="np2_nt2_0" departPos="6.89" departSpeed="0.00" departDelay="0.27" arrival="-1.00" arrivalLane="" arrivalPos="-1.00" arrivalSpeed="-1.00" duration="3387.00" routeLength="482.36" waitingTime="3325.00" waitingCount="4" stopTime="0.00" timeLoss="3348.22" rerouteNo="0" devices="tripinfo_f_0_2.26" vType="type1" speedFactor="0.99" vaporized="end"/>
    <tripinfo id="f_0_1.16" depart="219.00" departLane="np16_nt1_0" departPos="26.97" departSpeed="0.00" departDelay="0.82" arrival="-1.00" arrivalLane="" arrivalPos="-1.00" arrivalSpeed="-1.00" duration="3381.00" routeLength="119.81" waitingTime="3368.00" waitingCount="1" stopTime="0.00" timeLoss="3374.44" rerouteNo="0" devices="tripinfo_f_0_1.16" vType="type1" speedFactor="1.08" vaporized="end"/>
    <tripinfo id="f_0_2.27" depart="221.00" departLane="np2_nt2_0" departPos="48.83" departSpeed="0.00" departDelay="0.09" arrival="-1.00" arrivalLane="" arrivalPos="-1.00" arrivalSpeed="-1.00" duration="3379.00" routeLength="432.93" waitingTime="3314.00" waitingCount="5" stopTime="0.00" timeLoss="3340.74" rerouteNo="0" devices="tripinfo_f_0_2.27" vType="type1" speedFactor="0.87" vaporized="end"/>
    <tripinfo id="f_0_2.28" depart="230.00" departLane="np2_nt2_0" departPos="22.07" departSpeed="0.00" departDelay="0.90" arrival="-1.00" arrivalLane="" arrivalPos="-1.00" arrivalSpeed="-1.00" duration="3370.00" routeLength="432.21" waitingTime="3306.00" waitingCount="4" stopTime="0.00" timeLoss="3327.98" rerouteNo="0" devices="tripinfo_f_0_2.28" vType="type1" speedFactor="0.79" vaporized="end"/>
    <tripinfo id="f_0_1.17" depart="232.00" departLane="np16_nt1_0" departPos="29.60" departSpeed="0.00" departDelay="0.19" arrival="-1.00" arrivalLane="" arrivalPos="-1.00" arrivalSpeed="-1.00" duration="3368.00" routeLength="109.68" waitingTime="3356.00" waitingCount="1" stopTime="0.00" timeLoss="3362.28" rerouteNo="0" devices="tripinfo_f_0_1.17" vType="type1" speedFactor="1.16" vaporized="end"/>
    <tripinfo id="f_0_2.29" depart="238.00" departLane="np2_nt2_0" departPos="18.25" departSpeed="0.00" departDelay="0.72" arrival="-1.00" arrivalLane="" arrivalPos="-1.00" arrivalSpeed="-1.00" duration="3362.00" routeLength="428.53" waitingTime="3303.00" waitingCount="4" stopTime="0.00" timeLoss="3329.26" rerouteNo="0" devices="tripinfo_f_0_2.29" vType="type1" speedFactor="1.00" vaporized="end"/>
    <tripinfo id="f_0_1.18" depart="246.00" departLane="np16_nt1_0" departPos="31.35" departSpeed="0.00" departDelay="0.55" arrival="-1.00" arrivalLane="" arrivalPos="-1.00" arrivalSpeed="-1.00" duration="3354.00" routeLength="100.43" waitingTime="3343.00" waitingCount="1" stopTime="0.00" timeLoss="3348.32" rerouteNo="0" devices="tripinfo_f_0_1.18" vType="type1" speedFactor="1.07" vaporized="end"/>
    <tripinfo id="f_0_2.30" depart="246.00" departLane="np2_nt2_0" departPos="36.08" departSpeed="0.00" departDelay="0.54" arrival="-1.00" arrivalLane="" arrivalPos="-1.00" arrivalSpeed="-1.00" duration="3354.00" routeLength="403.19" waitingTime="3300.00" waitingCount="4" stopTime="0.00" timeLoss="3324.95" rerouteNo="0" devices="tripinfo_f_0_2.30" vType="type1" speedFactor="1.06" vaporized="end"/>