<?xml version="1.0" encoding="UTF-8"?>

<!-- generated on 2023-08-30 18:00:23 by Eclipse SUMO libsumo Version 1.18.0
<configuration xmlns:xsi="http://www.w3.org/2001/XMLSchema-instance" xsi:noNamespaceSchemaLocation="http://sumo.dlr.de/xsd/libsumoConfiguration.xsd">

    <input>
        <net-file value="/home/stefan/RESCO/./environments/arterial4x4/arterial4x4.net.xml"/>
        <route-files value="/home/stefan/RESCO/./environments/arterial4x4/arterial4x4_10.rou.xml"/>
    </input>

    <output>
        <tripinfo-output value="/home/stefan/results/RAINBOW-tr0-arterial4x4-0-drq_norm-wait_norm/tripinfo_10.xml"/>
        <tripinfo-output.write-unfinished value="true"/>
    </output>

    <processing>
        <time-to-teleport value="-1"/>
    </processing>

    <report>
        <no-warnings value="True"/>
        <no-step-log value="True"/>
    </report>

    <random_number>
        <random value="true"/>
    </random_number>

</configuration>
-->

<tripinfos xmlns:xsi="http://www.w3.org/2001/XMLSchema-instance" xsi:noNamespaceSchemaLocation="http://sumo.dlr.de/xsd/tripinfo_file.xsd">
    <tripinfo id="f_0_3.0" depart="0.00" departLane="np3_nt3_0" departPos="25.42" departSpeed="0.00" departDelay="0.00" arrival="161.00" arrivalLane="nt14_np11_0" arrivalPos="75.00" arrivalSpeed="12.17" duration="161.00" routeLength="925.67" waitingTime="76.00" waitingCount="3" stopTime="0.00" timeLoss="97.56" rerouteNo="0" devices="tripinfo_f_0_3.0" vType="type1" speedFactor="1.23" vaporized=""/>
    <tripinfo id="f_0_2.0" depart="0.00" departLane="np2_nt2_0" departPos="33.45" departSpeed="0.00" departDelay="0.00" arrival="167.00" arrivalLane="nt15_np10_0" arrivalPos="75.00" arrivalSpeed="10.79" duration="167.00" routeLength="917.63" waitingTime="77.00" waitingCount="3" stopTime="0.00" timeLoss="95.14" rerouteNo="0" devices="tripinfo_f_0_2.0" vType="type1" speedFactor="1.07" vaporized=""/>
    <tripinfo id="f_0_2.1" depart="9.00" departLane="np2_nt2_0" departPos="60.84" departSpeed="0.00" departDelay="0.82" arrival="171.00" arrivalLane="nt15_np10_0" arrivalPos="75.00" arrivalSpeed="8.45" duration="162.00" routeLength="890.24" waitingTime="51.00" waitingCount="4" stopTime="0.00" timeLoss="76.36" rerouteNo="0" devices="tripinfo_f_0_2.1" vType="type1" speedFactor="0.87" vaporized=""/>
    <tripinfo id="f_0_2.2" depart="17.00" departLane="np2_nt2_0" departPos="18.96" departSpeed="0.00" departDelay="0.64" arrival="181.00" arrivalLane="nt15_np10_0" arrivalPos="75.00" arrivalSpeed="11.29" duration="164.00" routeLength="932.12" waitingTime="53.00" waitingCount="5" stopTime="0.00" timeLoss="91.74" rerouteNo="0" devices="tripinfo_f_0_2.2" vType="type1" speedFactor="1.08" vaporized=""/>
    <tripinfo id="f_0_1.0" depart="0.00" departLane="np16_nt1_0" departPos="15.59" departSpeed="0.00" departDelay="0.00" arrival="182.00" arrivalLane="nt16_np8_0" arrivalPos="75.00" arrivalSpeed="18.96" duration="182.00" routeLength="1332.29" waitingTime="42.00" waitingCount="4" stopTime="0.00" timeLoss="92.56" rerouteNo="0" devices="tripinfo_f_0_1.0" vType="type1" speedFactor="1.04" vaporized=""/>
    <tripinfo id="f_0_0.0" depart="0.00" departLane="np13_nt13_0" departPos="17.56" departSpeed="0.00" departDelay="0.00" arrival="184.00" arrivalLane="nt4_np5_0" arrivalPos="75.00" arrivalSpeed="16.13" duration="184.00" routeLength="1330.33" waitingTime="50.00" waitingCount="4" stopTime="0.00" timeLoss="83.65" rerouteNo="0" devices="tripinfo_f_0_0.0" vType="type1" speedFactor="0.92" vaporized=""/>
    <tripinfo id="f_0_0.1" depart="14.00" departLane="np13_nt13_0" departPos="43.25" departSpeed="0.00" departDelay="0.36" arrival="197.00" arrivalLane="nt4_np5_0" arrivalPos="75.00" arrivalSpeed="18.82" duration="183.00" routeLength="1304.64" waitingTime="50.00" waitingCount="7" stopTime="0.00" timeLoss="89.90" rerouteNo="0" devices="tripinfo_f_0_0.1" vType="type1" speedFactor="0.98" vaporized=""/>
    <tripinfo id="f_0_0.2" depart="28.00" departLane="np13_nt13_0" departPos="29.86" departSpeed="0.00" departDelay="0.73" arrival="212.00" arrivalLane="nt4_np5_0" arrivalPos="75.00" arrivalSpeed="16.84" duration="184.00" routeLength="1318.03" waitingTime="51.00" waitingCount="4" stopTime="0.00" timeLoss="82.16" rerouteNo="0" devices="tripinfo_f_0_0.2" vType="type1" speedFactor="0.90" vaporized=""/>
    <tripinfo id="f_0_3.1" depart="9.00" departLane="np3_nt3_0" departPos="34.26" departSpeed="0.00" departDelay="0.82" arrival="226.00" arrivalLane="nt14_np11_0" arrivalPos="75.00" arrivalSpeed="11.18" duration="217.00" routeLength="916.83" waitingTime="128.00" waitingCount="5" stopTime="0.00" timeLoss="147.63" rerouteNo="0" devices="tripinfo_f_0_3.1" vType="type1" speedFactor="1.10" vaporized=""/>
    <tripinfo id="f_0_3.2" depart="17.00" departLane="np3_nt3_0" departPos="21.93" departSpeed="0.00" departDelay="0.64" arrival="230.00" arrivalLane="nt14_np11_0" arrivalPos="75.00" arrivalSpeed="9.34" duration="213.00" routeLength="929.16" waitingTime="96.00" waitingCount="3" stopTime="0.00" timeLoss="126.50" rerouteNo="0" devices="tripinfo_f_0_3.2" vType="type1" speedFactor="0.90" vaporized=""/>
    <tripinfo id="f_0_3.3" depart="25.00" departLane="np3_nt3_0" departPos="45.55" departSpeed="0.00" departDelay="0.45" arrival="239.00" arrivalLane="nt14_np11_0" arrivalPos="75.00" arrivalSpeed="8.95" duration="214.00" routeLength="905.54" waitingTime="88.00" waitingCount="7" stopTime="0.00" timeLoss="126.52" rerouteNo="0" devices="tripinfo_f_0_3.3" vType="type1" speedFactor="0.87" vaporized=""/>
    <tripinfo id="f_0_3.4" depart="33.00" departLane="np3_nt3_0" departPos="24.63" departSpeed="0.00" departDelay="0.27" arrival="241.00" arrivalLane="nt14_np11_0" arrivalPos="75.00" arrivalSpeed="12.32" duration="208.00" routeLength="926.46" waitingTime="74.00" waitingCount="7" stopTime="0.00" timeLoss="144.14" rerouteNo="0" devices="tripinfo_f_0_3.4" vType="type1" speedFactor="1.23" vaporized=""/>
    <tripinfo id="f_0_3.5" depart="41.00" departLane="np3_nt3_0" departPos="14.08" departSpeed="0.00" departDelay="0.09" arrival="243.00" arrivalLane="nt14_np11_0" arrivalPos="75.00" arrivalSpeed="8.49" duration="202.00" routeLength="937.01" waitingTime="68.00" waitingCount="4" stopTime="0.00" timeLoss="118.24" rerouteNo="0" devices="tripinfo_f_0_3.5" vType="type1" speedFactor="0.94" vaporized=""/>
    <tripinfo id="f_0_3.6" depart="50.00" departLane="np3_nt3_0" departPos="31.76" departSpeed="0.00" departDelay="0.91" arrival="253.00" arrivalLane="nt14_np11_0" arrivalPos="75.00" arrivalSpeed="9.78" duration="203.00" routeLength="919.33" waitingTime="82.00" waitingCount="6" stopTime="0.00" timeLoss="119.13" rerouteNo="0" devices="tripinfo_f_0_3.6" vType="type1" speedFactor="0.91" vaporized=""/>
    <tripinfo id="f_0_3.7" depart="58.00" departLane="np3_nt3_0" departPos="13.23" departSpeed="0.00" departDelay="0.73" arrival="255.00" arrivalLane="nt14_np11_0" arrivalPos="75.00" arrivalSpeed="8.98" duration="197.00" routeLength="937.86" waitingTime="73.00" waitingCount="5" stopTime="0.00" timeLoss="113.50" rerouteNo="0" devices="tripinfo_f_0_3.7" vType="type1" speedFactor="0.94" vaporized=""/>
    <tripinfo id="f_0_3.8" depart="66.00" departLane="np3_nt3_0" departPos="6.82" departSpeed="0.00" departDelay="0.54" arrival="287.00" arrivalLane="nt14_np11_0" arrivalPos="75.00" arrivalSpeed="10.21" duration="221.00" routeLength="944.27" waitingTime="100.00" waitingCount="8" stopTime="0.00" timeLoss="145.08" rerouteNo="0" devices="tripinfo_f_0_3.8" vType="type1" speedFactor="1.05" vaporized=""/>
    <tripinfo id="f_0_3.9" depart="74.00" departLane="np3_nt3_0" departPos="15.49" departSpeed="0.00" departDelay="0.36" arrival="298.00" arrivalLane="nt14_np11_0" arrivalPos="75.00" arrivalSpeed="7.64" duration="224.00" routeLength="935.60" waitingTime="91.00" waitingCount="8" stopTime="0.00" timeLoss="137.26" rerouteNo="0" devices="tripinfo_f_0_3.9" vType="type1" speedFactor="0.90" vaporized=""/>
    <tripinfo id="f_0_2.3" depart="25.00" departLane="np2_nt2_0" departPos="48.13" departSpeed="0.00" departDelay="0.45" arrival="302.00" arrivalLane="nt15_np10_0" arrivalPos="75.00" arrivalSpeed="9.67" duration="277.00" routeLength="902.95" waitingTime="165.00" waitingCount="7" stopTime="0.00" timeLoss="207.83" rerouteNo="0" devices="tripinfo_f_0_2.3" vType="type1" speedFactor="1.10" vaporized=""/>
    <tripinfo id="f_0_3.10" depart="82.00" departLane="np3_nt3_0" departPos="0.00" departSpeed="0.00" departDelay="0.18" arrival="303.00" arrivalLane="nt14_np11_0" arrivalPos="75.00" arrivalSpeed="10.82" duration="221.00" routeLength="951.09" waitingTime="85.00" waitingCount="8" stopTime="0.00" timeLoss="141.34" rerouteNo="0" devices="tripinfo_f_0_3.10" vType="type1" speedFactor="1.00" vaporized=""/>
    <tripinfo id="f_0_2.4" depart="33.00" departLane="np2_nt2_0" departPos="12.01" departSpeed="0.00" departDelay="0.27" arrival="304.00" arrivalLane="nt15_np10_0" arrivalPos="75.00" arrivalSpeed="9.61" duration="271.00" routeLength="939.07" waitingTime="147.00" waitingCount="6" stopTime="0.00" timeLoss="192.94" rerouteNo="0" devices="tripinfo_f_0_2.4" vType="type1" speedFactor="1.01" vaporized=""/>
    <tripinfo id="f_0_2.5" depart="41.00" departLane="np2_nt2_0" departPos="25.22" departSpeed="0.00" departDelay="0.09" arrival="307.00" arrivalLane="nt15_np10_0" arrivalPos="75.00" arrivalSpeed="10.85" duration="266.00" routeLength="925.86" waitingTime="142.00" waitingCount="6" stopTime="0.00" timeLoss="187.55" rerouteNo="0" devices="tripinfo_f_0_2.5" vType="type1" speedFactor="0.99" vaporized=""/>
    <tripinfo id="f_0_2.6" depart="50.00" departLane="np2_nt2_0" departPos="44.88" departSpeed="0.00" departDelay="0.91" arrival="312.00" arrivalLane="nt15_np10_0" arrivalPos="75.00" arrivalSpeed="6.54" duration="262.00" routeLength="906.20" waitingTime="130.00" waitingCount="6" stopTime="0.00" timeLoss="165.38" rerouteNo="0" devices="tripinfo_f_0_2.6" vType="type1" speedFactor="0.79" vaporized=""/>
    <tripinfo id="f_0_1.1" depart="14.00" departLane="np16_nt1_0" departPos="33.45" departSpeed="0.00" departDelay="0.36" arrival="329.00" arrivalLane="nt16_np8_0" arrivalPos="75.00" arrivalSpeed="17.29" duration="315.00" routeLength="1314.43" waitingTime="163.00" waitingCount="7" stopTime="0.00" timeLoss="210.65" rerouteNo="0" devices="tripinfo_f_0_1.1" vType="type1" speedFactor="0.88" vaporized=""/>
    <tripinfo id="f_0_0.3" depart="41.00" departLane="np13_nt13_0" departPos="2.69" departSpeed="0.00" departDelay="0.09" arrival="347.00" arrivalLane="nt4_np5_0" arrivalPos="75.00" arrivalSpeed="16.14" duration="306.00" routeLength="1345.20" waitingTime="161.00" waitingCount="6" stopTime="0.00" timeLoss="204.93" rerouteNo="0" devices="tripinfo_f_0_0.3" vType="type1" speedFactor="0.92" vaporized=""/>
    <tripinfo id="f_0_0.4" depart="55.00" departLane="np13_nt13_0" departPos="31.23" departSpeed="0.00" departDelay="0.46" arrival="348.00" arrivalLane="nt4_np5_0" arrivalPos="75.00" arrivalSpeed="21.44" duration="293.00" routeLength="1316.66" waitingTime="152.00" waitingCount="7" stopTime="0.00" timeLoss="209.91" rerouteNo="0" devices="tripinfo_f_0_0.4" vType="type1" speedFactor="1.10" vaporized=""/>
    <tripinfo id="f_0_0.5" depart="69.00" departLane="np13_nt13_0" departPos="42.48" departSpeed="0.00" departDelay="0.82" arrival="364.00" arrivalLane="nt4_np5_0" arrivalPos="75.00" arrivalSpeed="18.95" duration="295.00" routeLength="1305.41" waitingTime="155.00" waitingCount="6" stopTime="0.00" timeLoss="203.65" rerouteNo="0" devices="tripinfo_f_0_0.5" vType="type1" speedFactor="1.00" vaporized=""/>
    <tripinfo id="f_0_3.11" depart="90.00" departLane="np3_nt3_0" departPos="0.00" departSpeed="0.00" departDelay="0.00" arrival="364.00" arrivalLane="nt14_np11_0" arrivalPos="75.00" arrivalSpeed="8.82" duration="274.00" routeLength="951.09" waitingTime="122.00" waitingCount="8" stopTime="0.00" timeLoss="185.89" rerouteNo="0" devices="tripinfo_f_0_3.11" vType="type1" speedFactor="0.91" vaporized=""/>
    <tripinfo id="f_0_3.12" depart="99.00" departLane="np3_nt3_0" departPos="0.00" departSpeed="0.00" departDelay="0.82" arrival="366.00" arrivalLane="nt14_np11_0" arrivalPos="75.00" arrivalSpeed="9.82" duration="267.00" routeLength="951.09" waitingTime="129.00" waitingCount="7" stopTime="0.00" timeLoss="194.11" rerouteNo="0" devices="tripinfo_f_0_3.12" vType="type1" speedFactor="1.10" vaporized=""/>
    <tripinfo id="f_0_2.7" depart="58.00" departLane="np2_nt2_0" departPos="9.12" departSpeed="0.00" departDelay="0.73" arrival="368.00" arrivalLane="nt15_np10_0" arrivalPos="75.00" arrivalSpeed="8.47" duration="310.00" routeLength="941.96" waitingTime="184.00" waitingCount="7" stopTime="0.00" timeLoss="228.70" rerouteNo="0" devices="tripinfo_f_0_2.7" vType="type1" speedFactor="0.98" vaporized=""/>
    <tripinfo id="f_0_2.8" depart="66.00" departLane="np2_nt2_0" departPos="34.41" departSpeed="0.00" departDelay="0.54" arrival="369.00" arrivalLane="nt15_np10_0" arrivalPos="75.00" arrivalSpeed="11.38" duration="303.00" routeLength="916.67" waitingTime="177.00" waitingCount="7" stopTime="0.00" timeLoss="241.09" rerouteNo="0" devices="tripinfo_f_0_2.8" vType="type1" speedFactor="1.23" vaporized=""/>
    <tripinfo id="f_0_0.6" depart="82.00" departLane="np13_nt13_0" departPos="1.88" departSpeed="0.00" departDelay="0.18" arrival="373.00" arrivalLane="nt4_np5_0" arrivalPos="75.00" arrivalSpeed="18.35" duration="291.00" routeLength="1346.01" waitingTime="148.00" waitingCount="8" stopTime="0.00" timeLoss="199.54" rerouteNo="0" devices="tripinfo_f_0_0.6" vType="type1" speedFactor="1.02" vaporized=""/>
    <tripinfo id="f_0_0.7" depart="96.00" departLane="np13_nt13_0" departPos="7.76" departSpeed="0.00" departDelay="0.55" arrival="374.00" arrivalLane="nt4_np5_0" arrivalPos="75.00" arrivalSpeed="23.49" duration="278.00" routeLength="1340.13" waitingTime="151.00" waitingCount="8" stopTime="0.00" timeLoss="203.91" rerouteNo="0" devices="tripinfo_f_0_0.7" vType="type1" speedFactor="1.25" vaporized=""/>
    <tripinfo id="f_0_2.9" depart="74.00" departLane="np2_nt2_0" departPos="18.32" departSpeed="0.00" departDelay="0.36" arrival="380.00" arrivalLane="nt15_np10_0" arrivalPos="75.00" arrivalSpeed="9.41" duration="306.00" routeLength="932.76" waitingTime="169.00" waitingCount="7" stopTime="0.00" timeLoss="216.04" rerouteNo="0" devices="tripinfo_f_0_2.9" vType="type1" speedFactor="0.87" vaporized=""/>
    <tripinfo id="f_0_1.2" depart="28.00" departLane="np16_nt1_0" departPos="56.32" departSpeed="0.00" departDelay="0.73" arrival="399.00" arrivalLane="nt16_np8_0" arrivalPos="75.00" arrivalSpeed="17.03" duration="371.00" routeLength="1291.56" waitingTime="218.00" waitingCount="10" stopTime="0.00" timeLoss="265.07" rerouteNo="0" devices="tripinfo_f_0_1.2" vType="type1" speedFactor="0.86" vaporized=""/>
    <tripinfo id="f_0_0.8" depart="110.00" departLane="np13_nt13_0" departPos="50.69" departSpeed="0.00" departDelay="0.91" arrival="399.00" arrivalLane="nt4_np5_0" arrivalPos="75.00" arrivalSpeed="15.38" duration="289.00" routeLength="1297.20" waitingTime="125.00" waitingCount="9" stopTime="0.00" timeLoss="175.05" rerouteNo="0" devices="tripinfo_f_0_0.8" vType="type1" speedFactor="0.80" vaporized=""/>
    <tripinfo id="f_0_0.9" depart="123.00" departLane="np13_nt13_0" departPos="58.54" departSpeed="0.00" departDelay="0.28" arrival="401.00" arrivalLane="nt4_np5_0" arrivalPos="75.00" arrivalSpeed="14.87" duration="278.00" routeLength="1289.35" waitingTime="109.00" waitingCount="11" stopTime="0.00" timeLoss="165.50" rerouteNo="0" devices="tripinfo_f_0_0.9" vType="type1" speedFactor="0.80" vaporized=""/>
    <tripinfo id="f_0_0.10" depart="137.00" departLane="np13_nt13_0" departPos="5.39" departSpeed="0.00" departDelay="0.64" arrival="402.00" arrivalLane="nt4_np5_0" arrivalPos="75.00" arrivalSpeed="20.13" duration="265.00" routeLength="1342.50" waitingTime="94.00" waitingCount="10" stopTime="0.00" timeLoss="183.08" rerouteNo="0" devices="tripinfo_f_0_0.10" vType="type1" speedFactor="1.13" vaporized=""/>
    <tripinfo id="f_0_3.13" depart="107.00" departLane="np3_nt3_0" departPos="1.27" departSpeed="0.00" departDelay="0.63" arrival="427.00" arrivalLane="nt14_np11_0" arrivalPos="75.00" arrivalSpeed="11.59" duration="320.00" routeLength="949.82" waitingTime="196.00" waitingCount="9" stopTime="0.00" timeLoss="245.58" rerouteNo="0" devices="tripinfo_f_0_3.13" vType="type1" speedFactor="1.08" vaporized=""/>
    <tripinfo id="f_0_3.14" depart="115.00" departLane="np3_nt3_0" departPos="2.62" departSpeed="0.00" departDelay="0.45" arrival="432.00" arrivalLane="nt14_np11_0" arrivalPos="75.00" arrivalSpeed="7.20" duration="317.00" routeLength="948.47" waitingTime="165.00" waitingCount="8" stopTime="0.00" timeLoss="215.05" rerouteNo="0" devices="tripinfo_f_0_3.14" vType="type1" speedFactor="0.78" vaporized=""/>
    <tripinfo id="f_0_3.15" depart="143.00" departLane="np3_nt3_0" departPos="0.00" departSpeed="0.00" departDelay="20.27" arrival="434.00" arrivalLane="nt14_np11_0" arrivalPos="75.00" arrivalSpeed="9.56" duration="291.00" routeLength="951.09" waitingTime="139.00" waitingCount="6" stopTime="0.00" timeLoss="200.03" rerouteNo="0" devices="tripinfo_f_0_3.15" vType="type1" speedFactor="0.88" vaporized=""/>
    <tripinfo id="f_0_3.16" depart="152.00" departLane="np3_nt3_0" departPos="0.00" departSpeed="0.00" departDelay="21.09" arrival="436.00" arrivalLane="nt14_np11_0" arrivalPos="75.00" arrivalSpeed="10.49" duration="284.00" routeLength="951.09" waitingTime="144.00" waitingCount="7" stopTime="0.00" timeLoss="210.77" rerouteNo="0" devices="tripinfo_f_0_3.16" vType="type1" speedFactor="1.09" vaporized=""/>
    <tripinfo id="f_0_0.11" depart="150.00" departLane="np13_nt13_0" departPos="14.77" departSpeed="0.00" departDelay="0.00" arrival="439.00" arrivalLane="nt4_np5_0" arrivalPos="75.00" arrivalSpeed="20.64" duration="289.00" routeLength="1333.12" waitingTime="136.00" waitingCount="13" stopTime="0.00" timeLoss="206.68" rerouteNo="0" devices="tripinfo_f_0_0.11" vType="type1" speedFactor="1.12" vaporized=""/>
    <tripinfo id="f_0_3.17" depart="155.00" departLane="np3_nt3_0" departPos="3.76" departSpeed="0.00" departDelay="15.91" arrival="442.00" arrivalLane="nt14_np11_0" arrivalPos="75.00" arrivalSpeed="9.10" duration="287.00" routeLength="947.33" waitingTime="144.00" waitingCount="11" stopTime="0.00" timeLoss="207.53" rerouteNo="0" devices="tripinfo_f_0_3.17" vType="type1" speedFactor="0.99" vaporized=""/>
    <tripinfo id="f_0_3.19" depart="159.00" departLane="np3_nt3_0" departPos="15.22" departSpeed="0.00" departDelay="3.54" arrival="447.00" arrivalLane="nt14_np11_0" arrivalPos="75.00" arrivalSpeed="6.98" duration="288.00" routeLength="935.87" waitingTime="125.00" waitingCount="12" stopTime="0.00" timeLoss="192.27" rerouteNo="0" devices="tripinfo_f_0_3.19" vType="type1" speedFactor="0.82" vaporized=""/>
    <tripinfo id="f_0_3.18" depart="158.00" departLane="np3_nt3_0" departPos="4.36" departSpeed="0.00" departDelay="10.72" arrival="449.00" arrivalLane="nt14_np11_0" arrivalPos="75.00" arrivalSpeed="9.99" duration="291.00" routeLength="946.73" waitingTime="141.00" waitingCount="11" stopTime="0.00" timeLoss="214.17" rerouteNo="0" devices="tripinfo_f_0_3.18" vType="type1" speedFactor="1.04" vaporized=""/>
    <tripinfo id="f_0_2.10" depart="82.00" departLane="np2_nt2_0" departPos="2.57" departSpeed="0.00" departDelay="0.18" arrival="457.00" arrivalLane="nt15_np10_0" arrivalPos="75.00" arrivalSpeed="8.71" duration="375.00" routeLength="948.51" waitingTime="241.00" waitingCount="8" stopTime="0.00" timeLoss="293.23" rerouteNo="0" devices="tripinfo_f_0_2.10" vType="type1" speedFactor="0.98" vaporized=""/>
    <tripinfo id="f_0_2.11" depart="90.00" departLane="np2_nt2_0" departPos="46.24" departSpeed="0.00" departDelay="0.00" arrival="459.00" arrivalLane="nt15_np10_0" arrivalPos="75.00" arrivalSpeed="9.59" duration="369.00" routeLength="904.84" waitingTime="234.00" waitingCount="8" stopTime="0.00" timeLoss="298.70" rerouteNo="0" devices="tripinfo_f_0_2.11" vType="type1" speedFactor="1.08" vaporized=""/>
    <tripinfo id="f_0_3.20" depart="164.00" departLane="np3_nt3_0" departPos="9.88" departSpeed="0.00" departDelay="0.36" arrival="462.00" arrivalLane="nt14_np11_0" arrivalPos="75.00" arrivalSpeed="9.78" duration="298.00" routeLength="941.21" waitingTime="139.00" waitingCount="13" stopTime="0.00" timeLoss="223.08" rerouteNo="0" devices="tripinfo_f_0_3.20" vType="type1" speedFactor="1.05" vaporized=""/>
    <tripinfo id="f_0_3.21" depart="172.00" departLane="np3_nt3_0" departPos="0.00" departSpeed="0.00" departDelay="0.18" arrival="464.00" arrivalLane="nt14_np11_0" arrivalPos="75.00" arrivalSpeed="10.55" duration="292.00" routeLength="951.09" waitingTime="131.00" waitingCount="13" stopTime="0.00" timeLoss="214.59" rerouteNo="0" devices="tripinfo_f_0_3.21" vType="type1" speedFactor="1.04" vaporized=""/>
    <tripinfo id="f_0_3.22" depart="188.00" departLane="np3_nt3_0" departPos="0.27" departSpeed="0.00" departDelay="8.00" arrival="472.00" arrivalLane="nt14_np11_0" arrivalPos="75.00" arrivalSpeed="9.65" duration="284.00" routeLength="950.82" waitingTime="124.00" waitingCount="12" stopTime="0.00" timeLoss="203.77" rerouteNo="0" devices="tripinfo_f_0_3.22" vType="type1" speedFactor="0.99" vaporized=""/>
    <tripinfo id="f_0_0.12" depart="164.00" departLane="np13_nt13_0" departPos="54.38" departSpeed="0.00" departDelay="0.37" arrival="474.00" arrivalLane="nt4_np5_0" arrivalPos="75.00" arrivalSpeed="14.50" duration="310.00" routeLength="1293.51" waitingTime="121.00" waitingCount="13" stopTime="0.00" timeLoss="191.93" rerouteNo="0" devices="tripinfo_f_0_0.12" vType="type1" speedFactor="0.77" vaporized=""/>
    <tripinfo id="f_0_3.23" depart="202.00" departLane="np3_nt3_0" departPos="0.00" departSpeed="0.00" departDelay="13.81" arrival="475.00" arrivalLane="nt14_np11_0" arrivalPos="75.00" arrivalSpeed="9.70" duration="273.00" routeLength="951.09" waitingTime="115.00" waitingCount="11" stopTime="0.00" timeLoss="191.00" rerouteNo="0" devices="tripinfo_f_0_3.23" vType="type1" speedFactor="0.98" vaporized=""/>
    <tripinfo id="f_0_0.13" depart="178.00" departLane="np13_nt13_0" departPos="21.30" departSpeed="0.00" departDelay="0.73" arrival="476.00" arrivalLane="nt4_np5_0" arrivalPos="75.00" arrivalSpeed="19.89" duration="298.00" routeLength="1326.59" waitingTime="110.00" waitingCount="14" stopTime="0.00" timeLoss="206.27" rerouteNo="0" devices="tripinfo_f_0_0.13" vType="type1" speedFactor="1.01" vaporized=""/>
    <tripinfo id="f_0_3.24" depart="206.00" departLane="np3_nt3_0" departPos="0.41" departSpeed="0.00" departDelay="9.63" arrival="477.00" arrivalLane="nt14_np11_0" arrivalPos="75.00" arrivalSpeed="11.11" duration="271.00" routeLength="950.68" waitingTime="107.00" waitingCount="11" stopTime="0.00" timeLoss="198.56" rerouteNo="0" devices="tripinfo_f_0_3.24" vType="type1" speedFactor="1.11" vaporized=""/>
    <tripinfo id="f_0_0.14" depart="191.00" departLane="np13_nt13_0" departPos="22.87" departSpeed="0.00" departDelay="0.10" arrival="501.00" arrivalLane="nt4_np5_0" arrivalPos="75.00" arrivalSpeed="18.44" duration="310.00" routeLength="1325.02" waitingTime="122.00" waitingCount="13" stopTime="0.00" timeLoss="216.65" rerouteNo="0" devices="tripinfo_f_0_0.14" vType="type1" speedFactor="0.99" vaporized=""/>
    <tripinfo id="f_0_3.25" depart="228.00" departLane="np3_nt3_0" departPos="0.00" departSpeed="0.00" departDelay="23.45" arrival="507.00" arrivalLane="nt14_np11_0" arrivalPos="75.00" arrivalSpeed="8.86" duration="279.00" routeLength="951.09" waitingTime="125.00" waitingCount="9" stopTime="0.00" timeLoss="199.38" rerouteNo="0" devices="tripinfo_f_0_3.25" vType="type1" speedFactor="1.00" vaporized=""/>
    <tripinfo id="f_0_3.26" depart="238.00" departLane="np3_nt3_0" departPos="0.00" departSpeed="0.00" departDelay="25.27" arrival="510.00" arrivalLane="nt14_np11_0" arrivalPos="75.00" arrivalSpeed="9.61" duration="272.00" routeLength="951.09" waitingTime="117.00" waitingCount="9" stopTime="0.00" timeLoss="190.47" rerouteNo="0" devices="tripinfo_f_0_3.26" vType="type1" speedFactor="0.99" vaporized=""/>
    <tripinfo id="f_0_3.27" depart="257.00" departLane="np3_nt3_0" departPos="0.00" departSpeed="0.00" departDelay="36.09" arrival="516.00" arrivalLane="nt14_np11_0" arrivalPos="75.00" arrivalSpeed="10.72" duration="259.00" routeLength="951.09" waitingTime="119.00" waitingCount="10" stopTime="0.00" timeLoss="186.27" rerouteNo="0" devices="tripinfo_f_0_3.27" vType="type1" speedFactor="1.10" vaporized=""/>
    <tripinfo id="f_0_3.28" depart="260.00" departLane="np3_nt3_0" departPos="0.00" departSpeed="0.00" departDelay="30.90" arrival="520.00" arrivalLane="nt14_np11_0" arrivalPos="75.00" arrivalSpeed="8.72" duration="260.00" routeLength="951.09" waitingTime="111.00" waitingCount="8" stopTime="0.00" timeLoss="174.58" rerouteNo="0" devices="tripinfo_f_0_3.28" vType="type1" speedFactor="0.94" vaporized=""/>
    <tripinfo id="f_0_3.29" depart="265.00" departLane="np3_nt3_0" departPos="0.00" departSpeed="0.00" departDelay="27.72" arrival="522.00" arrivalLane="nt14_np11_0" arrivalPos="75.00" arrivalSpeed="10.10" duration="257.00" routeLength="951.09" waitingTime="108.00" waitingCount="9" stopTime="0.00" timeLoss="184.38" rerouteNo="0" devices="tripinfo_f_0_3.29" vType="type1" speedFactor="1.11" vaporized=""/>
    <tripinfo id="f_0_3.30" depart="273.00" departLane="np3_nt3_0" departPos="0.00" departSpeed="0.00" departDelay="27.54" arrival="557.00" arrivalLane="nt14_np11_0" arrivalPos="75.00" arrivalSpeed="10.07" duration="284.00" routeLength="951.09" waitingTime="132.00" waitingCount="10" stopTime="0.00" timeLoss="198.60" rerouteNo="0" devices="tripinfo_f_0_3.30" vType="type1" speedFactor="0.93" vaporized=""/>
    <tripinfo id="f_0_0.15" depart="205.00" departLane="np13_nt13_0" departPos="0.77" departSpeed="0.00" departDelay="0.46" arrival="559.00" arrivalLane="nt4_np5_0" arrivalPos="75.00" arrivalSpeed="19.02" duration="354.00" routeLength="1347.12" waitingTime="180.00" waitingCount="13" stopTime="0.00" timeLoss="262.63" rerouteNo="0" devices="tripinfo_f_0_0.15" vType="type1" speedFactor="1.02" vaporized=""/>
    <tripinfo id="f_0_2.12" depart="99.00" departLane="np2_nt2_0" departPos="37.50" departSpeed="0.00" departDelay="0.82" arrival="564.00" arrivalLane="nt15_np10_0" arrivalPos="75.00" arrivalSpeed="8.27" duration="465.00" routeLength="913.58" waitingTime="316.00" waitingCount="10" stopTime="0.00" timeLoss="376.08" rerouteNo="0" devices="tripinfo_f_0_2.12" vType="type1" speedFactor="0.86" vaporized=""/>
    <tripinfo id="f_0_3.31" depart="292.00" departLane="np3_nt3_0" departPos="0.00" departSpeed="0.00" departDelay="38.36" arrival="567.00" arrivalLane="nt14_np11_0" arrivalPos="75.00" arrivalSpeed="10.57" duration="275.00" routeLength="951.09" waitingTime="129.00" waitingCount="10" stopTime="0.00" timeLoss="199.63" rerouteNo="0" devices="tripinfo_f_0_3.31" vType="type1" speedFactor="1.07" vaporized=""/>
    <tripinfo id="f_0_0.16" depart="219.00" departLane="np13_nt13_0" departPos="20.66" departSpeed="0.00" departDelay="0.82" arrival="573.00" arrivalLane="nt4_np5_0" arrivalPos="75.00" arrivalSpeed="21.06" duration="354.00" routeLength="1327.23" waitingTime="172.00" waitingCount="14" stopTime="0.00" timeLoss="275.47" rerouteNo="0" devices="tripinfo_f_0_0.16" vType="type1" speedFactor="1.17" vaporized=""/>
    <tripinfo id="f_0_0.17" depart="232.00" departLane="np13_nt13_0" departPos="45.98" departSpeed="0.00" departDelay="0.19" arrival="575.00" arrivalLane="nt4_np5_0" arrivalPos="75.00" arrivalSpeed="17.55" duration="343.00" routeLength="1301.91" waitingTime="176.00" waitingCount="12" stopTime="0.00" timeLoss="241.94" rerouteNo="0" devices="tripinfo_f_0_0.17" vType="type1" speedFactor="0.90" vaporized=""/>
    <tripinfo id="f_0_0.18" depart="246.00" departLane="np13_nt13_0" departPos="49.06" departSpeed="0.00" departDelay="0.55" arrival="599.00" arrivalLane="nt4_np5_0" arrivalPos="75.00" arrivalSpeed="21.14" duration="353.00" routeLength="1298.83" waitingTime="205.00" waitingCount="11" stopTime="0.00" timeLoss="269.41" rerouteNo="0" devices="tripinfo_f_0_0.18" vType="type1" speedFactor="1.08" vaporized=""/>
    <tripinfo id="f_0_3.32" depart="296.00" departLane="np3_nt3_0" departPos="0.00" departSpeed="0.00" departDelay="34.18" arrival="599.00" arrivalLane="nt14_np11_0" arrivalPos="75.00" arrivalSpeed="7.35" duration="303.00" routeLength="951.09" waitingTime="147.00" waitingCount="9" stopTime="0.00" timeLoss="212.23" rerouteNo="0" devices="tripinfo_f_0_3.32" vType="type1" speedFactor="0.88" vaporized=""/>
    <tripinfo id="f_0_3.33" depart="298.00" departLane="np3_nt3_0" departPos="0.00" departSpeed="0.00" departDelay="27.99" arrival="601.00" arrivalLane="nt14_np11_0" arrivalPos="75.00" arrivalSpeed="8.82" duration="303.00" routeLength="951.09" waitingTime="146.00" waitingCount="10" stopTime="0.00" timeLoss="219.85" rerouteNo="0" devices="tripinfo_f_0_3.33" vType="type1" speedFactor="0.97" vaporized=""/>
    <tripinfo id="f_0_2.13" depart="107.00" departLane="np2_nt2_0" departPos="63.01" departSpeed="0.00" departDelay="0.63" arrival="613.00" arrivalLane="nt15_np10_0" arrivalPos="75.00" arrivalSpeed="9.35" duration="506.00" routeLength="888.07" waitingTime="355.00" waitingCount="12" stopTime="0.00" timeLoss="423.24" rerouteNo="0" devices="tripinfo_f_0_2.13" vType="type1" speedFactor="0.90" vaporized=""/>
    <tripinfo id="f_0_2.14" depart="115.00" departLane="np2_nt2_0" departPos="56.78" departSpeed="0.00" departDelay="0.45" arrival="615.00" arrivalLane="nt15_np10_0" arrivalPos="75.00" arrivalSpeed="8.82" duration="500.00" routeLength="894.30" waitingTime="342.00" waitingCount="15" stopTime="0.00" timeLoss="424.78" rerouteNo="0" devices="tripinfo_f_0_2.14" vType="type1" speedFactor="1.00" vaporized=""/>