<?xml version="1.0" encoding="UTF-8"?>

<!-- generated on 2023-08-30 18:08:14 by Eclipse SUMO libsumo Version 1.18.0
<configuration xmlns:xsi="http://www.w3.org/2001/XMLSchema-instance" xsi:noNamespaceSchemaLocation="http://sumo.dlr.de/xsd/libsumoConfiguration.xsd">

    <input>
        <net-file value="/home/stefan/RESCO/./environments/arterial4x4/arterial4x4.net.xml"/>
        <route-files value="/home/stefan/RESCO/./environments/arterial4x4/arterial4x4_16.rou.xml"/>
    </input>

    <output>
        <tripinfo-output value="/home/stefan/results/RAINBOW-tr0-arterial4x4-0-drq_norm-wait_norm/tripinfo_16.xml"/>
        <tripinfo-output.write-unfinished value="true"/>
    </output>

    <processing>
        <time-to-teleport value="-1"/>
    </processing>

    <report>
        <no-warnings value="True"/>
        <no-step-log value="True"/>
    </report>

    <random_number>
        <random value="true"/>
    </random_number>

</configuration>
-->

<tripinfos xmlns:xsi="http://www.w3.org/2001/XMLSchema-instance" xsi:noNamespaceSchemaLocation="http://sumo.dlr.de/xsd/tripinfo_file.xsd">
    <tripinfo id="f_0_2.0" depart="0.00" departLane="np2_nt2_0" departPos="56.24" departSpeed="0.00" departDelay="0.00" arrival="147.00" arrivalLane="nt15_np10_0" arrivalPos="75.00" arrivalSpeed="10.12" duration="147.00" routeLength="894.84" waitingTime="46.00" waitingCount="4" stopTime="0.00" timeLoss="71.54" rerouteNo="0" devices="tripinfo_f_0_2.0" vType="type1" speedFactor="0.99" vaporized=""/>
    <tripinfo id="f_0_0.0" depart="0.00" departLane="np13_nt13_0" departPos="46.96" departSpeed="0.00" departDelay="0.00" arrival="149.00" arrivalLane="nt4_np5_0" arrivalPos="75.00" arrivalSpeed="20.42" duration="149.00" routeLength="1300.93" waitingTime="28.00" waitingCount="6" stopTime="0.00" timeLoss="62.43" rerouteNo="0" devices="tripinfo_f_0_0.0" vType="type1" speedFactor="1.05" vaporized=""/>
    <tripinfo id="f_0_2.1" depart="9.00" departLane="np2_nt2_0" departPos="12.84" departSpeed="0.00" departDelay="0.82" arrival="149.00" arrivalLane="nt15_np10_0" arrivalPos="75.00" arrivalSpeed="9.54" duration="140.00" routeLength="938.24" waitingTime="37.00" waitingCount="2" stopTime="0.00" timeLoss="58.95" rerouteNo="0" devices="tripinfo_f_0_2.1" vType="type1" speedFactor="0.97" vaporized=""/>
    <tripinfo id="f_0_3.0" depart="0.00" departLane="np3_nt3_0" departPos="13.32" departSpeed="0.00" departDelay="0.00" arrival="156.00" arrivalLane="nt14_np11_0" arrivalPos="75.00" arrivalSpeed="10.29" duration="156.00" routeLength="937.77" waitingTime="65.00" waitingCount="3" stopTime="0.00" timeLoss="88.15" rerouteNo="0" devices="tripinfo_f_0_3.0" vType="type1" speedFactor="1.15" vaporized=""/>
    <tripinfo id="f_0_2.2" depart="17.00" departLane="np2_nt2_0" departPos="49.41" departSpeed="0.00" departDelay="0.64" arrival="162.00" arrivalLane="nt15_np10_0" arrivalPos="75.00" arrivalSpeed="9.61" duration="145.00" routeLength="901.67" waitingTime="47.00" waitingCount="3" stopTime="0.00" timeLoss="72.55" rerouteNo="0" devices="tripinfo_f_0_2.2" vType="type1" speedFactor="1.05" vaporized=""/>
    <tripinfo id="f_0_1.0" depart="0.00" departLane="np16_nt1_0" departPos="10.42" departSpeed="0.00" departDelay="0.00" arrival="177.00" arrivalLane="nt16_np8_0" arrivalPos="75.00" arrivalSpeed="19.62" duration="177.00" routeLength="1337.46" waitingTime="50.00" waitingCount="5" stopTime="0.00" timeLoss="87.70" rerouteNo="0" devices="tripinfo_f_0_1.0" vType="type1" speedFactor="1.04" vaporized=""/>
    <tripinfo id="f_0_1.1" depart="14.00" departLane="np16_nt1_0" departPos="23.76" departSpeed="0.00" departDelay="0.36" arrival="180.00" arrivalLane="nt16_np8_0" arrivalPos="75.00" arrivalSpeed="20.81" duration="166.00" routeLength="1324.12" waitingTime="38.00" waitingCount="5" stopTime="0.00" timeLoss="80.50" rerouteNo="0" devices="tripinfo_f_0_1.1" vType="type1" speedFactor="1.08" vaporized=""/>
    <tripinfo id="f_0_2.3" depart="25.00" departLane="np2_nt2_0" departPos="30.25" departSpeed="0.00" departDelay="0.45" arrival="192.00" arrivalLane="nt15_np10_0" arrivalPos="75.00" arrivalSpeed="10.19" duration="167.00" routeLength="920.83" waitingTime="50.00" waitingCount="6" stopTime="0.00" timeLoss="86.28" rerouteNo="0" devices="tripinfo_f_0_2.3" vType="type1" speedFactor="0.96" vaporized=""/>
    <tripinfo id="f_0_2.4" depart="33.00" departLane="np2_nt2_0" departPos="28.82" departSpeed="0.00" departDelay="0.27" arrival="232.00" arrivalLane="nt15_np10_0" arrivalPos="75.00" arrivalSpeed="9.70" duration="199.00" routeLength="922.26" waitingTime="81.00" waitingCount="7" stopTime="0.00" timeLoss="122.55" rerouteNo="0" devices="tripinfo_f_0_2.4" vType="type1" speedFactor="1.01" vaporized=""/>
    <tripinfo id="f_0_3.1" depart="9.00" departLane="np3_nt3_0" departPos="31.11" departSpeed="0.00" departDelay="0.82" arrival="234.00" arrivalLane="nt14_np11_0" arrivalPos="75.00" arrivalSpeed="9.14" duration="225.00" routeLength="919.98" waitingTime="107.00" waitingCount="5" stopTime="0.00" timeLoss="139.37" rerouteNo="0" devices="tripinfo_f_0_3.1" vType="type1" speedFactor="0.90" vaporized=""/>
    <tripinfo id="f_0_0.1" depart="14.00" departLane="np13_nt13_0" departPos="52.47" departSpeed="0.00" departDelay="0.36" arrival="252.00" arrivalLane="nt4_np5_0" arrivalPos="75.00" arrivalSpeed="11.95" duration="238.00" routeLength="1295.42" waitingTime="70.00" waitingCount="4" stopTime="0.00" timeLoss="112.11" rerouteNo="0" devices="tripinfo_f_0_0.1" vType="type1" speedFactor="0.72" vaporized=""/>
    <tripinfo id="f_0_2.5" depart="41.00" departLane="np2_nt2_0" departPos="11.91" departSpeed="0.00" departDelay="0.09" arrival="263.00" arrivalLane="nt15_np10_0" arrivalPos="75.00" arrivalSpeed="8.34" duration="222.00" routeLength="939.17" waitingTime="104.00" waitingCount="7" stopTime="0.00" timeLoss="141.07" rerouteNo="0" devices="tripinfo_f_0_2.5" vType="type1" speedFactor="0.99" vaporized=""/>
    <tripinfo id="f_0_0.2" depart="28.00" departLane="np13_nt13_0" departPos="20.97" departSpeed="0.00" departDelay="0.73" arrival="273.00" arrivalLane="nt4_np5_0" arrivalPos="75.00" arrivalSpeed="19.32" duration="245.00" routeLength="1326.92" waitingTime="92.00" waitingCount="5" stopTime="0.00" timeLoss="153.15" rerouteNo="0" devices="tripinfo_f_0_0.2" vType="type1" speedFactor="1.00" vaporized=""/>
    <tripinfo id="f_0_0.3" depart="41.00" departLane="np13_nt13_0" departPos="54.53" departSpeed="0.00" departDelay="0.09" arrival="274.00" arrivalLane="nt4_np5_0" arrivalPos="75.00" arrivalSpeed="18.90" duration="233.00" routeLength="1293.36" waitingTime="97.00" waitingCount="5" stopTime="0.00" timeLoss="143.35" rerouteNo="0" devices="tripinfo_f_0_0.3" vType="type1" speedFactor="1.01" vaporized=""/>
    <tripinfo id="f_0_3.2" depart="17.00" departLane="np3_nt3_0" departPos="28.93" departSpeed="0.00" departDelay="0.64" arrival="287.00" arrivalLane="nt14_np11_0" arrivalPos="75.00" arrivalSpeed="9.34" duration="270.00" routeLength="922.16" waitingTime="160.00" waitingCount="6" stopTime="0.00" timeLoss="196.21" rerouteNo="0" devices="tripinfo_f_0_3.2" vType="type1" speedFactor="1.05" vaporized=""/>
    <tripinfo id="f_0_0.4" depart="55.00" departLane="np13_nt13_0" departPos="15.95" departSpeed="0.00" departDelay="0.46" arrival="298.00" arrivalLane="nt4_np5_0" arrivalPos="75.00" arrivalSpeed="21.26" duration="243.00" routeLength="1331.94" waitingTime="110.00" waitingCount="5" stopTime="0.00" timeLoss="158.16" rerouteNo="0" devices="tripinfo_f_0_0.4" vType="type1" speedFactor="1.09" vaporized=""/>
    <tripinfo id="f_0_0.5" depart="69.00" departLane="np13_nt13_0" departPos="45.96" departSpeed="0.00" departDelay="0.82" arrival="302.00" arrivalLane="nt4_np5_0" arrivalPos="75.00" arrivalSpeed="19.32" duration="233.00" routeLength="1301.93" waitingTime="113.00" waitingCount="5" stopTime="0.00" timeLoss="148.56" rerouteNo="0" devices="tripinfo_f_0_0.5" vType="type1" speedFactor="1.08" vaporized=""/>
    <tripinfo id="f_0_2.6" depart="50.00" departLane="np2_nt2_0" departPos="2.33" departSpeed="0.00" departDelay="0.91" arrival="304.00" arrivalLane="nt15_np10_0" arrivalPos="75.00" arrivalSpeed="8.80" duration="254.00" routeLength="948.75" waitingTime="118.00" waitingCount="9" stopTime="0.00" timeLoss="163.19" rerouteNo="0" devices="tripinfo_f_0_2.6" vType="type1" speedFactor="0.88" vaporized=""/>
    <tripinfo id="f_0_1.2" depart="28.00" departLane="np16_nt1_0" departPos="19.34" departSpeed="0.00" departDelay="0.73" arrival="315.00" arrivalLane="nt16_np8_0" arrivalPos="75.00" arrivalSpeed="18.52" duration="287.00" routeLength="1328.54" waitingTime="133.00" waitingCount="11" stopTime="0.00" timeLoss="187.94" rerouteNo="0" devices="tripinfo_f_0_1.2" vType="type1" speedFactor="0.93" vaporized=""/>
    <tripinfo id="f_0_2.7" depart="58.00" departLane="np2_nt2_0" departPos="8.35" departSpeed="0.00" departDelay="0.73" arrival="358.00" arrivalLane="nt15_np10_0" arrivalPos="75.00" arrivalSpeed="8.22" duration="300.00" routeLength="942.73" waitingTime="157.00" waitingCount="11" stopTime="0.00" timeLoss="212.46" rerouteNo="0" devices="tripinfo_f_0_2.7" vType="type1" speedFactor="0.90" vaporized=""/>
    <tripinfo id="f_0_2.8" depart="66.00" departLane="np2_nt2_0" departPos="34.55" departSpeed="0.00" departDelay="0.54" arrival="360.00" arrivalLane="nt15_np10_0" arrivalPos="75.00" arrivalSpeed="10.01" duration="294.00" routeLength="916.53" waitingTime="155.00" waitingCount="10" stopTime="0.00" timeLoss="220.27" rerouteNo="0" devices="tripinfo_f_0_2.8" vType="type1" speedFactor="1.05" vaporized=""/>
    <tripinfo id="f_0_0.6" depart="82.00" departLane="np13_nt13_0" departPos="8.36" departSpeed="0.00" departDelay="0.18" arrival="374.00" arrivalLane="nt4_np5_0" arrivalPos="75.00" arrivalSpeed="21.85" duration="292.00" routeLength="1339.53" waitingTime="167.00" waitingCount="7" stopTime="0.00" timeLoss="210.07" rerouteNo="0" devices="tripinfo_f_0_0.6" vType="type1" speedFactor="1.14" vaporized=""/>
    <tripinfo id="f_0_3.3" depart="25.00" departLane="np3_nt3_0" departPos="19.81" departSpeed="0.00" departDelay="0.45" arrival="383.00" arrivalLane="nt14_np11_0" arrivalPos="75.00" arrivalSpeed="10.09" duration="358.00" routeLength="931.28" waitingTime="237.00" waitingCount="6" stopTime="0.00" timeLoss="277.15" rerouteNo="0" devices="tripinfo_f_0_3.3" vType="type1" speedFactor="0.97" vaporized=""/>
    <tripinfo id="f_0_3.4" depart="33.00" departLane="np3_nt3_0" departPos="33.49" departSpeed="0.00" departDelay="0.27" arrival="385.00" arrivalLane="nt14_np11_0" arrivalPos="75.00" arrivalSpeed="11.01" duration="352.00" routeLength="917.60" waitingTime="231.00" waitingCount="7" stopTime="0.00" timeLoss="276.53" rerouteNo="0" devices="tripinfo_f_0_3.4" vType="type1" speedFactor="1.03" vaporized=""/>
    <tripinfo id="f_0_0.7" depart="96.00" departLane="np13_nt13_0" departPos="59.97" departSpeed="0.00" departDelay="0.55" arrival="394.00" arrivalLane="nt4_np5_0" arrivalPos="75.00" arrivalSpeed="19.91" duration="298.00" routeLength="1287.92" waitingTime="184.00" waitingCount="7" stopTime="0.00" timeLoss="216.26" rerouteNo="0" devices="tripinfo_f_0_0.7" vType="type1" speedFactor="1.10" vaporized=""/>
    <tripinfo id="f_0_2.9" depart="74.00" departLane="np2_nt2_0" departPos="62.04" departSpeed="0.00" departDelay="0.36" arrival="413.00" arrivalLane="nt15_np10_0" arrivalPos="75.00" arrivalSpeed="9.59" duration="339.00" routeLength="889.04" waitingTime="202.00" waitingCount="11" stopTime="0.00" timeLoss="261.66" rerouteNo="0" devices="tripinfo_f_0_2.9" vType="type1" speedFactor="0.97" vaporized=""/>
    <tripinfo id="f_0_2.10" depart="82.00" departLane="np2_nt2_0" departPos="52.74" departSpeed="0.00" departDelay="0.18" arrival="415.00" arrivalLane="nt15_np10_0" arrivalPos="75.00" arrivalSpeed="9.44" duration="333.00" routeLength="898.34" waitingTime="192.00" waitingCount="9" stopTime="0.00" timeLoss="259.02" rerouteNo="0" devices="tripinfo_f_0_2.10" vType="type1" speedFactor="1.02" vaporized=""/>
    <tripinfo id="f_0_3.5" depart="41.00" departLane="np3_nt3_0" departPos="14.70" departSpeed="0.00" departDelay="0.09" arrival="417.00" arrivalLane="nt14_np11_0" arrivalPos="75.00" arrivalSpeed="9.61" duration="376.00" routeLength="936.39" waitingTime="242.00" waitingCount="9" stopTime="0.00" timeLoss="301.87" rerouteNo="0" devices="tripinfo_f_0_3.5" vType="type1" speedFactor="1.06" vaporized=""/>
    <tripinfo id="f_0_2.11" depart="90.00" departLane="np2_nt2_0" departPos="29.38" departSpeed="0.00" departDelay="0.00" arrival="417.00" arrivalLane="nt15_np10_0" arrivalPos="75.00" arrivalSpeed="9.94" duration="327.00" routeLength="921.70" waitingTime="179.00" waitingCount="10" stopTime="0.00" timeLoss="251.56" rerouteNo="0" devices="tripinfo_f_0_2.11" vType="type1" speedFactor="1.03" vaporized=""/>
    <tripinfo id="f_0_0.8" depart="110.00" departLane="np13_nt13_0" departPos="55.09" departSpeed="0.00" departDelay="0.91" arrival="419.00" arrivalLane="nt4_np5_0" arrivalPos="75.00" arrivalSpeed="19.42" duration="309.00" routeLength="1292.80" waitingTime="172.00" waitingCount="11" stopTime="0.00" timeLoss="225.71" rerouteNo="0" devices="tripinfo_f_0_0.8" vType="type1" speedFactor="1.10" vaporized=""/>
    <tripinfo id="f_0_1.3" depart="41.00" departLane="np16_nt1_0" departPos="50.68" departSpeed="0.00" departDelay="0.09" arrival="427.00" arrivalLane="nt16_np8_0" arrivalPos="75.00" arrivalSpeed="16.88" duration="386.00" routeLength="1297.20" waitingTime="235.00" waitingCount="8" stopTime="0.00" timeLoss="289.09" rerouteNo="0" devices="tripinfo_f_0_1.3" vType="type1" speedFactor="0.93" vaporized=""/>
    <tripinfo id="f_0_2.12" depart="99.00" departLane="np2_nt2_0" departPos="36.54" departSpeed="0.00" departDelay="0.82" arrival="430.00" arrivalLane="nt15_np10_0" arrivalPos="75.00" arrivalSpeed="7.92" duration="331.00" routeLength="914.54" waitingTime="176.00" waitingCount="8" stopTime="0.00" timeLoss="240.69" rerouteNo="0" devices="tripinfo_f_0_2.12" vType="type1" speedFactor="0.85" vaporized=""/>
    <tripinfo id="f_0_1.4" depart="55.00" departLane="np16_nt1_0" departPos="1.62" departSpeed="0.00" departDelay="0.46" arrival="432.00" arrivalLane="nt16_np8_0" arrivalPos="75.00" arrivalSpeed="19.46" duration="377.00" routeLength="1346.26" waitingTime="219.00" waitingCount="8" stopTime="0.00" timeLoss="289.98" rerouteNo="0" devices="tripinfo_f_0_1.4" vType="type1" speedFactor="1.07" vaporized=""/>
    <tripinfo id="f_0_3.6" depart="50.00" departLane="np3_nt3_0" departPos="25.80" departSpeed="0.00" departDelay="0.91" arrival="453.00" arrivalLane="nt14_np11_0" arrivalPos="75.00" arrivalSpeed="8.55" duration="403.00" routeLength="925.29" waitingTime="261.00" waitingCount="10" stopTime="0.00" timeLoss="321.61" rerouteNo="0" devices="tripinfo_f_0_3.6" vType="type1" speedFactor="0.96" vaporized=""/>
    <tripinfo id="f_0_3.7" depart="58.00" departLane="np3_nt3_0" departPos="14.84" departSpeed="0.00" departDelay="0.73" arrival="455.00" arrivalLane="nt14_np11_0" arrivalPos="75.00" arrivalSpeed="13.09" duration="397.00" routeLength="936.25" waitingTime="258.00" waitingCount="8" stopTime="0.00" timeLoss="332.59" rerouteNo="0" devices="tripinfo_f_0_3.7" vType="type1" speedFactor="1.23" vaporized=""/>
    <tripinfo id="f_0_3.8" depart="66.00" departLane="np3_nt3_0" departPos="7.01" departSpeed="0.00" departDelay="0.54" arrival="457.00" arrivalLane="nt14_np11_0" arrivalPos="75.00" arrivalSpeed="9.37" duration="391.00" routeLength="944.08" waitingTime="270.00" waitingCount="9" stopTime="0.00" timeLoss="315.64" rerouteNo="0" devices="tripinfo_f_0_3.8" vType="type1" speedFactor="1.05" vaporized=""/>
    <tripinfo id="f_0_3.9" depart="74.00" departLane="np3_nt3_0" departPos="38.71" departSpeed="0.00" departDelay="0.36" arrival="459.00" arrivalLane="nt14_np11_0" arrivalPos="75.00" arrivalSpeed="9.01" duration="385.00" routeLength="912.38" waitingTime="258.00" waitingCount="9" stopTime="0.00" timeLoss="310.02" rerouteNo="0" devices="tripinfo_f_0_3.9" vType="type1" speedFactor="1.02" vaporized=""/>
    <tripinfo id="f_0_2.13" depart="107.00" departLane="np2_nt2_0" departPos="21.94" departSpeed="0.00" departDelay="0.63" arrival="469.00" arrivalLane="nt15_np10_0" arrivalPos="75.00" arrivalSpeed="10.10" duration="362.00" routeLength="929.14" waitingTime="229.00" waitingCount="7" stopTime="0.00" timeLoss="282.59" rerouteNo="0" devices="tripinfo_f_0_2.13" vType="type1" speedFactor="0.99" vaporized=""/>
    <tripinfo id="f_0_3.10" depart="82.00" departLane="np3_nt3_0" departPos="3.78" departSpeed="0.00" departDelay="0.18" arrival="506.00" arrivalLane="nt14_np11_0" arrivalPos="75.00" arrivalSpeed="10.37" duration="424.00" routeLength="947.31" waitingTime="290.00" waitingCount="10" stopTime="0.00" timeLoss="350.10" rerouteNo="0" devices="tripinfo_f_0_3.10" vType="type1" speedFactor="1.07" vaporized=""/>
    <tripinfo id="f_0_2.14" depart="115.00" departLane="np2_nt2_0" departPos="47.54" departSpeed="0.00" departDelay="0.45" arrival="515.00" arrivalLane="nt15_np10_0" arrivalPos="75.00" arrivalSpeed="13.09" duration="400.00" routeLength="903.54" waitingTime="269.00" waitingCount="10" stopTime="0.00" timeLoss="338.16" rerouteNo="0" devices="tripinfo_f_0_2.14" vType="type1" speedFactor="1.22" vaporized=""/>
    <tripinfo id="f_0_2.15" depart="123.00" departLane="np2_nt2_0" departPos="23.82" departSpeed="0.00" departDelay="0.27" arrival="518.00" arrivalLane="nt15_np10_0" arrivalPos="75.00" arrivalSpeed="10.59" duration="395.00" routeLength="927.26" waitingTime="255.00" waitingCount="11" stopTime="0.00" timeLoss="326.16" rerouteNo="0" devices="tripinfo_f_0_2.15" vType="type1" speedFactor="1.13" vaporized=""/>
    <tripinfo id="f_0_0.9" depart="123.00" departLane="np13_nt13_0" departPos="53.38" departSpeed="0.00" departDelay="0.28" arrival="519.00" arrivalLane="nt4_np5_0" arrivalPos="75.00" arrivalSpeed="17.22" duration="396.00" routeLength="1294.51" waitingTime="254.00" waitingCount="9" stopTime="0.00" timeLoss="299.17" rerouteNo="0" devices="tripinfo_f_0_0.9" vType="type1" speedFactor="0.94" vaporized=""/>
    <tripinfo id="f_0_0.10" depart="137.00" departLane="np13_nt13_0" departPos="46.59" departSpeed="0.00" departDelay="0.64" arrival="533.00" arrivalLane="nt4_np5_0" arrivalPos="75.00" arrivalSpeed="17.08" duration="396.00" routeLength="1301.30" waitingTime="244.00" waitingCount="10" stopTime="0.00" timeLoss="296.51" rerouteNo="0" devices="tripinfo_f_0_0.10" vType="type1" speedFactor="0.91" vaporized=""/>
    <tripinfo id="f_0_0.11" depart="150.00" departLane="np13_nt13_0" departPos="49.77" departSpeed="0.00" departDelay="0.00" arrival="535.00" arrivalLane="nt4_np5_0" arrivalPos="75.00" arrivalSpeed="20.39" duration="385.00" routeLength="1298.12" waitingTime="234.00" waitingCount="9" stopTime="0.00" timeLoss="297.10" rerouteNo="0" devices="tripinfo_f_0_0.11" vType="type1" speedFactor="1.03" vaporized=""/>
    <tripinfo id="f_0_3.11" depart="90.00" departLane="np3_nt3_0" departPos="28.59" departSpeed="0.00" departDelay="0.00" arrival="606.00" arrivalLane="nt14_np11_0" arrivalPos="75.00" arrivalSpeed="10.72" duration="516.00" routeLength="922.50" waitingTime="390.00" waitingCount="11" stopTime="0.00" timeLoss="449.00" rerouteNo="0" devices="tripinfo_f_0_3.11" vType="type1" speedFactor="1.15" vaporized=""/>
    <tripinfo id="f_0_3.12" depart="99.00" departLane="np3_nt3_0" departPos="24.36" departSpeed="0.00" departDelay="0.82" arrival="618.00" arrivalLane="nt14_np11_0" arrivalPos="75.00" arrivalSpeed="8.91" duration="519.00" routeLength="926.73" waitingTime="370.00" waitingCount="12" stopTime="0.00" timeLoss="433.16" rerouteNo="0" devices="tripinfo_f_0_3.12" vType="type1" speedFactor="0.91" vaporized=""/>
    <tripinfo id="f_0_2.16" depart="131.00" departLane="np2_nt2_0" departPos="40.80" departSpeed="0.00" departDelay="0.09" arrival="618.00" arrivalLane="nt15_np10_0" arrivalPos="75.00" arrivalSpeed="8.59" duration="487.00" routeLength="910.28" waitingTime="331.00" waitingCount="9" stopTime="0.00" timeLoss="405.60" rerouteNo="0" devices="tripinfo_f_0_2.16" vType="type1" speedFactor="0.94" vaporized=""/>
    <tripinfo id="f_0_3.13" depart="107.00" departLane="np3_nt3_0" departPos="24.90" departSpeed="0.00" departDelay="0.63" arrival="620.00" arrivalLane="nt14_np11_0" arrivalPos="75.00" arrivalSpeed="9.95" duration="513.00" routeLength="926.19" waitingTime="375.00" waitingCount="13" stopTime="0.00" timeLoss="439.53" rerouteNo="0" devices="tripinfo_f_0_3.13" vType="type1" speedFactor="1.05" vaporized=""/>
    <tripinfo id="f_0_3.14" depart="115.00" departLane="np3_nt3_0" departPos="14.70" departSpeed="0.00" departDelay="0.45" arrival="622.00" arrivalLane="nt14_np11_0" arrivalPos="75.00" arrivalSpeed="11.49" duration="507.00" routeLength="936.39" waitingTime="351.00" waitingCount="14" stopTime="0.00" timeLoss="437.71" rerouteNo="0" devices="tripinfo_f_0_3.14" vType="type1" speedFactor="1.13" vaporized=""/>
    <tripinfo id="f_0_3.15" depart="123.00" departLane="np3_nt3_0" departPos="0.00" departSpeed="0.00" departDelay="0.27" arrival="624.00" arrivalLane="nt14_np11_0" arrivalPos="75.00" arrivalSpeed="12.10" duration="501.00" routeLength="951.09" waitingTime="329.00" waitingCount="15" stopTime="0.00" timeLoss="430.67" rerouteNo="0" devices="tripinfo_f_0_3.15" vType="type1" speedFactor="1.15" vaporized=""/>
    <tripinfo id="f_0_2.17" depart="140.00" departLane="np2_nt2_0" departPos="37.46" departSpeed="0.00" departDelay="0.91" arrival="631.00" arrivalLane="nt15_np10_0" arrivalPos="75.00" arrivalSpeed="10.62" duration="491.00" routeLength="913.62" waitingTime="329.00" waitingCount="13" stopTime="0.00" timeLoss="426.19" rerouteNo="0" devices="tripinfo_f_0_2.17" vType="type1" speedFactor="1.18" vaporized=""/>
    <tripinfo id="f_0_1.5" depart="69.00" departLane="np16_nt1_0" departPos="36.81" departSpeed="0.00" departDelay="0.82" arrival="633.00" arrivalLane="nt16_np8_0" arrivalPos="75.00" arrivalSpeed="20.22" duration="564.00" routeLength="1311.07" waitingTime="388.00" waitingCount="14" stopTime="0.00" timeLoss="479.49" rerouteNo="0" devices="tripinfo_f_0_1.5" vType="type1" speedFactor="1.09" vaporized=""/>
    <tripinfo id="f_0_0.12" depart="164.00" departLane="np13_nt13_0" departPos="25.30" departSpeed="0.00" departDelay="0.37" arrival="633.00" arrivalLane="nt4_np5_0" arrivalPos="75.00" arrivalSpeed="16.39" duration="469.00" routeLength="1322.59" waitingTime="305.00" waitingCount="9" stopTime="0.00" timeLoss="362.09" rerouteNo="0" devices="tripinfo_f_0_0.12" vType="type1" speedFactor="0.86" vaporized=""/>
    <tripinfo id="f_0_1.6" depart="82.00" departLane="np16_nt1_0" departPos="35.47" departSpeed="0.00" departDelay="0.18" arrival="635.00" arrivalLane="nt16_np8_0" arrivalPos="75.00" arrivalSpeed="22.37" duration="553.00" routeLength="1312.41" waitingTime="369.00" waitingCount="15" stopTime="0.00" timeLoss="472.48" rerouteNo="0" devices="tripinfo_f_0_1.6" vType="type1" speedFactor="1.15" vaporized=""/>
    <tripinfo id="f_0_0.13" depart="178.00" departLane="np13_nt13_0" departPos="45.91" departSpeed="0.00" departDelay="0.73" arrival="644.00" arrivalLane="nt4_np5_0" arrivalPos="75.00" arrivalSpeed="15.41" duration="466.00" routeLength="1301.98" waitingTime="294.00" waitingCount="11" stopTime="0.00" timeLoss="360.51" rerouteNo="0" devices="tripinfo_f_0_0.13" vType="type1" speedFactor="0.86" vaporized=""/>
    <tripinfo id="f_0_1.7" depart="96.00" departLane="np16_nt1_0" departPos="6.46" departSpeed="0.00" departDelay="0.55" arrival="653.00" arrivalLane="nt16_np8_0" arrivalPos="75.00" arrivalSpeed="19.70" duration="557.00" routeLength="1341.42" waitingTime="357.00" waitingCount="15" stopTime="0.00" timeLoss="470.76" rerouteNo="0" devices="tripinfo_f_0_1.7" vType="type1" speedFactor="1.07" vaporized=""/>
    <tripinfo id="f_0_0.14" depart="191.00" departLane="np13_nt13_0" departPos="13.92" departSpeed="0.00" departDelay="0.10" arrival="654.00" arrivalLane="nt4_np5_0" arrivalPos="75.00" arrivalSpeed="15.07" duration="463.00" routeLength="1333.97" waitingTime="286.00" waitingCount="13" stopTime="0.00" timeLoss="346.57" rerouteNo="0" devices="tripinfo_f_0_0.14" vType="type1" speedFactor="0.79" vaporized=""/>
    <tripinfo id="f_0_3.16" depart="131.00" departLane="np3_nt3_0" departPos="0.72" departSpeed="0.00" departDelay="0.09" arrival="716.00" arrivalLane="nt14_np11_0" arrivalPos="75.00" arrivalSpeed="11.85" duration="585.00" routeLength="950.37" waitingTime="401.00" waitingCount="16" stopTime="0.00" timeLoss="513.67" rerouteNo="0" devices="tripinfo_f_0_3.16" vType="type1" speedFactor="1.12" vaporized=""/>
    <tripinfo id="f_0_3.17" depart="144.00" departLane="np3_nt3_0" departPos="0.70" departSpeed="0.00" departDelay="4.91" arrival="719.00" arrivalLane="nt14_np11_0" arrivalPos="75.00" arrivalSpeed="11.22" duration="575.00" routeLength="950.39" waitingTime="386.00" waitingCount="15" stopTime="0.00" timeLoss="497.75" rerouteNo="0" devices="tripinfo_f_0_3.17" vType="type1" speedFactor="1.04" vaporized=""/>
    <tripinfo id="f_0_0.15" depart="205.00" departLane="np13_nt13_0" departPos="13.43" departSpeed="0.00" departDelay="0.46" arrival="728.00" arrivalLane="nt4_np5_0" arrivalPos="75.00" arrivalSpeed="21.70" duration="523.00" routeLength="1334.46" waitingTime="350.00" waitingCount="11" stopTime="0.00" timeLoss="439.27" rerouteNo="0" devices="tripinfo_f_0_0.15" vType="type1" speedFactor="1.11" vaporized=""/>
    <tripinfo id="f_0_3.18" depart="187.00" departLane="np3_nt3_0" departPos="0.00" departSpeed="0.00" departDelay="39.72" arrival="734.00" arrivalLane="nt14_np11_0" arrivalPos="75.00" arrivalSpeed="7.47" duration="547.00" routeLength="951.09" waitingTime="370.00" waitingCount="13" stopTime="0.00" timeLoss="458.07" rerouteNo="0" devices="tripinfo_f_0_3.18" vType="type1" speedFactor="0.90" vaporized=""/>
    <tripinfo id="f_0_3.19" depart="190.00" departLane="np3_nt3_0" departPos="0.00" departSpeed="0.00" departDelay="34.54" arrival="761.00" arrivalLane="nt14_np11_0" arrivalPos="75.00" arrivalSpeed="11.01" duration="571.00" routeLength="951.09" waitingTime="396.00" waitingCount="16" stopTime="0.00" timeLoss="502.69" rerouteNo="0" devices="tripinfo_f_0_3.19" vType="type1" speedFactor="1.17" vaporized=""/>
    <tripinfo id="f_0_0.16" depart="219.00" departLane="np13_nt13_0" departPos="15.70" departSpeed="0.00" departDelay="0.82" arrival="779.00" arrivalLane="nt4_np5_0" arrivalPos="75.00" arrivalSpeed="17.19" duration="560.00" routeLength="1332.19" waitingTime="373.00" waitingCount="14" stopTime="0.00" timeLoss="464.35" rerouteNo="0" devices="tripinfo_f_0_0.16" vType="type1" speedFactor="0.97" vaporized=""/>
    <tripinfo id="f_0_3.20" depart="239.00" departLane="np3_nt3_0" departPos="0.00" departSpeed="0.00" departDelay="75.36" arrival="797.00" arrivalLane="nt14_np11_0" arrivalPos="75.00" arrivalSpeed="9.12" duration="558.00" routeLength="951.09" waitingTime="377.00" waitingCount="15" stopTime="0.00" timeLoss="478.23" rerouteNo="0" devices="tripinfo_f_0_3.20" vType="type1" speedFactor="1.00" vaporized=""/>
    <tripinfo id="f_0_3.21" depart="263.00" departLane="np3_nt3_0" departPos="0.00" departSpeed="0.00" departDelay="91.18" arrival="801.00" arrivalLane="nt14_np11_0" arrivalPos="75.00" arrivalSpeed="8.83" duration="538.00" routeLength="951.09" waitingTime="351.00" waitingCount="16" stopTime="0.00" timeLoss="443.17" rerouteNo="0" devices="tripinfo_f_0_3.21" vType="type1" speedFactor="0.84" vaporized=""/>
    <tripinfo id="f_0_2.18" depart="148.00" departLane="np2_nt2_0" departPos="50.42" departSpeed="0.00" departDelay="0.72" arrival="803.00" arrivalLane="nt15_np10_0" arrivalPos="75.00" arrivalSpeed="9.38" duration="655.00" routeLength="900.66" waitingTime="480.00" waitingCount="12" stopTime="0.00" timeLoss="567.07" rerouteNo="0" devices="tripinfo_f_0_2.18" vType="type1" speedFactor="0.86" vaporized=""/>
    <tripinfo id="f_0_3.22" depart="293.00" departLane="np3_nt3_0" departPos="0.00" departSpeed="0.00" departDelay="113.00" arrival="808.00" arrivalLane="nt14_np11_0" arrivalPos="75.00" arrivalSpeed="9.27" duration="515.00" routeLength="951.09" waitingTime="318.00" waitingCount="17" stopTime="0.00" timeLoss="431.41" rerouteNo="0" devices="tripinfo_f_0_3.22" vType="type1" speedFactor="0.96" vaporized=""/>
    <tripinfo id="f_0_3.23" depart="307.00" departLane="np3_nt3_0" departPos="1.71" departSpeed="0.00" departDelay="118.81" arrival="810.00" arrivalLane="nt14_np11_0" arrivalPos="75.00" arrivalSpeed="10.11" duration="503.00" routeLength="949.38" waitingTime="302.00" waitingCount="17" stopTime="0.00" timeLoss="420.94" rerouteNo="0" devices="tripinfo_f_0_3.23" vType="type1" speedFactor="0.97" vaporized=""/>
    <tripinfo id="f_0_3.24" depart="310.00" departLane="np3_nt3_0" departPos="0.10" departSpeed="0.00" departDelay="113.63" arrival="838.00" arrivalLane="nt14_np11_0" arrivalPos="75.00" arrivalSpeed="8.02" duration="528.00" routeLength="950.99" waitingTime="338.00" waitingCount="13" stopTime="0.00" timeLoss="438.42" rerouteNo="0" devices="tripinfo_f_0_3.24" vType="type1" speedFactor="0.89" vaporized=""/>
    <tripinfo id="f_0_3.25" depart="312.00" departLane="np3_nt3_0" departPos="1.40" departSpeed="0.00" departDelay="107.45" arrival="846.00" arrivalLane="nt14_np11_0" arrivalPos="75.00" arrivalSpeed="11.23" duration="534.00" routeLength="949.69" waitingTime="345.00" waitingCount="14" stopTime="0.00" timeLoss="465.56" rerouteNo="0" devices="tripinfo_f_0_3.25" vType="type1" speedFactor="1.17" vaporized=""/>
    <tripinfo id="f_0_2.19" depart="156.00" departLane="np2_nt2_0" departPos="39.22" departSpeed="0.00" departDelay="0.54" arrival="847.00" arrivalLane="nt15_np10_0" arrivalPos="75.00" arrivalSpeed="10.61" duration="691.00" routeLength="911.86" waitingTime="509.00" waitingCount="13" stopTime="0.00" timeLoss="620.12" rerouteNo="0" devices="tripinfo_f_0_2.19" vType="type1" speedFactor="1.08" vaporized=""/>