<?xml version="1.0" encoding="UTF-8"?>

<!-- generated on 2023-08-30 19:31:54 by Eclipse SUMO libsumo Version 1.18.0
<configuration xmlns:xsi="http://www.w3.org/2001/XMLSchema-instance" xsi:noNamespaceSchemaLocation="http://sumo.dlr.de/xsd/libsumoConfiguration.xsd">

    <input>
        <net-file value="/home/stefan/RESCO/./environments/arterial4x4/arterial4x4.net.xml"/>
        <route-files value="/home/stefan/RESCO/./environments/arterial4x4/arterial4x4_84.rou.xml"/>
    </input>

    <output>
        <tripinfo-output value="/home/stefan/results/RAINBOW-tr0-arterial4x4-0-drq_norm-wait_norm/tripinfo_84.xml"/>
        <tripinfo-output.write-unfinished value="true"/>
    </output>

    <processing>
        <time-to-teleport value="-1"/>
    </processing>

    <report>
        <no-warnings value="True"/>
        <no-step-log value="True"/>
    </report>

    <random_number>
        <random value="true"/>
    </random_number>

</configuration>
-->

<tripinfos xmlns:xsi="http://www.w3.org/2001/XMLSchema-instance" xsi:noNamespaceSchemaLocation="http://sumo.dlr.de/xsd/tripinfo_file.xsd">
    <tripinfo id="f_0_0.0" depart="0.00" departLane="np13_nt13_0" departPos="54.44" departSpeed="0.00" departDelay="0.00" arrival="-1.00" arrivalLane="" arrivalPos="-1.00" arrivalSpeed="-1.00" duration="3600.00" routeLength="212.36" waitingTime="3583.00" waitingCount="1" stopTime="0.00" timeLoss="3589.47" rerouteNo="0" devices="tripinfo_f_0_0.0" vType="type1" speedFactor="1.11" vaporized="end"/>
    <tripinfo id="f_0_1.0" depart="0.00" departLane="np16_nt1_0" departPos="43.67" departSpeed="0.00" departDelay="0.00" arrival="-1.00" arrivalLane="" arrivalPos="-1.00" arrivalSpeed="-1.00" duration="3600.00" routeLength="819.18" waitingTime="3517.00" waitingCount="2" stopTime="0.00" timeLoss="3532.41" rerouteNo="0" devices="tripinfo_f_0_1.0" vType="type1" speedFactor="0.87" vaporized="end"/>
    <tripinfo id="f_0_2.0" depart="0.00" departLane="np2_nt2_0" departPos="11.54" departSpeed="0.00" departDelay="0.00" arrival="-1.00" arrivalLane="" arrivalPos="-1.00" arrivalSpeed="-1.00" duration="3600.00" routeLength="627.74" waitingTime="3521.00" waitingCount="3" stopTime="0.00" timeLoss="3540.66" rerouteNo="0" devices="tripinfo_f_0_2.0" vType="type1" speedFactor="0.87" vaporized="end"/>
    <tripinfo id="f_0_3.0" depart="0.00" departLane="np3_nt3_0" departPos="32.04" departSpeed="0.00" departDelay="0.00" arrival="-1.00" arrivalLane="" arrivalPos="-1.00" arrivalSpeed="-1.00" duration="3600.00" routeLength="31.56" waitingTime="3593.00" waitingCount="1" stopTime="0.00" timeLoss="3596.49" rerouteNo="0" devices="tripinfo_f_0_3.0" vType="type1" speedFactor="1.14" vaporized="end"/>
    <tripinfo id="f_0_2.1" depart="9.00" departLane="np2_nt2_0" departPos="17.10" departSpeed="0.00" departDelay="0.82" arrival="-1.00" arrivalLane="" arrivalPos="-1.00" arrivalSpeed="-1.00" duration="3591.00" routeLength="599.68" waitingTime="3511.00" waitingCount="4" stopTime="0.00" timeLoss="3535.87" rerouteNo="0" devices="tripinfo_f_0_2.1" vType="type1" speedFactor="0.88" vaporized="end"/>
    <tripinfo id="f_0_3.1" depart="9.00" departLane="np3_nt3_0" departPos="41.47" departSpeed="0.00" departDelay="0.82" arrival="-1.00" arrivalLane="" arrivalPos="-1.00" arrivalSpeed="-1.00" duration="3591.00" routeLength="14.63" waitingTime="3584.00" waitingCount="1" stopTime="0.00" timeLoss="3588.57" rerouteNo="0" devices="tripinfo_f_0_3.1" vType="type1" speedFactor="0.93" vaporized="end"/>
    <tripinfo id="f_0_0.1" depart="14.00" departLane="np13_nt13_0" departPos="36.46" departSpeed="0.00" departDelay="0.36" arrival="-1.00" arrivalLane="" arrivalPos="-1.00" arrivalSpeed="-1.00" duration="3586.00" routeLength="222.84" waitingTime="3569.00" waitingCount="1" stopTime="0.00" timeLoss="3575.43" rerouteNo="0" devices="tripinfo_f_0_0.1" vType="type1" speedFactor="1.16" vaporized="end"/>
    <tripinfo id="f_0_1.1" depart="14.00" departLane="np16_nt1_0" departPos="38.10" departSpeed="0.00" departDelay="0.36" arrival="-1.00" arrivalLane="" arrivalPos="-1.00" arrivalSpeed="-1.00" duration="3586.00" routeLength="817.25" waitingTime="3513.00" waitingCount="2" stopTime="0.00" timeLoss="3534.85" rerouteNo="0" devices="tripinfo_f_0_1.1" vType="type1" speedFactor="1.14" vaporized="end"/>
    <tripinfo id="f_0_2.2" depart="17.00" departLane="np2_nt2_0" departPos="24.37" departSpeed="0.00" departDelay="0.64" arrival="-1.00" arrivalLane="" arrivalPos="-1.00" arrivalSpeed="-1.00" duration="3583.00" routeLength="569.90" waitingTime="3502.00" waitingCount="6" stopTime="0.00" timeLoss="3537.79" rerouteNo="0" devices="tripinfo_f_0_2.2" vType="type1" speedFactor="1.02" vaporized="end"/>
    <tripinfo id="f_0_3.2" depart="17.00" departLane="np3_nt3_0" departPos="42.55" departSpeed="0.00" departDelay="0.64" arrival="-1.00" arrivalLane="" arrivalPos="-1.00" arrivalSpeed="-1.00" duration="3583.00" routeLength="6.04" waitingTime="3578.00" waitingCount="1" stopTime="0.00" timeLoss="3581.49" rerouteNo="0" devices="tripinfo_f_0_3.2" vType="type1" speedFactor="1.07" vaporized="end"/>
    <tripinfo id="f_0_2.3" depart="25.00" departLane="np2_nt2_0" departPos="27.33" departSpeed="0.00" departDelay="0.45" arrival="-1.00" arrivalLane="" arrivalPos="-1.00" arrivalSpeed="-1.00" duration="3575.00" routeLength="544.44" waitingTime="3484.00" waitingCount="7" stopTime="0.00" timeLoss="3532.52" rerouteNo="0" devices="tripinfo_f_0_2.3" vType="type1" speedFactor="1.04" vaporized="end"/>
    <tripinfo id="f_0_3.3" depart="25.00" departLane="np3_nt3_0" departPos="20.01" departSpeed="0.00" departDelay="0.45" arrival="-1.00" arrivalLane="" arrivalPos="-1.00" arrivalSpeed="-1.00" duration="3575.00" routeLength="21.09" waitingTime="3570.00" waitingCount="1" stopTime="0.00" timeLoss="3572.00" rerouteNo="0" devices="tripinfo_f_0_3.3" vType="type1" speedFactor="0.96" vaporized="end"/>
    <tripinfo id="f_0_0.2" depart="28.00" departLane="np13_nt13_0" departPos="56.17" departSpeed="0.00" departDelay="0.73" arrival="-1.00" arrivalLane="" arrivalPos="-1.00" arrivalSpeed="-1.00" duration="3572.00" routeLength="195.63" waitingTime="3555.00" waitingCount="1" stopTime="0.00" timeLoss="3559.22" rerouteNo="0" devices="tripinfo_f_0_0.2" vType="type1" speedFactor="0.83" vaporized="end"/>
    <tripinfo id="f_0_1.2" depart="28.00" departLane="np16_nt1_0" departPos="0.74" departSpeed="0.00" departDelay="0.73" arrival="-1.00" arrivalLane="" arrivalPos="-1.00" arrivalSpeed="-1.00" duration="3572.00" routeLength="839.61" waitingTime="3497.00" waitingCount="2" stopTime="0.00" timeLoss="3519.46" rerouteNo="0" devices="tripinfo_f_0_1.2" vType="type1" speedFactor="1.12" vaporized="end"/>
    <tripinfo id="f_0_2.4" depart="33.00" departLane="np2_nt2_0" departPos="30.87" departSpeed="0.00" departDelay="0.27" arrival="-1.00" arrivalLane="" arrivalPos="-1.00" arrivalSpeed="-1.00" duration="3567.00" routeLength="518.40" waitingTime="3468.00" waitingCount="7" stopTime="0.00" timeLoss="3525.85" rerouteNo="0" devices="tripinfo_f_0_2.4" vType="type1" speedFactor="1.01" vaporized="end"/>
    <tripinfo id="f_0_3.4" depart="33.00" departLane="np3_nt3_0" departPos="31.63" departSpeed="0.00" departDelay="0.27" arrival="-1.00" arrivalLane="" arrivalPos="-1.00" arrivalSpeed="-1.00" duration="3567.00" routeLength="1.97" waitingTime="3562.00" waitingCount="1" stopTime="0.00" timeLoss="3565.79" rerouteNo="0" devices="tripinfo_f_0_3.4" vType="type1" speedFactor="0.83" vaporized="end"/>
    <tripinfo id="f_0_0.3" depart="41.00" departLane="np13_nt13_0" departPos="43.29" departSpeed="0.00" departDelay="0.09" arrival="-1.00" arrivalLane="" arrivalPos="-1.00" arrivalSpeed="-1.00" duration="3559.00" routeLength="201.00" waitingTime="3542.00" waitingCount="1" stopTime="0.00" timeLoss="3548.10" rerouteNo="0" devices="tripinfo_f_0_0.3" vType="type1" speedFactor="1.02" vaporized="end"/>
    <tripinfo id="f_0_1.3" depart="41.00" departLane="np16_nt1_0" departPos="3.67" departSpeed="0.00" departDelay="0.09" arrival="-1.00" arrivalLane="" arrivalPos="-1.00" arrivalSpeed="-1.00" duration="3559.00" routeLength="829.18" waitingTime="3478.00" waitingCount="2" stopTime="0.00" timeLoss="3498.22" rerouteNo="0" devices="tripinfo_f_0_1.3" vType="type1" speedFactor="0.95" vaporized="end"/>
    <tripinfo id="f_0_2.5" depart="41.00" departLane="np2_nt2_0" departPos="19.94" departSpeed="0.00" departDelay="0.09" arrival="-1.00" arrivalLane="" arrivalPos="-1.00" arrivalSpeed="-1.00" duration="3559.00" routeLength="506.82" waitingTime="3469.00" waitingCount="7" stopTime="0.00" timeLoss="3510.83" rerouteNo="0" devices="tripinfo_f_0_2.5" vType="type1" speedFactor="0.83" vaporized="end"/>
    <tripinfo id="f_0_3.5" depart="41.00" departLane="np3_nt3_0" departPos="20.52" departSpeed="0.00" departDelay="0.09" arrival="-1.00" arrivalLane="" arrivalPos="-1.00" arrivalSpeed="-1.00" duration="3559.00" routeLength="5.58" waitingTime="3556.00" waitingCount="1" stopTime="0.00" timeLoss="3557.49" rerouteNo="0" devices="tripinfo_f_0_3.5" vType="type1" speedFactor="1.00" vaporized="end"/>
    <tripinfo id="f_0_2.6" depart="50.00" departLane="np2_nt2_0" departPos="18.53" departSpeed="0.00" departDelay="0.91" arrival="-1.00" arrivalLane="" arrivalPos="-1.00" arrivalSpeed="-1.00" duration="3550.00" routeLength="485.73" waitingTime="3449.00" waitingCount="8" stopTime="0.00" timeLoss="3505.63" rerouteNo="0" devices="tripinfo_f_0_2.6" vType="type1" speedFactor="0.87" vaporized="end"/>
    <tripinfo id="f_0_3.6" depart="50.00" departLane="np3_nt3_0" departPos="3.19" departSpeed="0.00" departDelay="0.91" arrival="-1.00" arrivalLane="" arrivalPos="-1.00" arrivalSpeed="-1.00" duration="3550.00" routeLength="15.40" waitingTime="3545.00" waitingCount="1" stopTime="0.00" timeLoss="3547.43" rerouteNo="0" devices="tripinfo_f_0_3.6" vType="type1" speedFactor="0.89" vaporized="end"/>
    <tripinfo id="f_0_0.4" depart="55.00" departLane="np13_nt13_0" departPos="19.02" departSpeed="0.00" departDelay="0.46" arrival="-1.00" arrivalLane="" arrivalPos="-1.00" arrivalSpeed="-1.00" duration="3545.00" routeLength="217.78" waitingTime="3529.00" waitingCount="1" stopTime="0.00" timeLoss="3532.58" rerouteNo="0" devices="tripinfo_f_0_0.4" vType="type1" speedFactor="0.95" vaporized="end"/>
    <tripinfo id="f_0_1.4" depart="55.00" departLane="np16_nt1_0" departPos="28.86" departSpeed="0.00" departDelay="0.46" arrival="-1.00" arrivalLane="" arrivalPos="-1.00" arrivalSpeed="-1.00" duration="3545.00" routeLength="788.98" waitingTime="3465.00" waitingCount="2" stopTime="0.00" timeLoss="3485.58" rerouteNo="0" devices="tripinfo_f_0_1.4" vType="type1" speedFactor="0.93" vaporized="end"/>
    <tripinfo id="f_0_2.7" depart="58.00" departLane="np2_nt2_0" departPos="18.84" departSpeed="0.00" departDelay="0.73" arrival="-1.00" arrivalLane="" arrivalPos="-1.00" arrivalSpeed="-1.00" duration="3542.00" routeLength="462.92" waitingTime="3443.00" waitingCount="9" stopTime="0.00" timeLoss="3502.06" rerouteNo="0" devices="tripinfo_f_0_2.7" vType="type1" speedFactor="0.91" vaporized="end"/>
    <tripinfo id="f_0_3.7" depart="58.00" departLane="np3_nt3_0" departPos="1.60" departSpeed="0.00" departDelay="0.73" arrival="-1.00" arrivalLane="" arrivalPos="-1.00" arrivalSpeed="-1.00" duration="3542.00" routeLength="9.49" waitingTime="3536.00" waitingCount="1" stopTime="0.00" timeLoss="3540.14" rerouteNo="0" devices="tripinfo_f_0_3.7" vType="type1" speedFactor="1.00" vaporized="end"/>
    <tripinfo id="f_0_2.8" depart="66.00" departLane="np2_nt2_0" departPos="7.07" departSpeed="0.00" departDelay="0.54" arrival="-1.00" arrivalLane="" arrivalPos="-1.00" arrivalSpeed="-1.00" duration="3534.00" routeLength="432.21" waitingTime="3437.00" waitingCount="9" stopTime="0.00" timeLoss="3501.31" rerouteNo="0" devices="tripinfo_f_0_2.8" vType="type1" speedFactor="1.02" vaporized="end"/>
    <tripinfo id="f_0_3.8" depart="66.00" departLane="np3_nt3_0" departPos="1.90" departSpeed="0.00" departDelay="0.54" arrival="-1.00" arrivalLane="" arrivalPos="-1.00" arrivalSpeed="-1.00" duration="3534.00" routeLength="1.69" waitingTime="3530.00" waitingCount="1" stopTime="0.00" timeLoss="3532.83" rerouteNo="0" devices="tripinfo_f_0_3.8" vType="type1" speedFactor="0.90" vaporized="end"/>
    <tripinfo id="f_0_0.5" depart="69.00" departLane="np13_nt13_0" departPos="7.96" departSpeed="0.00" departDelay="0.82" arrival="-1.00" arrivalLane="" arrivalPos="-1.00" arrivalSpeed="-1.00" duration="3531.00" routeLength="221.34" waitingTime="3513.00" waitingCount="1" stopTime="0.00" timeLoss="3518.12" rerouteNo="0" devices="tripinfo_f_0_0.5" vType="type1" speedFactor="0.93" vaporized="end"/>
    <tripinfo id="f_0_1.5" depart="69.00" departLane="np16_nt1_0" departPos="33.22" departSpeed="0.00" departDelay="0.82" arrival="-1.00" arrivalLane="" arrivalPos="-1.00" arrivalSpeed="-1.00" duration="3531.00" routeLength="777.13" waitingTime="3450.00" waitingCount="3" stopTime="0.00" timeLoss="3474.94" rerouteNo="0" devices="tripinfo_f_0_1.5" vType="type1" speedFactor="0.97" vaporized="end"/>
    <tripinfo id="f_0_2.9" depart="74.00" departLane="np2_nt2_0" departPos="0.00" departSpeed="0.00" departDelay="0.36" arrival="-1.00" arrivalLane="" arrivalPos="-1.00" arrivalSpeed="-1.00" duration="3526.00" routeLength="431.78" waitingTime="3426.00" waitingCount="10" stopTime="0.00" timeLoss="3494.99" rerouteNo="0" devices="tripinfo_f_0_2.9" vType="type1" speedFactor="1.07" vaporized="end"/>
    <tripinfo id="f_0_0.6" depart="82.00" departLane="np13_nt13_0" departPos="25.87" departSpeed="0.00" departDelay="0.18" arrival="-1.00" arrivalLane="" arrivalPos="-1.00" arrivalSpeed="-1.00" duration="3518.00" routeLength="195.93" waitingTime="3500.00" waitingCount="1" stopTime="0.00" timeLoss="3504.90" rerouteNo="0" devices="tripinfo_f_0_0.6" vType="type1" speedFactor="0.81" vaporized="end"/>
    <tripinfo id="f_0_1.6" depart="82.00" departLane="np16_nt1_0" departPos="51.43" departSpeed="0.00" departDelay="0.18" arrival="-1.00" arrivalLane="" arrivalPos="-1.00" arrivalSpeed="-1.00" duration="3518.00" routeLength="743.91" waitingTime="3441.00" waitingCount="3" stopTime="0.00" timeLoss="3468.36" rerouteNo="0" devices="tripinfo_f_0_1.6" vType="type1" speedFactor="1.06" vaporized="end"/>
    <tripinfo id="f_0_2.10" depart="82.00" departLane="np2_nt2_0" departPos="4.39" departSpeed="0.00" departDelay="0.18" arrival="-1.00" arrivalLane="" arrivalPos="-1.00" arrivalSpeed="-1.00" duration="3518.00" routeLength="412.38" waitingTime="3414.00" waitingCount="11" stopTime="0.00" timeLoss="3484.80" rerouteNo="0" devices="tripinfo_f_0_2.10" vType="type1" speedFactor="0.95" vaporized="end"/>
    <tripinfo id="f_0_2.11" depart="96.00" departLane="np2_nt2_0" departPos="0.00" departSpeed="0.00" departDelay="6.00" arrival="-1.00" arrivalLane="" arrivalPos="-1.00" arrivalSpeed="-1.00" duration="3504.00" routeLength="409.27" waitingTime="3394.00" waitingCount="10" stopTime="0.00" timeLoss="3477.33" rerouteNo="0" devices="tripinfo_f_0_2.11" vType="type1" speedFactor="1.18" vaporized="end"/>
    <tripinfo id="f_0_0.7" depart="96.00" departLane="np13_nt13_0" departPos="9.75" departSpeed="0.00" departDelay="0.55" arrival="-1.00" arrivalLane="" arrivalPos="-1.00" arrivalSpeed="-1.00" duration="3504.00" routeLength="204.54" waitingTime="3488.00" waitingCount="1" stopTime="0.00" timeLoss="3493.89" rerouteNo="0" devices="tripinfo_f_0_0.7" vType="type1" speedFactor="1.12" vaporized="end"/>
    <tripinfo id="f_0_1.7" depart="96.00" departLane="np16_nt1_0" departPos="14.32" departSpeed="0.00" departDelay="0.55" arrival="-1.00" arrivalLane="" arrivalPos="-1.00" arrivalSpeed="-1.00" duration="3504.00" routeLength="773.52" waitingTime="3419.00" waitingCount="3" stopTime="0.00" timeLoss="3448.86" rerouteNo="0" devices="tripinfo_f_0_1.7" vType="type1" speedFactor="0.96" vaporized="end"/>
    <tripinfo id="f_0_2.12" depart="125.00" departLane="np2_nt2_0" departPos="0.00" departSpeed="0.00" departDelay="26.82" arrival="-1.00" arrivalLane="" arrivalPos="-1.00" arrivalSpeed="-1.00" duration="3475.00" routeLength="394.27" waitingTime="3364.00" waitingCount="9" stopTime="0.00" timeLoss="3448.89" rerouteNo="0" devices="tripinfo_f_0_2.12" vType="type1" speedFactor="1.17" vaporized="end"/>
    <tripinfo id="f_0_2.13" depart="149.00" departLane="np2_nt2_0" departPos="0.00" departSpeed="0.00" departDelay="42.63" arrival="-1.00" arrivalLane="" arrivalPos="-1.00" arrivalSpeed="-1.00" duration="3451.00" routeLength="379.27" waitingTime="3338.00" waitingCount="7" stopTime="0.00" timeLoss="3417.96" rerouteNo="0" devices="tripinfo_f_0_2.13" vType="type1" speedFactor="0.86" vaporized="end"/>
    <tripinfo id="f_0_0.8" depart="110.00" departLane="np13_nt13_0" departPos="46.57" departSpeed="0.00" departDelay="0.91" arrival="-1.00" arrivalLane="" arrivalPos="-1.00" arrivalSpeed="-1.00" duration="3490.00" routeLength="160.22" waitingTime="3477.00" waitingCount="1" stopTime="0.00" timeLoss="3481.51" rerouteNo="0" devices="tripinfo_f_0_0.8" vType="type1" speedFactor="1.07" vaporized="end"/>
    <tripinfo id="f_0_1.8" depart="110.00" departLane="np16_nt1_0" departPos="21.03" departSpeed="0.00" departDelay="0.91" arrival="-1.00" arrivalLane="" arrivalPos="-1.00" arrivalSpeed="-1.00" duration="3490.00" routeLength="751.80" waitingTime="3390.00" waitingCount="3" stopTime="0.00" timeLoss="3415.17" rerouteNo="0" devices="tripinfo_f_0_1.8" vType="type1" speedFactor="0.68" vaporized="end"/>
    <tripinfo id="f_0_2.14" depart="177.00" departLane="np2_nt2_0" departPos="0.04" departSpeed="0.00" departDelay="62.45" arrival="-1.00" arrivalLane="" arrivalPos="-1.00" arrivalSpeed="-1.00" duration="3423.00" routeLength="364.23" waitingTime="3317.00" waitingCount="9" stopTime="0.00" timeLoss="3398.17" rerouteNo="0" devices="tripinfo_f_0_2.14" vType="type1" speedFactor="1.09" vaporized="end"/>
    <tripinfo id="f_0_0.9" depart="123.00" departLane="np13_nt13_0" departPos="59.99" departSpeed="0.00" departDelay="0.28" arrival="-1.00" arrivalLane="" arrivalPos="-1.00" arrivalSpeed="-1.00" duration="3477.00" routeLength="139.30" waitingTime="3464.00" waitingCount="1" stopTime="0.00" timeLoss="3469.10" rerouteNo="0" devices="tripinfo_f_0_0.9" vType="type1" speedFactor="1.01" vaporized="end"/>
    <tripinfo id="f_0_1.9" depart="123.00" departLane="np16_nt1_0" departPos="28.52" departSpeed="0.00" departDelay="0.28" arrival="-1.00" arrivalLane="" arrivalPos="-1.00" arrivalSpeed="-1.00" duration="3477.00" routeLength="736.82" waitingTime="3386.00" waitingCount="3" stopTime="0.00" timeLoss="3431.90" rerouteNo="0" devices="tripinfo_f_0_1.9" vType="type1" speedFactor="1.12" vaporized="end"/>
    <tripinfo id="f_0_2.15" depart="207.00" departLane="np2_nt2_0" departPos="0.66" departSpeed="0.00" departDelay="84.27" arrival="-1.00" arrivalLane="" arrivalPos="-1.00" arrivalSpeed="-1.00" duration="3393.00" routeLength="257.57" waitingTime="3290.00" waitingCount="8" stopTime="0.00" timeLoss="3374.47" rerouteNo="0" devices="tripinfo_f_0_2.15" vType="type1" speedFactor="0.93" vaporized="end"/>
    <tripinfo id="f_0_2.16" depart="233.00" departLane="np2_nt2_0" departPos="0.00" departSpeed="0.00" departDelay="102.09" arrival="-1.00" arrivalLane="" arrivalPos="-1.00" arrivalSpeed="-1.00" duration="3367.00" routeLength="220.72" waitingTime="3266.00" waitingCount="8" stopTime="0.00" timeLoss="3352.12" rerouteNo="0" devices="tripinfo_f_0_2.16" vType="type1" speedFactor="1.02" vaporized="end"/>
    <tripinfo id="f_0_0.10" depart="137.00" departLane="np13_nt13_0" departPos="28.83" departSpeed="0.00" departDelay="0.64" arrival="-1.00" arrivalLane="" arrivalPos="-1.00" arrivalSpeed="-1.00" duration="3463.00" routeLength="162.96" waitingTime="3449.00" waitingCount="1" stopTime="0.00" timeLoss="3453.27" rerouteNo="0" devices="tripinfo_f_0_0.10" vType="type1" speedFactor="0.93" vaporized="end"/>
    <tripinfo id="f_0_1.10" depart="137.00" departLane="np16_nt1_0" departPos="1.53" departSpeed="0.00" departDelay="0.64" arrival="-1.00" arrivalLane="" arrivalPos="-1.00" arrivalSpeed="-1.00" duration="3463.00" routeLength="748.80" waitingTime="3376.00" waitingCount="2" stopTime="0.00" timeLoss="3413.41" rerouteNo="0" devices="tripinfo_f_0_1.10" vType="type1" speedFactor="1.02" vaporized="end"/>
    <tripinfo id="f_0_2.17" depart="260.00" departLane="np2_nt2_0" departPos="1.50" departSpeed="0.00" departDelay="120.91" arrival="-1.00" arrivalLane="" arrivalPos="-1.00" arrivalSpeed="-1.00" duration="3340.00" routeLength="211.72" waitingTime="3242.00" waitingCount="7" stopTime="0.00" timeLoss="3326.60" rerouteNo="0" devices="tripinfo_f_0_2.17" vType="type1" speedFactor="1.10" vaporized="end"/>
    <tripinfo id="f_0_2.18" depart="266.00" departLane="np2_nt2_0" departPos="0.00" departSpeed="0.00" departDelay="118.72" arrival="-1.00" arrivalLane="" arrivalPos="-1.00" arrivalSpeed="-1.00" duration="3334.00" routeLength="205.72" waitingTime="3235.00" waitingCount="9" stopTime="0.00" timeLoss="3319.65" rerouteNo="0" devices="tripinfo_f_0_2.18" vType="type1" speedFactor="1.03" vaporized="end"/>
    <tripinfo id="f_0_0.11" depart="150.00" departLane="np13_nt13_0" departPos="53.89" departSpeed="0.00" departDelay="0.00" arrival="-1.00" arrivalLane="" arrivalPos="-1.00" arrivalSpeed="-1.00" duration="3450.00" routeLength="130.40" waitingTime="3436.00" waitingCount="1" stopTime="0.00" timeLoss="3442.18" rerouteNo="0" devices="tripinfo_f_0_0.11" vType="type1" speedFactor="0.96" vaporized="end"/>
    <tripinfo id="f_0_1.11" depart="150.00" departLane="np16_nt1_0" departPos="60.27" departSpeed="0.00" departDelay="0.00" arrival="-1.00" arrivalLane="" arrivalPos="-1.00" arrivalSpeed="-1.00" duration="3450.00" routeLength="682.56" waitingTime="3374.00" waitingCount="2" stopTime="0.00" timeLoss="3402.97" rerouteNo="0" devices="tripinfo_f_0_1.11" vType="type1" speedFactor="1.00" vaporized="end"/>
    <tripinfo id="f_0_2.19" depart="270.00" departLane="np2_nt2_0" departPos="0.00" departSpeed="0.00" departDelay="114.54" arrival="-1.00" arrivalLane="" arrivalPos="-1.00" arrivalSpeed="-1.00" duration="3330.00" routeLength="198.22" waitingTime="3228.00" waitingCount="8" stopTime="0.00" timeLoss="3318.31" rerouteNo="0" devices="tripinfo_f_0_2.19" vType="type1" speedFactor="1.21" vaporized="end"/>
    <tripinfo id="f_0_0.12" depart="164.00" departLane="np13_nt13_0" departPos="65.04" departSpeed="0.00" departDelay="0.37" arrival="-1.00" arrivalLane="" arrivalPos="-1.00" arrivalSpeed="-1.00" duration="3436.00" routeLength="111.75" waitingTime="3424.00" waitingCount="1" stopTime="0.00" timeLoss="3428.57" rerouteNo="0" devices="tripinfo_f_0_0.12" vType="type1" speedFactor="0.87" vaporized="end"/>
    <tripinfo id="f_0_1.12" depart="164.00" departLane="np16_nt1_0" departPos="58.03" departSpeed="0.00" departDelay="0.37" arrival="-1.00" arrivalLane="" arrivalPos="-1.00" arrivalSpeed="-1.00" duration="3436.00" routeLength="669.81" waitingTime="3358.00" waitingCount="2" stopTime="0.00" timeLoss="3387.50" rerouteNo="0" devices="tripinfo_f_0_1.12" vType="type1" speedFactor="0.94" vaporized="end"/>
    <tripinfo id="f_0_2.20" depart="276.00" departLane="np2_nt2_0" departPos="0.00" departSpeed="0.00" departDelay="112.36" arrival="-1.00" arrivalLane="" arrivalPos="-1.00" arrivalSpeed="-1.00" duration="3324.00" routeLength="190.72" waitingTime="3217.00" waitingCount="6" stopTime="0.00" timeLoss="3308.89" rerouteNo="0" devices="tripinfo_f_0_2.20" vType="type1" speedFactor="0.93" vaporized="end"/>
    <tripinfo id="f_0_2.21" depart="281.00" departLane="np2_nt2_0" departPos="0.57" departSpeed="0.00" departDelay="109.18" arrival="-1.00" arrivalLane="" arrivalPos="-1.00" arrivalSpeed="-1.00" duration="3319.00" routeLength="182.64" waitingTime="3210.00" waitingCount="7" stopTime="0.00" timeLoss="3305.22" rerouteNo="0" devices="tripinfo_f_0_2.21" vType="type1" speedFactor="0.95" vaporized="end"/>
    <tripinfo id="f_0_0.13" depart="178.00" departLane="np13_nt13_0" departPos="14.17" departSpeed="0.00" departDelay="0.73" arrival="-1.00" arrivalLane="" arrivalPos="-1.00" arrivalSpeed="-1.00" duration="3422.00" routeLength="155.12" waitingTime="3407.00" waitingCount="1" stopTime="0.00" timeLoss="3413.25" rerouteNo="0" devices="tripinfo_f_0_0.13" vType="type1" speedFactor="1.00" vaporized="end"/>
    <tripinfo id="f_0_1.13" depart="178.00" departLane="np16_nt1_0" departPos="4.30" departSpeed="0.00" departDelay="0.73" arrival="-1.00" arrivalLane="" arrivalPos="-1.00" arrivalSpeed="-1.00" duration="3422.00" routeLength="716.03" waitingTime="3343.00" waitingCount="2" stopTime="0.00" timeLoss="3372.44" rerouteNo="0" devices="tripinfo_f_0_1.13" vType="type1" speedFactor="0.96" vaporized="end"/>
    <tripinfo id="f_0_2.22" depart="287.00" departLane="np2_nt2_0" departPos="0.00" departSpeed="0.00" departDelay="107.00" arrival="-1.00" arrivalLane="" arrivalPos="-1.00" arrivalSpeed="-1.00" duration="3313.00" routeLength="175.72" waitingTime="3206.00" waitingCount="7" stopTime="0.00" timeLoss="3301.27" rerouteNo="0" devices="tripinfo_f_0_2.22" vType="type1" speedFactor="1.10" vaporized="end"/>
    <tripinfo id="f_0_2.23" depart="293.00" departLane="np2_nt2_0" departPos="0.00" departSpeed="0.00" departDelay="104.81" arrival="-1.00" arrivalLane="" arrivalPos="-1.00" arrivalSpeed="-1.00" duration="3307.00" routeLength="424.27" waitingTime="3208.00" waitingCount="5" stopTime="0.00" timeLoss="3277.82" rerouteNo="0" devices="tripinfo_f_0_2.23" vType="type1" speedFactor="1.12" vaporized="end"/>
    <tripinfo id="f_0_0.14" depart="191.00" departLane="np13_nt13_0" departPos="46.33" departSpeed="0.00" departDelay="0.10" arrival="-1.00" arrivalLane="" arrivalPos="-1.00" arrivalSpeed="-1.00" duration="3409.00" routeLength="115.46" waitingTime="3397.00" waitingCount="1" stopTime="0.00" timeLoss="3401.63" rerouteNo="0" devices="tripinfo_f_0_0.14" vType="type1" speedFactor="0.91" vaporized="end"/>
    <tripinfo id="f_0_1.14" depart="191.00" departLane="np16_nt1_0" departPos="53.74" departSpeed="0.00" departDelay="0.10" arrival="-1.00" arrivalLane="" arrivalPos="-1.00" arrivalSpeed="-1.00" duration="3409.00" routeLength="651.59" waitingTime="3333.00" waitingCount="2" stopTime="0.00" timeLoss="3363.38" rerouteNo="0" devices="tripinfo_f_0_1.14" vType="type1" speedFactor="0.96" vaporized="end"/>
    <tripinfo id="f_0_2.24" depart="328.00" departLane="np2_nt2_0" departPos="0.00" departSpeed="0.00" departDelay="131.63" arrival="-1.00" arrivalLane="" arrivalPos="-1.00" arrivalSpeed="-1.00" duration="3272.00" routeLength="401.77" waitingTime="3176.00" waitingCount="7" stopTime="0.00" timeLoss="3239.67" rerouteNo="0" devices="tripinfo_f_0_2.24" vType="type1" speedFactor="0.96" vaporized="end"/>
    <tripinfo id="f_0_0.15" depart="205.00" departLane="np13_nt13_0" departPos="50.32" departSpeed="0.00" departDelay="0.46" arrival="-1.00" arrivalLane="" arrivalPos="-1.00" arrivalSpeed="-1.00" duration="3395.00" routeLength="103.97" waitingTime="3384.00" waitingCount="1" stopTime="0.00" timeLoss="3388.10" rerouteNo="0" devices="tripinfo_f_0_0.15" vType="type1" speedFactor="0.88" vaporized="end"/>
    <tripinfo id="f_0_1.15" depart="205.00" departLane="np16_nt1_0" departPos="38.52" departSpeed="0.00" departDelay="0.46" arrival="-1.00" arrivalLane="" arrivalPos="-1.00" arrivalSpeed="-1.00" duration="3395.00" routeLength="659.31" waitingTime="3319.00" waitingCount="2" stopTime="0.00" timeLoss="3349.52" rerouteNo="0" devices="tripinfo_f_0_1.15" vType="type1" speedFactor="0.96" vaporized="end"/>
    <tripinfo id="f_0_2.25" depart="337.00" departLane="np2_nt2_0" departPos="0.00" departSpeed="0.00" departDelay="132.45" arrival="-1.00" arrivalLane="" arrivalPos="-1.00" arrivalSpeed="-1.00" duration="3263.00" routeLength="386.77" waitingTime="3171.00" waitingCount="6" stopTime="0.00" timeLoss="3234.21" rerouteNo="0" devices="tripinfo_f_0_2.25" vType="type1" speedFactor="1.02" vaporized="end"/>
    <tripinfo id="f_0_2.26" depart="344.00" departLane="np2_nt2_0" departPos="0.00" departSpeed="0.00" departDelay="131.27" arrival="-1.00" arrivalLane="" arrivalPos="-1.00" arrivalSpeed="-1.00" duration="3256.00" routeLength="371.77" waitingTime="3170.00" waitingCount="4" stopTime="0.00" timeLoss="3229.47" rerouteNo="0" devices="tripinfo_f_0_2.26" vType="type1" speedFactor="1.08" vaporized="end"/>
    <tripinfo id="f_0_0.16" depart="219.00" departLane="np13_nt13_0" departPos="27.82" departSpeed="0.00" departDelay="0.82" arrival="-1.00" arrivalLane="" arrivalPos="-1.00" arrivalSpeed="-1.00" duration="3381.00" routeLength="118.97" waitingTime="3370.00" waitingCount="1" stopTime="0.00" timeLoss="3374.67" rerouteNo="0" devices="tripinfo_f_0_0.16" vType="type1" speedFactor="1.12" vaporized="end"/>
    <tripinfo id="f_0_1.16" depart="219.00" departLane="np16_nt1_0" departPos="31.52" departSpeed="0.00" departDelay="0.82" arrival="-1.00" arrivalLane="" arrivalPos="-1.00" arrivalSpeed="-1.00" duration="3381.00" routeLength="631.33" waitingTime="3320.00" waitingCount="2" stopTime="0.00" timeLoss="3341.94" rerouteNo="0" devices="tripinfo_f_0_1.16" vType="type1" speedFactor="1.05" vaporized="end"/>
    <tripinfo id="f_0_2.27" depart="351.00" departLane="np2_nt2_0" departPos="0.00" departSpeed="0.00" departDelay="130.09" arrival="-1.00" arrivalLane="" arrivalPos="-1.00" arrivalSpeed="-1.00" duration="3249.00" routeLength="356.77" waitingTime="3165.00" waitingCount="5" stopTime="0.00" timeLoss="3220.09" rerouteNo="0" devices="tripinfo_f_0_2.27" vType="type1" speedFactor="0.91" vaporized="end"/>
    <tripinfo id="f_0_2.28" depart="357.00" departLane="np2_nt2_0" departPos="0.00" departSpeed="0.00" departDelay="127.90" arrival="-1.00" arrivalLane="" arrivalPos="-1.00" arrivalSpeed="-1.00" duration="3243.00" routeLength="341.76" waitingTime="3158.00" waitingCount="4" stopTime="0.00" timeLoss="3215.67" rerouteNo="0" devices="tripinfo_f_0_2.28" vType="type1" speedFactor="0.94" vaporized="end"/>