<?xml version="1.0" encoding="UTF-8"?>

<!-- generated on 2023-08-30 18:20:41 by Eclipse SUMO libsumo Version 1.18.0
<configuration xmlns:xsi="http://www.w3.org/2001/XMLSchema-instance" xsi:noNamespaceSchemaLocation="http://sumo.dlr.de/xsd/libsumoConfiguration.xsd">

    <input>
        <net-file value="/home/stefan/RESCO/./environments/arterial4x4/arterial4x4.net.xml"/>
        <route-files value="/home/stefan/RESCO/./environments/arterial4x4/arterial4x4_25.rou.xml"/>
    </input>

    <output>
        <tripinfo-output value="/home/stefan/results/RAINBOW-tr0-arterial4x4-0-drq_norm-wait_norm/tripinfo_25.xml"/>
        <tripinfo-output.write-unfinished value="true"/>
    </output>

    <processing>
        <time-to-teleport value="-1"/>
    </processing>

    <report>
        <no-warnings value="True"/>
        <no-step-log value="True"/>
    </report>

    <random_number>
        <random value="true"/>
    </random_number>

</configuration>
-->

<tripinfos xmlns:xsi="http://www.w3.org/2001/XMLSchema-instance" xsi:noNamespaceSchemaLocation="http://sumo.dlr.de/xsd/tripinfo_file.xsd">
    <tripinfo id="f_0_2.0" depart="0.00" departLane="np2_nt2_0" departPos="51.18" departSpeed="0.00" departDelay="0.00" arrival="108.00" arrivalLane="nt15_np10_0" arrivalPos="75.00" arrivalSpeed="9.17" duration="108.00" routeLength="899.90" waitingTime="9.00" waitingCount="3" stopTime="0.00" timeLoss="33.61" rerouteNo="0" devices="tripinfo_f_0_2.0" vType="type1" speedFactor="1.01" vaporized=""/>
    <tripinfo id="f_0_3.0" depart="0.00" departLane="np3_nt3_0" departPos="61.31" departSpeed="0.00" departDelay="0.00" arrival="159.00" arrivalLane="nt14_np11_0" arrivalPos="75.00" arrivalSpeed="9.25" duration="159.00" routeLength="889.78" waitingTime="47.00" waitingCount="5" stopTime="0.00" timeLoss="74.26" rerouteNo="0" devices="tripinfo_f_0_3.0" vType="type1" speedFactor="0.88" vaporized=""/>
    <tripinfo id="f_0_2.1" depart="9.00" departLane="np2_nt2_0" departPos="42.34" departSpeed="0.00" departDelay="0.82" arrival="179.00" arrivalLane="nt15_np10_0" arrivalPos="75.00" arrivalSpeed="9.08" duration="170.00" routeLength="908.74" waitingTime="55.00" waitingCount="5" stopTime="0.00" timeLoss="84.84" rerouteNo="0" devices="tripinfo_f_0_2.1" vType="type1" speedFactor="0.90" vaporized=""/>
    <tripinfo id="f_0_3.1" depart="9.00" departLane="np3_nt3_0" departPos="5.22" departSpeed="0.00" departDelay="0.82" arrival="182.00" arrivalLane="nt14_np11_0" arrivalPos="75.00" arrivalSpeed="11.68" duration="173.00" routeLength="945.87" waitingTime="67.00" waitingCount="4" stopTime="0.00" timeLoss="100.24" rerouteNo="0" devices="tripinfo_f_0_3.1" vType="type1" speedFactor="1.10" vaporized=""/>
    <tripinfo id="f_0_0.0" depart="0.00" departLane="np13_nt13_0" departPos="25.76" departSpeed="0.00" departDelay="0.00" arrival="199.00" arrivalLane="nt4_np5_0" arrivalPos="75.00" arrivalSpeed="15.77" duration="199.00" routeLength="1322.13" waitingTime="61.00" waitingCount="5" stopTime="0.00" timeLoss="93.90" rerouteNo="0" devices="tripinfo_f_0_0.0" vType="type1" speedFactor="0.87" vaporized=""/>
    <tripinfo id="f_0_2.2" depart="17.00" departLane="np2_nt2_0" departPos="35.16" departSpeed="0.00" departDelay="0.64" arrival="238.00" arrivalLane="nt15_np10_0" arrivalPos="75.00" arrivalSpeed="9.36" duration="221.00" routeLength="915.92" waitingTime="121.00" waitingCount="4" stopTime="0.00" timeLoss="143.78" rerouteNo="0" devices="tripinfo_f_0_2.2" vType="type1" speedFactor="1.00" vaporized=""/>
    <tripinfo id="f_0_3.2" depart="17.00" departLane="np3_nt3_0" departPos="21.33" departSpeed="0.00" departDelay="0.64" arrival="251.00" arrivalLane="nt14_np11_0" arrivalPos="75.00" arrivalSpeed="8.15" duration="234.00" routeLength="929.76" waitingTime="100.00" waitingCount="5" stopTime="0.00" timeLoss="128.77" rerouteNo="0" devices="tripinfo_f_0_3.2" vType="type1" speedFactor="0.74" vaporized=""/>
    <tripinfo id="f_0_3.3" depart="25.00" departLane="np3_nt3_0" departPos="48.10" departSpeed="0.00" departDelay="0.45" arrival="253.00" arrivalLane="nt14_np11_0" arrivalPos="75.00" arrivalSpeed="9.42" duration="228.00" routeLength="902.99" waitingTime="119.00" waitingCount="4" stopTime="0.00" timeLoss="146.24" rerouteNo="0" devices="tripinfo_f_0_3.3" vType="type1" speedFactor="0.93" vaporized=""/>
    <tripinfo id="f_0_2.3" depart="25.00" departLane="np2_nt2_0" departPos="45.58" departSpeed="0.00" departDelay="0.45" arrival="267.00" arrivalLane="nt15_np10_0" arrivalPos="75.00" arrivalSpeed="9.35" duration="242.00" routeLength="905.50" waitingTime="141.00" waitingCount="4" stopTime="0.00" timeLoss="170.99" rerouteNo="0" devices="tripinfo_f_0_2.3" vType="type1" speedFactor="1.07" vaporized=""/>
    <tripinfo id="f_0_2.4" depart="33.00" departLane="np2_nt2_0" departPos="10.84" departSpeed="0.00" departDelay="0.27" arrival="268.00" arrivalLane="nt15_np10_0" arrivalPos="75.00" arrivalSpeed="11.93" duration="235.00" routeLength="940.24" waitingTime="123.00" waitingCount="8" stopTime="0.00" timeLoss="163.51" rerouteNo="0" devices="tripinfo_f_0_2.4" vType="type1" speedFactor="1.10" vaporized=""/>
    <tripinfo id="f_0_0.1" depart="14.00" departLane="np13_nt13_0" departPos="53.95" departSpeed="0.00" departDelay="0.36" arrival="269.00" arrivalLane="nt4_np5_0" arrivalPos="75.00" arrivalSpeed="18.25" duration="255.00" routeLength="1293.94" waitingTime="123.00" waitingCount="5" stopTime="0.00" timeLoss="162.07" rerouteNo="0" devices="tripinfo_f_0_0.1" vType="type1" speedFactor="0.98" vaporized=""/>
    <tripinfo id="f_0_0.2" depart="28.00" departLane="np13_nt13_0" departPos="48.21" departSpeed="0.00" departDelay="0.73" arrival="279.00" arrivalLane="nt4_np5_0" arrivalPos="75.00" arrivalSpeed="19.68" duration="251.00" routeLength="1299.68" waitingTime="127.00" waitingCount="6" stopTime="0.00" timeLoss="166.19" rerouteNo="0" devices="tripinfo_f_0_0.2" vType="type1" speedFactor="1.07" vaporized=""/>
    <tripinfo id="f_0_0.3" depart="41.00" departLane="np13_nt13_0" departPos="41.97" departSpeed="0.00" departDelay="0.09" arrival="288.00" arrivalLane="nt4_np5_0" arrivalPos="75.00" arrivalSpeed="22.44" duration="247.00" routeLength="1305.92" waitingTime="120.00" waitingCount="8" stopTime="0.00" timeLoss="171.21" rerouteNo="0" devices="tripinfo_f_0_0.3" vType="type1" speedFactor="1.20" vaporized=""/>
    <tripinfo id="f_0_3.4" depart="33.00" departLane="np3_nt3_0" departPos="44.01" departSpeed="0.00" departDelay="0.27" arrival="303.00" arrivalLane="nt14_np11_0" arrivalPos="75.00" arrivalSpeed="7.76" duration="270.00" routeLength="907.08" waitingTime="162.00" waitingCount="5" stopTime="0.00" timeLoss="187.67" rerouteNo="0" devices="tripinfo_f_0_3.4" vType="type1" speedFactor="0.92" vaporized=""/>
    <tripinfo id="f_0_2.5" depart="41.00" departLane="np2_nt2_0" departPos="41.32" departSpeed="0.00" departDelay="0.09" arrival="331.00" arrivalLane="nt15_np10_0" arrivalPos="75.00" arrivalSpeed="10.42" duration="290.00" routeLength="909.76" waitingTime="175.00" waitingCount="8" stopTime="0.00" timeLoss="220.94" rerouteNo="0" devices="tripinfo_f_0_2.5" vType="type1" speedFactor="1.10" vaporized=""/>
    <tripinfo id="f_0_0.4" depart="55.00" departLane="np13_nt13_0" departPos="29.29" departSpeed="0.00" departDelay="0.46" arrival="338.00" arrivalLane="nt4_np5_0" arrivalPos="75.00" arrivalSpeed="21.84" duration="283.00" routeLength="1318.60" waitingTime="143.00" waitingCount="9" stopTime="0.00" timeLoss="202.89" rerouteNo="0" devices="tripinfo_f_0_0.4" vType="type1" speedFactor="1.15" vaporized=""/>
    <tripinfo id="f_0_2.6" depart="50.00" departLane="np2_nt2_0" departPos="30.55" departSpeed="0.00" departDelay="0.91" arrival="341.00" arrivalLane="nt15_np10_0" arrivalPos="75.00" arrivalSpeed="10.57" duration="291.00" routeLength="920.53" waitingTime="163.00" waitingCount="10" stopTime="0.00" timeLoss="218.37" rerouteNo="0" devices="tripinfo_f_0_2.6" vType="type1" speedFactor="1.06" vaporized=""/>
    <tripinfo id="f_0_3.5" depart="41.00" departLane="np3_nt3_0" departPos="27.85" departSpeed="0.00" departDelay="0.09" arrival="343.00" arrivalLane="nt14_np11_0" arrivalPos="75.00" arrivalSpeed="10.62" duration="302.00" routeLength="923.24" waitingTime="189.00" waitingCount="6" stopTime="0.00" timeLoss="222.59" rerouteNo="0" devices="tripinfo_f_0_3.5" vType="type1" speedFactor="0.98" vaporized=""/>
    <tripinfo id="f_0_2.7" depart="58.00" departLane="np2_nt2_0" departPos="5.06" departSpeed="0.00" departDelay="0.73" arrival="345.00" arrivalLane="nt15_np10_0" arrivalPos="75.00" arrivalSpeed="8.53" duration="287.00" routeLength="946.02" waitingTime="141.00" waitingCount="11" stopTime="0.00" timeLoss="205.65" rerouteNo="0" devices="tripinfo_f_0_2.7" vType="type1" speedFactor="0.99" vaporized=""/>
    <tripinfo id="f_0_0.5" depart="69.00" departLane="np13_nt13_0" departPos="17.02" departSpeed="0.00" departDelay="0.82" arrival="354.00" arrivalLane="nt4_np5_0" arrivalPos="75.00" arrivalSpeed="21.29" duration="285.00" routeLength="1330.87" waitingTime="173.00" waitingCount="6" stopTime="0.00" timeLoss="202.67" rerouteNo="0" devices="tripinfo_f_0_0.5" vType="type1" speedFactor="1.12" vaporized=""/>
    <tripinfo id="f_0_1.0" depart="0.00" departLane="np16_nt1_0" departPos="43.44" departSpeed="0.00" departDelay="0.00" arrival="358.00" arrivalLane="nt16_np8_0" arrivalPos="75.00" arrivalSpeed="18.82" duration="358.00" routeLength="1304.44" waitingTime="207.00" waitingCount="11" stopTime="0.00" timeLoss="268.87" rerouteNo="0" devices="tripinfo_f_0_1.0" vType="type1" speedFactor="1.02" vaporized=""/>
    <tripinfo id="f_0_2.8" depart="66.00" departLane="np2_nt2_0" departPos="25.21" departSpeed="0.00" departDelay="0.54" arrival="371.00" arrivalLane="nt15_np10_0" arrivalPos="75.00" arrivalSpeed="11.16" duration="305.00" routeLength="925.87" waitingTime="162.00" waitingCount="10" stopTime="0.00" timeLoss="231.90" rerouteNo="0" devices="tripinfo_f_0_2.8" vType="type1" speedFactor="1.06" vaporized=""/>
    <tripinfo id="f_0_3.6" depart="50.00" departLane="np3_nt3_0" departPos="15.59" departSpeed="0.00" departDelay="0.91" arrival="372.00" arrivalLane="nt14_np11_0" arrivalPos="75.00" arrivalSpeed="10.53" duration="322.00" routeLength="935.50" waitingTime="205.00" waitingCount="7" stopTime="0.00" timeLoss="246.38" rerouteNo="0" devices="tripinfo_f_0_3.6" vType="type1" speedFactor="1.04" vaporized=""/>
    <tripinfo id="f_0_3.7" depart="58.00" departLane="np3_nt3_0" departPos="1.62" departSpeed="0.00" departDelay="0.73" arrival="374.00" arrivalLane="nt14_np11_0" arrivalPos="75.00" arrivalSpeed="8.90" duration="316.00" routeLength="949.47" waitingTime="192.00" waitingCount="7" stopTime="0.00" timeLoss="233.20" rerouteNo="0" devices="tripinfo_f_0_3.7" vType="type1" speedFactor="0.97" vaporized=""/>
    <tripinfo id="f_0_1.1" depart="14.00" departLane="np16_nt1_0" departPos="10.94" departSpeed="0.00" departDelay="0.36" arrival="393.00" arrivalLane="nt16_np8_0" arrivalPos="75.00" arrivalSpeed="22.08" duration="379.00" routeLength="1336.94" waitingTime="202.00" waitingCount="13" stopTime="0.00" timeLoss="298.28" rerouteNo="0" devices="tripinfo_f_0_1.1" vType="type1" speedFactor="1.15" vaporized=""/>
    <tripinfo id="f_0_1.2" depart="28.00" departLane="np16_nt1_0" departPos="30.37" departSpeed="0.00" departDelay="0.73" arrival="395.00" arrivalLane="nt16_np8_0" arrivalPos="75.00" arrivalSpeed="17.14" duration="367.00" routeLength="1317.51" waitingTime="174.00" waitingCount="11" stopTime="0.00" timeLoss="269.31" rerouteNo="0" devices="tripinfo_f_0_1.2" vType="type1" speedFactor="0.94" vaporized=""/>
    <tripinfo id="f_0_1.9" depart="123.00" departLane="np16_nt1_0" departPos="52.97" departSpeed="0.00" departDelay="0.28" arrival="397.00" arrivalLane="nt16_np8_0" arrivalPos="75.00" arrivalSpeed="18.73" duration="274.00" routeLength="1294.91" waitingTime="112.00" waitingCount="9" stopTime="0.00" timeLoss="182.77" rerouteNo="0" devices="tripinfo_f_0_1.9" vType="type1" speedFactor="0.99" vaporized=""/>
    <tripinfo id="f_0_2.9" depart="74.00" departLane="np2_nt2_0" departPos="43.26" departSpeed="0.00" departDelay="0.36" arrival="403.00" arrivalLane="nt15_np10_0" arrivalPos="75.00" arrivalSpeed="8.86" duration="329.00" routeLength="907.82" waitingTime="165.00" waitingCount="11" stopTime="0.00" timeLoss="250.33" rerouteNo="0" devices="tripinfo_f_0_2.9" vType="type1" speedFactor="0.97" vaporized=""/>
    <tripinfo id="f_0_2.10" depart="82.00" departLane="np2_nt2_0" departPos="20.53" departSpeed="0.00" departDelay="0.18" arrival="414.00" arrivalLane="nt15_np10_0" arrivalPos="75.00" arrivalSpeed="9.78" duration="332.00" routeLength="930.55" waitingTime="164.00" waitingCount="15" stopTime="0.00" timeLoss="259.70" rerouteNo="0" devices="tripinfo_f_0_2.10" vType="type1" speedFactor="1.08" vaporized=""/>
    <tripinfo id="f_0_1.10" depart="137.00" departLane="np16_nt1_0" departPos="2.57" departSpeed="0.00" departDelay="0.64" arrival="424.00" arrivalLane="nt16_np8_0" arrivalPos="75.00" arrivalSpeed="17.76" duration="287.00" routeLength="1345.31" waitingTime="113.00" waitingCount="13" stopTime="0.00" timeLoss="192.47" rerouteNo="0" devices="tripinfo_f_0_1.10" vType="type1" speedFactor="0.99" vaporized=""/>
    <tripinfo id="f_0_1.11" depart="150.00" departLane="np16_nt1_0" departPos="35.66" departSpeed="0.00" departDelay="0.00" arrival="433.00" arrivalLane="nt16_np8_0" arrivalPos="75.00" arrivalSpeed="16.35" duration="283.00" routeLength="1312.22" waitingTime="116.00" waitingCount="12" stopTime="0.00" timeLoss="185.72" rerouteNo="0" devices="tripinfo_f_0_1.11" vType="type1" speedFactor="0.94" vaporized=""/>
    <tripinfo id="f_0_0.6" depart="82.00" departLane="np13_nt13_0" departPos="43.35" departSpeed="0.00" departDelay="0.18" arrival="438.00" arrivalLane="nt4_np5_0" arrivalPos="75.00" arrivalSpeed="16.49" duration="356.00" routeLength="1304.54" waitingTime="204.00" waitingCount="10" stopTime="0.00" timeLoss="251.81" rerouteNo="0" devices="tripinfo_f_0_0.6" vType="type1" speedFactor="0.87" vaporized=""/>
    <tripinfo id="f_0_0.7" depart="96.00" departLane="np13_nt13_0" departPos="66.71" departSpeed="0.00" departDelay="0.55" arrival="440.00" arrivalLane="nt4_np5_0" arrivalPos="75.00" arrivalSpeed="20.57" duration="344.00" routeLength="1281.18" waitingTime="213.00" waitingCount="9" stopTime="0.00" timeLoss="262.74" rerouteNo="0" devices="tripinfo_f_0_0.7" vType="type1" speedFactor="1.10" vaporized=""/>
    <tripinfo id="f_0_3.8" depart="66.00" departLane="np3_nt3_0" departPos="25.15" departSpeed="0.00" departDelay="0.54" arrival="444.00" arrivalLane="nt14_np11_0" arrivalPos="75.00" arrivalSpeed="7.12" duration="378.00" routeLength="925.94" waitingTime="246.00" waitingCount="7" stopTime="0.00" timeLoss="286.74" rerouteNo="0" devices="tripinfo_f_0_3.8" vType="type1" speedFactor="0.85" vaporized=""/>
    <tripinfo id="f_0_0.8" depart="110.00" departLane="np13_nt13_0" departPos="30.66" departSpeed="0.00" departDelay="0.91" arrival="448.00" arrivalLane="nt4_np5_0" arrivalPos="75.00" arrivalSpeed="20.40" duration="338.00" routeLength="1317.23" waitingTime="191.00" waitingCount="11" stopTime="0.00" timeLoss="249.47" rerouteNo="0" devices="tripinfo_f_0_0.8" vType="type1" speedFactor="1.04" vaporized=""/>
    <tripinfo id="f_0_2.23" depart="189.00" departLane="np2_nt2_0" departPos="32.00" departSpeed="0.00" departDelay="0.81" arrival="456.00" arrivalLane="nt15_np10_0" arrivalPos="75.00" arrivalSpeed="12.77" duration="267.00" routeLength="919.08" waitingTime="135.00" waitingCount="9" stopTime="0.00" timeLoss="201.04" rerouteNo="0" devices="tripinfo_f_0_2.23" vType="type1" speedFactor="1.17" vaporized=""/>
    <tripinfo id="f_0_2.11" depart="90.00" departLane="np2_nt2_0" departPos="23.21" departSpeed="0.00" departDelay="0.00" arrival="459.00" arrivalLane="nt15_np10_0" arrivalPos="75.00" arrivalSpeed="9.66" duration="369.00" routeLength="927.87" waitingTime="209.00" waitingCount="14" stopTime="0.00" timeLoss="291.02" rerouteNo="0" devices="tripinfo_f_0_2.11" vType="type1" speedFactor="1.00" vaporized=""/>
    <tripinfo id="f_0_3.9" depart="74.00" departLane="np3_nt3_0" departPos="0.43" departSpeed="0.00" departDelay="0.36" arrival="476.00" arrivalLane="nt14_np11_0" arrivalPos="75.00" arrivalSpeed="11.89" duration="402.00" routeLength="950.66" waitingTime="267.00" waitingCount="10" stopTime="0.00" timeLoss="328.77" rerouteNo="0" devices="tripinfo_f_0_3.9" vType="type1" speedFactor="1.09" vaporized=""/>
    <tripinfo id="f_0_3.10" depart="82.00" departLane="np3_nt3_0" departPos="0.00" departSpeed="0.00" departDelay="0.18" arrival="478.00" arrivalLane="nt14_np11_0" arrivalPos="75.00" arrivalSpeed="9.97" duration="396.00" routeLength="951.09" waitingTime="267.00" waitingCount="11" stopTime="0.00" timeLoss="323.25" rerouteNo="0" devices="tripinfo_f_0_3.10" vType="type1" speedFactor="1.10" vaporized=""/>
    <tripinfo id="f_0_2.27" depart="221.00" departLane="np2_nt2_0" departPos="23.68" departSpeed="0.00" departDelay="0.09" arrival="482.00" arrivalLane="nt15_np10_0" arrivalPos="75.00" arrivalSpeed="11.06" duration="261.00" routeLength="927.40" waitingTime="146.00" waitingCount="8" stopTime="0.00" timeLoss="189.83" rerouteNo="0" devices="tripinfo_f_0_2.27" vType="type1" speedFactor="1.10" vaporized=""/>
    <tripinfo id="f_0_0.9" depart="123.00" departLane="np13_nt13_0" departPos="19.14" departSpeed="0.00" departDelay="0.28" arrival="488.00" arrivalLane="nt4_np5_0" arrivalPos="75.00" arrivalSpeed="19.54" duration="365.00" routeLength="1328.75" waitingTime="203.00" waitingCount="13" stopTime="0.00" timeLoss="276.52" rerouteNo="0" devices="tripinfo_f_0_0.9" vType="type1" speedFactor="1.04" vaporized=""/>
    <tripinfo id="f_0_0.10" depart="137.00" departLane="np13_nt13_0" departPos="31.68" departSpeed="0.00" departDelay="0.64" arrival="508.00" arrivalLane="nt4_np5_0" arrivalPos="75.00" arrivalSpeed="20.46" duration="371.00" routeLength="1316.21" waitingTime="214.00" waitingCount="13" stopTime="0.00" timeLoss="290.59" rerouteNo="0" devices="tripinfo_f_0_0.10" vType="type1" speedFactor="1.14" vaporized=""/>
    <tripinfo id="f_0_0.11" depart="150.00" departLane="np13_nt13_0" departPos="19.52" departSpeed="0.00" departDelay="0.00" arrival="594.00" arrivalLane="nt4_np5_0" arrivalPos="75.00" arrivalSpeed="21.75" duration="444.00" routeLength="1328.37" waitingTime="285.00" waitingCount="16" stopTime="0.00" timeLoss="362.29" rerouteNo="0" devices="tripinfo_f_0_0.11" vType="type1" speedFactor="1.13" vaporized=""/>
    <tripinfo id="f_0_3.11" depart="90.00" departLane="np3_nt3_0" departPos="2.80" departSpeed="0.00" departDelay="0.00" arrival="653.00" arrivalLane="nt14_np11_0" arrivalPos="75.00" arrivalSpeed="7.90" duration="563.00" routeLength="948.29" waitingTime="418.00" waitingCount="11" stopTime="0.00" timeLoss="478.18" rerouteNo="0" devices="tripinfo_f_0_3.11" vType="type1" speedFactor="0.94" vaporized=""/>
    <tripinfo id="f_0_0.12" depart="164.00" departLane="np13_nt13_0" departPos="32.89" departSpeed="0.00" departDelay="0.37" arrival="694.00" arrivalLane="nt4_np5_0" arrivalPos="75.00" arrivalSpeed="17.34" duration="530.00" routeLength="1315.00" waitingTime="346.00" waitingCount="16" stopTime="0.00" timeLoss="434.79" rerouteNo="0" devices="tripinfo_f_0_0.12" vType="type1" speedFactor="0.96" vaporized=""/>
    <tripinfo id="f_0_0.13" depart="178.00" departLane="np13_nt13_0" departPos="23.40" departSpeed="0.00" departDelay="0.73" arrival="695.00" arrivalLane="nt4_np5_0" arrivalPos="75.00" arrivalSpeed="17.46" duration="517.00" routeLength="1324.49" waitingTime="321.00" waitingCount="17" stopTime="0.00" timeLoss="412.76" rerouteNo="0" devices="tripinfo_f_0_0.13" vType="type1" speedFactor="0.88" vaporized=""/>
    <tripinfo id="f_0_0.14" depart="191.00" departLane="np13_nt13_0" departPos="44.25" departSpeed="0.00" departDelay="0.10" arrival="708.00" arrivalLane="nt4_np5_0" arrivalPos="75.00" arrivalSpeed="20.93" duration="517.00" routeLength="1303.64" waitingTime="321.00" waitingCount="19" stopTime="0.00" timeLoss="434.31" rerouteNo="0" devices="tripinfo_f_0_0.14" vType="type1" speedFactor="1.11" vaporized=""/>
    <tripinfo id="f_0_2.12" depart="99.00" departLane="np2_nt2_0" departPos="5.20" departSpeed="0.00" departDelay="0.82" arrival="714.00" arrivalLane="nt15_np10_0" arrivalPos="75.00" arrivalSpeed="8.54" duration="615.00" routeLength="945.88" waitingTime="439.00" waitingCount="16" stopTime="0.00" timeLoss="524.49" rerouteNo="0" devices="tripinfo_f_0_2.12" vType="type1" speedFactor="0.88" vaporized=""/>
    <tripinfo id="f_0_2.25" depart="205.00" departLane="np2_nt2_0" departPos="47.68" departSpeed="0.00" departDelay="0.45" arrival="716.00" arrivalLane="nt15_np10_0" arrivalPos="75.00" arrivalSpeed="8.22" duration="511.00" routeLength="903.40" waitingTime="375.00" waitingCount="14" stopTime="0.00" timeLoss="429.91" rerouteNo="0" devices="tripinfo_f_0_2.25" vType="type1" speedFactor="0.93" vaporized=""/>
    <tripinfo id="f_0_2.13" depart="107.00" departLane="np2_nt2_0" departPos="31.55" departSpeed="0.00" departDelay="0.63" arrival="730.00" arrivalLane="nt15_np10_0" arrivalPos="75.00" arrivalSpeed="7.36" duration="623.00" routeLength="919.53" waitingTime="428.00" waitingCount="17" stopTime="0.00" timeLoss="522.85" rerouteNo="0" devices="tripinfo_f_0_2.13" vType="type1" speedFactor="0.77" vaporized=""/>
    <tripinfo id="f_0_1.12" depart="164.00" departLane="np16_nt1_0" departPos="35.59" departSpeed="0.00" departDelay="0.37" arrival="799.00" arrivalLane="nt16_np8_0" arrivalPos="75.00" arrivalSpeed="14.80" duration="635.00" routeLength="1312.29" waitingTime="460.00" waitingCount="14" stopTime="0.00" timeLoss="520.54" rerouteNo="0" devices="tripinfo_f_0_1.12" vType="type1" speedFactor="0.80" vaporized=""/>
    <tripinfo id="f_0_1.13" depart="178.00" departLane="np16_nt1_0" departPos="50.83" departSpeed="0.00" departDelay="0.73" arrival="800.00" arrivalLane="nt16_np8_0" arrivalPos="75.00" arrivalSpeed="17.41" duration="622.00" routeLength="1297.05" waitingTime="450.00" waitingCount="13" stopTime="0.00" timeLoss="525.21" rerouteNo="0" devices="tripinfo_f_0_1.13" vType="type1" speedFactor="0.94" vaporized=""/>
    <tripinfo id="f_0_2.14" depart="115.00" departLane="np2_nt2_0" departPos="34.03" departSpeed="0.00" departDelay="0.45" arrival="801.00" arrivalLane="nt15_np10_0" arrivalPos="75.00" arrivalSpeed="11.41" duration="686.00" routeLength="917.05" waitingTime="493.00" waitingCount="19" stopTime="0.00" timeLoss="618.25" rerouteNo="0" devices="tripinfo_f_0_2.14" vType="type1" speedFactor="1.13" vaporized=""/>
    <tripinfo id="f_0_2.29" depart="238.00" departLane="np2_nt2_0" departPos="18.15" departSpeed="0.00" departDelay="0.72" arrival="804.00" arrivalLane="nt15_np10_0" arrivalPos="75.00" arrivalSpeed="10.73" duration="566.00" routeLength="932.93" waitingTime="405.00" waitingCount="16" stopTime="0.00" timeLoss="488.35" rerouteNo="0" devices="tripinfo_f_0_2.29" vType="type1" speedFactor="1.02" vaporized=""/>
    <tripinfo id="f_0_2.15" depart="123.00" departLane="np2_nt2_0" departPos="50.36" departSpeed="0.00" departDelay="0.27" arrival="807.00" arrivalLane="nt15_np10_0" arrivalPos="75.00" arrivalSpeed="8.80" duration="684.00" routeLength="900.72" waitingTime="473.00" waitingCount="23" stopTime="0.00" timeLoss="606.71" rerouteNo="0" devices="tripinfo_f_0_2.15" vType="type1" speedFactor="0.97" vaporized=""/>
    <tripinfo id="f_0_2.31" depart="254.00" departLane="np2_nt2_0" departPos="1.50" departSpeed="0.00" departDelay="0.36" arrival="810.00" arrivalLane="nt15_np10_0" arrivalPos="75.00" arrivalSpeed="9.26" duration="556.00" routeLength="949.58" waitingTime="375.00" waitingCount="18" stopTime="0.00" timeLoss="468.36" rerouteNo="0" devices="tripinfo_f_0_2.31" vType="type1" speedFactor="0.91" vaporized=""/>
    <tripinfo id="f_0_3.12" depart="142.00" departLane="np3_nt3_0" departPos="0.00" departSpeed="0.00" departDelay="43.82" arrival="837.00" arrivalLane="nt14_np11_0" arrivalPos="75.00" arrivalSpeed="9.31" duration="695.00" routeLength="951.09" waitingTime="552.00" waitingCount="12" stopTime="0.00" timeLoss="616.14" rerouteNo="0" devices="tripinfo_f_0_3.12" vType="type1" speedFactor="1.01" vaporized=""/>
    <tripinfo id="f_0_1.3" depart="41.00" departLane="np16_nt1_0" departPos="33.74" departSpeed="0.00" departDelay="0.09" arrival="838.00" arrivalLane="nt16_np8_0" arrivalPos="75.00" arrivalSpeed="19.52" duration="797.00" routeLength="1314.14" waitingTime="543.00" waitingCount="27" stopTime="0.00" timeLoss="712.13" rerouteNo="0" devices="tripinfo_f_0_1.3" vType="type1" speedFactor="1.08" vaporized=""/>
    <tripinfo id="f_0_1.14" depart="191.00" departLane="np16_nt1_0" departPos="41.39" departSpeed="0.00" departDelay="0.10" arrival="840.00" arrivalLane="nt16_np8_0" arrivalPos="75.00" arrivalSpeed="21.29" duration="649.00" routeLength="1306.49" waitingTime="438.00" waitingCount="19" stopTime="0.00" timeLoss="571.38" rerouteNo="0" devices="tripinfo_f_0_1.14" vType="type1" speedFactor="1.18" vaporized=""/>
    <tripinfo id="f_0_1.4" depart="55.00" departLane="np16_nt1_0" departPos="21.98" departSpeed="0.00" departDelay="0.46" arrival="842.00" arrivalLane="nt16_np8_0" arrivalPos="75.00" arrivalSpeed="17.46" duration="787.00" routeLength="1325.90" waitingTime="503.00" waitingCount="27" stopTime="0.00" timeLoss="694.43" rerouteNo="0" devices="tripinfo_f_0_1.4" vType="type1" speedFactor="1.00" vaporized=""/>
    <tripinfo id="f_0_1.18" depart="246.00" departLane="np16_nt1_0" departPos="65.54" departSpeed="0.00" departDelay="0.55" arrival="844.00" arrivalLane="nt16_np8_0" arrivalPos="75.00" arrivalSpeed="17.11" duration="598.00" routeLength="1282.34" waitingTime="367.00" waitingCount="17" stopTime="0.00" timeLoss="502.78" rerouteNo="0" devices="tripinfo_f_0_1.18" vType="type1" speedFactor="0.95" vaporized=""/>
    <tripinfo id="f_0_3.13" depart="167.00" departLane="np3_nt3_0" departPos="1.61" departSpeed="0.00" departDelay="60.63" arrival="847.00" arrivalLane="nt14_np11_0" arrivalPos="75.00" arrivalSpeed="10.95" duration="680.00" routeLength="949.48" waitingTime="534.00" waitingCount="13" stopTime="0.00" timeLoss="603.52" rerouteNo="0" devices="tripinfo_f_0_3.13" vType="type1" speedFactor="1.05" vaporized=""/>
    <tripinfo id="f_0_1.15" depart="205.00" departLane="np16_nt1_0" departPos="49.41" departSpeed="0.00" departDelay="0.46" arrival="847.00" arrivalLane="nt16_np8_0" arrivalPos="75.00" arrivalSpeed="16.68" duration="642.00" routeLength="1298.47" waitingTime="392.00" waitingCount="20" stopTime="0.00" timeLoss="546.16" rerouteNo="0" devices="tripinfo_f_0_1.15" vType="type1" speedFactor="0.95" vaporized=""/>
    <tripinfo id="f_0_2.16" depart="131.00" departLane="np2_nt2_0" departPos="19.77" departSpeed="0.00" departDelay="0.09" arrival="856.00" arrivalLane="nt15_np10_0" arrivalPos="75.00" arrivalSpeed="8.72" duration="725.00" routeLength="931.31" waitingTime="427.00" waitingCount="23" stopTime="0.00" timeLoss="636.74" rerouteNo="0" devices="tripinfo_f_0_2.16" vType="type1" speedFactor="0.89" vaporized=""/>
    <tripinfo id="f_0_1.5" depart="69.00" departLane="np16_nt1_0" departPos="41.31" departSpeed="0.00" departDelay="0.82" arrival="858.00" arrivalLane="nt16_np8_0" arrivalPos="75.00" arrivalSpeed="18.60" duration="789.00" routeLength="1306.57" waitingTime="478.00" waitingCount="24" stopTime="0.00" timeLoss="701.97" rerouteNo="0" devices="tripinfo_f_0_1.5" vType="type1" speedFactor="1.05" vaporized=""/>
    <tripinfo id="f_0_1.16" depart="219.00" departLane="np16_nt1_0" departPos="9.10" departSpeed="0.00" departDelay="0.82" arrival="860.00" arrivalLane="nt16_np8_0" arrivalPos="75.00" arrivalSpeed="19.70" duration="641.00" routeLength="1338.78" waitingTime="376.00" waitingCount="20" stopTime="0.00" timeLoss="556.48" rerouteNo="0" devices="tripinfo_f_0_1.16" vType="type1" speedFactor="1.11" vaporized=""/>
    <tripinfo id="f_0_3.14" depart="171.00" departLane="np3_nt3_0" departPos="0.00" departSpeed="0.00" departDelay="56.45" arrival="868.00" arrivalLane="nt14_np11_0" arrivalPos="75.00" arrivalSpeed="8.50" duration="697.00" routeLength="951.09" waitingTime="527.00" waitingCount="17" stopTime="0.00" timeLoss="607.55" rerouteNo="0" devices="tripinfo_f_0_3.14" vType="type1" speedFactor="0.89" vaporized=""/>
    <tripinfo id="f_0_3.15" depart="208.00" departLane="np3_nt3_0" departPos="0.00" departSpeed="0.00" departDelay="85.27" arrival="870.00" arrivalLane="nt14_np11_0" arrivalPos="75.00" arrivalSpeed="9.63" duration="662.00" routeLength="951.09" waitingTime="502.00" waitingCount="17" stopTime="0.00" timeLoss="588.32" rerouteNo="0" devices="tripinfo_f_0_3.15" vType="type1" speedFactor="1.08" vaporized=""/>
    <tripinfo id="f_0_3.16" depart="253.00" departLane="np3_nt3_0" departPos="0.00" departSpeed="0.00" departDelay="122.09" arrival="877.00" arrivalLane="nt14_np11_0" arrivalPos="75.00" arrivalSpeed="10.02" duration="624.00" routeLength="951.09" waitingTime="459.00" waitingCount="17" stopTime="0.00" timeLoss="546.51" rerouteNo="0" devices="tripinfo_f_0_3.16" vType="type1" speedFactor="1.03" vaporized=""/>
    <tripinfo id="f_0_1.17" depart="232.00" departLane="np16_nt1_0" departPos="16.31" departSpeed="0.00" departDelay="0.19" arrival="879.00" arrivalLane="nt16_np8_0" arrivalPos="75.00" arrivalSpeed="18.00" duration="647.00" routeLength="1331.57" waitingTime="373.00" waitingCount="22" stopTime="0.00" timeLoss="543.88" rerouteNo="0" devices="tripinfo_f_0_1.17" vType="type1" speedFactor="0.91" vaporized=""/>
    <tripinfo id="f_0_0.15" depart="205.00" departLane="np13_nt13_0" departPos="4.36" departSpeed="0.00" departDelay="0.46" arrival="898.00" arrivalLane="nt4_np5_0" arrivalPos="75.00" arrivalSpeed="22.31" duration="693.00" routeLength="1343.53" waitingTime="516.00" waitingCount="15" stopTime="0.00" timeLoss="611.96" rerouteNo="0" devices="tripinfo_f_0_0.15" vType="type1" speedFactor="1.16" vaporized=""/>