<?xml version="1.0" encoding="UTF-8"?>

<!-- generated on 2023-08-30 18:52:28 by Eclipse SUMO libsumo Version 1.18.0
<configuration xmlns:xsi="http://www.w3.org/2001/XMLSchema-instance" xsi:noNamespaceSchemaLocation="http://sumo.dlr.de/xsd/libsumoConfiguration.xsd">

    <input>
        <net-file value="/home/stefan/RESCO/./environments/arterial4x4/arterial4x4.net.xml"/>
        <route-files value="/home/stefan/RESCO/./environments/arterial4x4/arterial4x4_51.rou.xml"/>
    </input>

    <output>
        <tripinfo-output value="/home/stefan/results/RAINBOW-tr0-arterial4x4-0-drq_norm-wait_norm/tripinfo_51.xml"/>
        <tripinfo-output.write-unfinished value="true"/>
    </output>

    <processing>
        <time-to-teleport value="-1"/>
    </processing>

    <report>
        <no-warnings value="True"/>
        <no-step-log value="True"/>
    </report>

    <random_number>
        <random value="true"/>
    </random_number>

</configuration>
-->

<tripinfos xmlns:xsi="http://www.w3.org/2001/XMLSchema-instance" xsi:noNamespaceSchemaLocation="http://sumo.dlr.de/xsd/tripinfo_file.xsd">
    <tripinfo id="f_0_3.0" depart="0.00" departLane="np3_nt3_0" departPos="27.92" departSpeed="0.00" departDelay="0.00" arrival="144.00" arrivalLane="nt14_np11_0" arrivalPos="75.00" arrivalSpeed="9.43" duration="144.00" routeLength="923.17" waitingTime="35.00" waitingCount="4" stopTime="0.00" timeLoss="59.61" rerouteNo="0" devices="tripinfo_f_0_3.0" vType="type1" speedFactor="0.92" vaporized=""/>
    <tripinfo id="f_0_3.1" depart="9.00" departLane="np3_nt3_0" departPos="40.20" departSpeed="0.00" departDelay="0.82" arrival="178.00" arrivalLane="nt14_np11_0" arrivalPos="75.00" arrivalSpeed="9.93" duration="169.00" routeLength="910.89" waitingTime="58.00" waitingCount="6" stopTime="0.00" timeLoss="92.19" rerouteNo="0" devices="tripinfo_f_0_3.1" vType="type1" speedFactor="1.00" vaporized=""/>
    <tripinfo id="f_0_2.0" depart="0.00" departLane="np2_nt2_0" departPos="56.95" departSpeed="0.00" departDelay="0.00" arrival="214.00" arrivalLane="nt15_np10_0" arrivalPos="75.00" arrivalSpeed="7.51" duration="214.00" routeLength="894.13" waitingTime="100.00" waitingCount="5" stopTime="0.00" timeLoss="130.93" rerouteNo="0" devices="tripinfo_f_0_2.0" vType="type1" speedFactor="0.90" vaporized=""/>
    <tripinfo id="f_0_2.1" depart="9.00" departLane="np2_nt2_0" departPos="8.87" departSpeed="0.00" departDelay="0.82" arrival="246.00" arrivalLane="nt15_np10_0" arrivalPos="75.00" arrivalSpeed="10.86" duration="237.00" routeLength="942.21" waitingTime="125.00" waitingCount="6" stopTime="0.00" timeLoss="169.19" rerouteNo="0" devices="tripinfo_f_0_2.1" vType="type1" speedFactor="1.17" vaporized=""/>
    <tripinfo id="f_0_0.0" depart="0.00" departLane="np13_nt13_0" departPos="40.42" departSpeed="0.00" departDelay="0.00" arrival="249.00" arrivalLane="nt4_np5_0" arrivalPos="75.00" arrivalSpeed="19.82" duration="249.00" routeLength="1307.47" waitingTime="129.00" waitingCount="4" stopTime="0.00" timeLoss="158.42" rerouteNo="0" devices="tripinfo_f_0_0.0" vType="type1" speedFactor="1.01" vaporized=""/>
    <tripinfo id="f_0_2.2" depart="17.00" departLane="np2_nt2_0" departPos="17.42" departSpeed="0.00" departDelay="0.64" arrival="332.00" arrivalLane="nt15_np10_0" arrivalPos="75.00" arrivalSpeed="10.53" duration="315.00" routeLength="933.66" waitingTime="212.00" waitingCount="6" stopTime="0.00" timeLoss="239.48" rerouteNo="0" devices="tripinfo_f_0_2.2" vType="type1" speedFactor="1.04" vaporized=""/>
    <tripinfo id="f_0_2.3" depart="25.00" departLane="np2_nt2_0" departPos="45.65" departSpeed="0.00" departDelay="0.45" arrival="334.00" arrivalLane="nt15_np10_0" arrivalPos="75.00" arrivalSpeed="9.93" duration="309.00" routeLength="905.43" waitingTime="203.00" waitingCount="7" stopTime="0.00" timeLoss="236.06" rerouteNo="0" devices="tripinfo_f_0_2.3" vType="type1" speedFactor="1.04" vaporized=""/>
    <tripinfo id="f_0_3.2" depart="17.00" departLane="np3_nt3_0" departPos="15.68" departSpeed="0.00" departDelay="0.64" arrival="337.00" arrivalLane="nt14_np11_0" arrivalPos="75.00" arrivalSpeed="9.89" duration="320.00" routeLength="935.41" waitingTime="212.00" waitingCount="6" stopTime="0.00" timeLoss="242.83" rerouteNo="0" devices="tripinfo_f_0_3.2" vType="type1" speedFactor="1.02" vaporized=""/>
    <tripinfo id="f_0_0.1" depart="14.00" departLane="np13_nt13_0" departPos="12.75" departSpeed="0.00" departDelay="0.36" arrival="343.00" arrivalLane="nt4_np5_0" arrivalPos="75.00" arrivalSpeed="19.00" duration="329.00" routeLength="1335.14" waitingTime="204.00" waitingCount="5" stopTime="0.00" timeLoss="234.89" rerouteNo="0" devices="tripinfo_f_0_0.1" vType="type1" speedFactor="0.98" vaporized=""/>
    <tripinfo id="f_0_0.2" depart="28.00" departLane="np13_nt13_0" departPos="32.59" departSpeed="0.00" departDelay="0.73" arrival="346.00" arrivalLane="nt4_np5_0" arrivalPos="75.00" arrivalSpeed="14.14" duration="318.00" routeLength="1315.30" waitingTime="170.00" waitingCount="6" stopTime="0.00" timeLoss="207.38" rerouteNo="0" devices="tripinfo_f_0_0.2" vType="type1" speedFactor="0.83" vaporized=""/>
    <tripinfo id="f_0_0.3" depart="41.00" departLane="np13_nt13_0" departPos="7.64" departSpeed="0.00" departDelay="0.09" arrival="373.00" arrivalLane="nt4_np5_0" arrivalPos="75.00" arrivalSpeed="21.57" duration="332.00" routeLength="1340.25" waitingTime="200.00" waitingCount="8" stopTime="0.00" timeLoss="251.33" rerouteNo="0" devices="tripinfo_f_0_0.3" vType="type1" speedFactor="1.15" vaporized=""/>
    <tripinfo id="f_0_0.4" depart="55.00" departLane="np13_nt13_0" departPos="60.73" departSpeed="0.00" departDelay="0.46" arrival="376.00" arrivalLane="nt4_np5_0" arrivalPos="75.00" arrivalSpeed="15.31" duration="321.00" routeLength="1287.16" waitingTime="170.00" waitingCount="7" stopTime="0.00" timeLoss="216.27" rerouteNo="0" devices="tripinfo_f_0_0.4" vType="type1" speedFactor="0.86" vaporized=""/>
    <tripinfo id="f_0_2.4" depart="33.00" departLane="np2_nt2_0" departPos="10.98" departSpeed="0.00" departDelay="0.27" arrival="387.00" arrivalLane="nt15_np10_0" arrivalPos="75.00" arrivalSpeed="11.49" duration="354.00" routeLength="940.10" waitingTime="245.00" waitingCount="8" stopTime="0.00" timeLoss="279.79" rerouteNo="0" devices="tripinfo_f_0_2.4" vType="type1" speedFactor="1.07" vaporized=""/>
    <tripinfo id="f_0_2.5" depart="41.00" departLane="np2_nt2_0" departPos="17.20" departSpeed="0.00" departDelay="0.09" arrival="398.00" arrivalLane="nt15_np10_0" arrivalPos="75.00" arrivalSpeed="8.87" duration="357.00" routeLength="933.88" waitingTime="233.00" waitingCount="9" stopTime="0.00" timeLoss="273.03" rerouteNo="0" devices="tripinfo_f_0_2.5" vType="type1" speedFactor="0.94" vaporized=""/>
    <tripinfo id="f_0_2.6" depart="50.00" departLane="np2_nt2_0" departPos="9.92" departSpeed="0.00" departDelay="0.91" arrival="438.00" arrivalLane="nt15_np10_0" arrivalPos="75.00" arrivalSpeed="8.26" duration="388.00" routeLength="941.16" waitingTime="253.00" waitingCount="10" stopTime="0.00" timeLoss="305.06" rerouteNo="0" devices="tripinfo_f_0_2.6" vType="type1" speedFactor="0.95" vaporized=""/>
    <tripinfo id="f_0_3.3" depart="25.00" departLane="np3_nt3_0" departPos="37.71" departSpeed="0.00" departDelay="0.45" arrival="451.00" arrivalLane="nt14_np11_0" arrivalPos="75.00" arrivalSpeed="11.81" duration="426.00" routeLength="913.38" waitingTime="321.00" waitingCount="5" stopTime="0.00" timeLoss="354.92" rerouteNo="0" devices="tripinfo_f_0_3.3" vType="type1" speedFactor="1.08" vaporized=""/>
    <tripinfo id="f_0_0.5" depart="69.00" departLane="np13_nt13_0" departPos="31.92" departSpeed="0.00" departDelay="0.82" arrival="453.00" arrivalLane="nt4_np5_0" arrivalPos="75.00" arrivalSpeed="21.04" duration="384.00" routeLength="1315.97" waitingTime="248.00" waitingCount="8" stopTime="0.00" timeLoss="301.71" rerouteNo="0" devices="tripinfo_f_0_0.5" vType="type1" speedFactor="1.11" vaporized=""/>
    <tripinfo id="f_0_0.6" depart="82.00" departLane="np13_nt13_0" departPos="23.68" departSpeed="0.00" departDelay="0.18" arrival="456.00" arrivalLane="nt4_np5_0" arrivalPos="75.00" arrivalSpeed="17.77" duration="374.00" routeLength="1324.21" waitingTime="229.00" waitingCount="7" stopTime="0.00" timeLoss="270.02" rerouteNo="0" devices="tripinfo_f_0_0.6" vType="type1" speedFactor="0.89" vaporized=""/>
    <tripinfo id="f_0_2.7" depart="58.00" departLane="np2_nt2_0" departPos="25.12" departSpeed="0.00" departDelay="0.73" arrival="459.00" arrivalLane="nt15_np10_0" arrivalPos="75.00" arrivalSpeed="8.65" duration="401.00" routeLength="925.96" waitingTime="263.00" waitingCount="9" stopTime="0.00" timeLoss="308.56" rerouteNo="0" devices="tripinfo_f_0_2.7" vType="type1" speedFactor="0.84" vaporized=""/>
    <tripinfo id="f_0_2.8" depart="66.00" departLane="np2_nt2_0" departPos="28.74" departSpeed="0.00" departDelay="0.54" arrival="461.00" arrivalLane="nt15_np10_0" arrivalPos="75.00" arrivalSpeed="10.05" duration="395.00" routeLength="922.34" waitingTime="252.00" waitingCount="9" stopTime="0.00" timeLoss="320.73" rerouteNo="0" devices="tripinfo_f_0_2.8" vType="type1" speedFactor="1.05" vaporized=""/>
    <tripinfo id="f_0_0.7" depart="96.00" departLane="np13_nt13_0" departPos="28.11" departSpeed="0.00" departDelay="0.55" arrival="529.00" arrivalLane="nt4_np5_0" arrivalPos="75.00" arrivalSpeed="17.10" duration="433.00" routeLength="1319.78" waitingTime="283.00" waitingCount="8" stopTime="0.00" timeLoss="333.82" rerouteNo="0" devices="tripinfo_f_0_0.7" vType="type1" speedFactor="0.93" vaporized=""/>
    <tripinfo id="f_0_2.9" depart="74.00" departLane="np2_nt2_0" departPos="1.89" departSpeed="0.00" departDelay="0.36" arrival="563.00" arrivalLane="nt15_np10_0" arrivalPos="75.00" arrivalSpeed="9.31" duration="489.00" routeLength="949.19" waitingTime="342.00" waitingCount="12" stopTime="0.00" timeLoss="404.76" rerouteNo="0" devices="tripinfo_f_0_2.9" vType="type1" speedFactor="0.95" vaporized=""/>
    <tripinfo id="f_0_1.6" depart="82.00" departLane="np16_nt1_0" departPos="1.83" departSpeed="0.00" departDelay="0.18" arrival="579.00" arrivalLane="nt16_np8_0" arrivalPos="75.00" arrivalSpeed="18.33" duration="497.00" routeLength="1346.05" waitingTime="328.00" waitingCount="11" stopTime="0.00" timeLoss="395.36" rerouteNo="0" devices="tripinfo_f_0_1.6" vType="type1" speedFactor="0.92" vaporized=""/>
    <tripinfo id="f_0_1.0" depart="0.00" departLane="np16_nt1_0" departPos="65.70" departSpeed="0.00" departDelay="0.00" arrival="588.00" arrivalLane="nt16_np8_0" arrivalPos="75.00" arrivalSpeed="21.64" duration="588.00" routeLength="1282.18" waitingTime="406.00" waitingCount="15" stopTime="0.00" timeLoss="506.45" rerouteNo="0" devices="tripinfo_f_0_1.0" vType="type1" speedFactor="1.10" vaporized=""/>
    <tripinfo id="f_0_0.8" depart="110.00" departLane="np13_nt13_0" departPos="55.63" departSpeed="0.00" departDelay="0.91" arrival="588.00" arrivalLane="nt4_np5_0" arrivalPos="75.00" arrivalSpeed="17.76" duration="478.00" routeLength="1292.26" waitingTime="337.00" waitingCount="9" stopTime="0.00" timeLoss="378.96" rerouteNo="0" devices="tripinfo_f_0_0.8" vType="type1" speedFactor="0.91" vaporized=""/>
    <tripinfo id="f_0_0.9" depart="123.00" departLane="np13_nt13_0" departPos="41.09" departSpeed="0.00" departDelay="0.28" arrival="603.00" arrivalLane="nt4_np5_0" arrivalPos="75.00" arrivalSpeed="21.09" duration="480.00" routeLength="1306.80" waitingTime="348.00" waitingCount="11" stopTime="0.00" timeLoss="396.39" rerouteNo="0" devices="tripinfo_f_0_0.9" vType="type1" speedFactor="1.09" vaporized=""/>
    <tripinfo id="f_0_3.4" depart="33.00" departLane="np3_nt3_0" departPos="27.06" departSpeed="0.00" departDelay="0.27" arrival="618.00" arrivalLane="nt14_np11_0" arrivalPos="75.00" arrivalSpeed="9.47" duration="585.00" routeLength="924.03" waitingTime="471.00" waitingCount="4" stopTime="0.00" timeLoss="503.72" rerouteNo="0" devices="tripinfo_f_0_3.4" vType="type1" speedFactor="0.96" vaporized=""/>
    <tripinfo id="f_0_3.5" depart="41.00" departLane="np3_nt3_0" departPos="52.08" departSpeed="0.00" departDelay="0.09" arrival="693.00" arrivalLane="nt14_np11_0" arrivalPos="75.00" arrivalSpeed="8.23" duration="652.00" routeLength="899.01" waitingTime="537.00" waitingCount="6" stopTime="0.00" timeLoss="572.44" rerouteNo="0" devices="tripinfo_f_0_3.5" vType="type1" speedFactor="0.94" vaporized=""/>
    <tripinfo id="f_0_3.6" depart="50.00" departLane="np3_nt3_0" departPos="51.03" departSpeed="0.00" departDelay="0.91" arrival="695.00" arrivalLane="nt14_np11_0" arrivalPos="75.00" arrivalSpeed="10.77" duration="645.00" routeLength="900.06" waitingTime="534.00" waitingCount="7" stopTime="0.00" timeLoss="574.01" rerouteNo="0" devices="tripinfo_f_0_3.6" vType="type1" speedFactor="1.06" vaporized=""/>
    <tripinfo id="f_0_0.10" depart="137.00" departLane="np13_nt13_0" departPos="25.05" departSpeed="0.00" departDelay="0.64" arrival="723.00" arrivalLane="nt4_np5_0" arrivalPos="75.00" arrivalSpeed="18.82" duration="586.00" routeLength="1322.84" waitingTime="448.00" waitingCount="10" stopTime="0.00" timeLoss="499.66" rerouteNo="0" devices="tripinfo_f_0_0.10" vType="type1" speedFactor="1.06" vaporized=""/>
    <tripinfo id="f_0_3.7" depart="58.00" departLane="np3_nt3_0" departPos="59.43" departSpeed="0.00" departDelay="0.73" arrival="729.00" arrivalLane="nt14_np11_0" arrivalPos="75.00" arrivalSpeed="8.14" duration="671.00" routeLength="891.66" waitingTime="543.00" waitingCount="8" stopTime="0.00" timeLoss="585.47" rerouteNo="0" devices="tripinfo_f_0_3.7" vType="type1" speedFactor="0.87" vaporized=""/>
    <tripinfo id="f_0_0.11" depart="150.00" departLane="np13_nt13_0" departPos="57.98" departSpeed="0.00" departDelay="0.00" arrival="744.00" arrivalLane="nt4_np5_0" arrivalPos="75.00" arrivalSpeed="16.52" duration="594.00" routeLength="1289.91" waitingTime="430.00" waitingCount="10" stopTime="0.00" timeLoss="490.36" rerouteNo="0" devices="tripinfo_f_0_0.11" vType="type1" speedFactor="0.87" vaporized=""/>
    <tripinfo id="f_0_0.12" depart="164.00" departLane="np13_nt13_0" departPos="50.58" departSpeed="0.00" departDelay="0.37" arrival="746.00" arrivalLane="nt4_np5_0" arrivalPos="75.00" arrivalSpeed="16.19" duration="582.00" routeLength="1297.31" waitingTime="417.00" waitingCount="11" stopTime="0.00" timeLoss="478.09" rerouteNo="0" devices="tripinfo_f_0_0.12" vType="type1" speedFactor="0.88" vaporized=""/>
    <tripinfo id="f_0_0.13" depart="178.00" departLane="np13_nt13_0" departPos="40.33" departSpeed="0.00" departDelay="0.73" arrival="747.00" arrivalLane="nt4_np5_0" arrivalPos="75.00" arrivalSpeed="17.08" duration="569.00" routeLength="1307.56" waitingTime="396.00" waitingCount="11" stopTime="0.00" timeLoss="470.86" rerouteNo="0" devices="tripinfo_f_0_0.13" vType="type1" speedFactor="0.93" vaporized=""/>
    <tripinfo id="f_0_0.14" depart="191.00" departLane="np13_nt13_0" departPos="5.88" departSpeed="0.00" departDelay="0.10" arrival="749.00" arrivalLane="nt4_np5_0" arrivalPos="75.00" arrivalSpeed="19.57" duration="558.00" routeLength="1342.01" waitingTime="391.00" waitingCount="10" stopTime="0.00" timeLoss="467.41" rerouteNo="0" devices="tripinfo_f_0_0.14" vType="type1" speedFactor="1.03" vaporized=""/>
    <tripinfo id="f_0_0.15" depart="205.00" departLane="np13_nt13_0" departPos="0.30" departSpeed="0.00" departDelay="0.46" arrival="750.00" arrivalLane="nt4_np5_0" arrivalPos="75.00" arrivalSpeed="20.85" duration="545.00" routeLength="1347.59" waitingTime="369.00" waitingCount="11" stopTime="0.00" timeLoss="461.71" rerouteNo="0" devices="tripinfo_f_0_0.15" vType="type1" speedFactor="1.12" vaporized=""/>
    <tripinfo id="f_0_0.16" depart="219.00" departLane="np13_nt13_0" departPos="62.19" departSpeed="0.00" departDelay="0.82" arrival="752.00" arrivalLane="nt4_np5_0" arrivalPos="75.00" arrivalSpeed="18.24" duration="533.00" routeLength="1285.70" waitingTime="346.00" waitingCount="13" stopTime="0.00" timeLoss="442.00" rerouteNo="0" devices="tripinfo_f_0_0.16" vType="type1" speedFactor="0.99" vaporized=""/>
    <tripinfo id="f_0_0.17" depart="232.00" departLane="np13_nt13_0" departPos="18.85" departSpeed="0.00" departDelay="0.19" arrival="776.00" arrivalLane="nt4_np5_0" arrivalPos="75.00" arrivalSpeed="18.94" duration="544.00" routeLength="1329.04" waitingTime="350.00" waitingCount="11" stopTime="0.00" timeLoss="451.48" rerouteNo="0" devices="tripinfo_f_0_0.17" vType="type1" speedFactor="0.99" vaporized=""/>
    <tripinfo id="f_0_3.8" depart="66.00" departLane="np3_nt3_0" departPos="17.22" departSpeed="0.00" departDelay="0.54" arrival="817.00" arrivalLane="nt14_np11_0" arrivalPos="75.00" arrivalSpeed="9.62" duration="751.00" routeLength="933.87" waitingTime="627.00" waitingCount="9" stopTime="0.00" timeLoss="673.97" rerouteNo="0" devices="tripinfo_f_0_3.8" vType="type1" speedFactor="1.02" vaporized=""/>
    <tripinfo id="f_0_3.9" depart="74.00" departLane="np3_nt3_0" departPos="35.45" departSpeed="0.00" departDelay="0.36" arrival="819.00" arrivalLane="nt14_np11_0" arrivalPos="75.00" arrivalSpeed="10.96" duration="745.00" routeLength="915.64" waitingTime="612.00" waitingCount="9" stopTime="0.00" timeLoss="669.51" rerouteNo="0" devices="tripinfo_f_0_3.9" vType="type1" speedFactor="1.02" vaporized=""/>
    <tripinfo id="f_0_1.8" depart="110.00" departLane="np16_nt1_0" departPos="26.96" departSpeed="0.00" departDelay="0.91" arrival="949.00" arrivalLane="nt16_np8_0" arrivalPos="75.00" arrivalSpeed="18.56" duration="839.00" routeLength="1320.92" waitingTime="666.00" waitingCount="14" stopTime="0.00" timeLoss="740.65" rerouteNo="0" devices="tripinfo_f_0_1.8" vType="type1" speedFactor="0.94" vaporized=""/>
    <tripinfo id="f_0_2.10" depart="82.00" departLane="np2_nt2_0" departPos="35.34" departSpeed="0.00" departDelay="0.18" arrival="998.00" arrivalLane="nt15_np10_0" arrivalPos="75.00" arrivalSpeed="8.54" duration="916.00" routeLength="915.74" waitingTime="747.00" waitingCount="16" stopTime="0.00" timeLoss="833.81" rerouteNo="0" devices="tripinfo_f_0_2.10" vType="type1" speedFactor="0.93" vaporized=""/>
    <tripinfo id="f_0_2.11" depart="90.00" departLane="np2_nt2_0" departPos="39.07" departSpeed="0.00" departDelay="0.00" arrival="1000.00" arrivalLane="nt15_np10_0" arrivalPos="75.00" arrivalSpeed="10.85" duration="910.00" routeLength="912.01" waitingTime="741.00" waitingCount="17" stopTime="0.00" timeLoss="836.67" rerouteNo="0" devices="tripinfo_f_0_2.11" vType="type1" speedFactor="1.04" vaporized=""/>
    <tripinfo id="f_0_1.9" depart="123.00" departLane="np16_nt1_0" departPos="14.31" departSpeed="0.00" departDelay="0.28" arrival="1010.00" arrivalLane="nt16_np8_0" arrivalPos="75.00" arrivalSpeed="18.10" duration="887.00" routeLength="1333.57" waitingTime="702.00" waitingCount="19" stopTime="0.00" timeLoss="796.20" rerouteNo="0" devices="tripinfo_f_0_1.9" vType="type1" speedFactor="1.03" vaporized=""/>
    <tripinfo id="f_0_1.1" depart="14.00" departLane="np16_nt1_0" departPos="63.01" departSpeed="0.00" departDelay="0.36" arrival="1018.00" arrivalLane="nt16_np8_0" arrivalPos="75.00" arrivalSpeed="19.26" duration="1004.00" routeLength="1284.87" waitingTime="798.00" waitingCount="23" stopTime="0.00" timeLoss="917.12" rerouteNo="0" devices="tripinfo_f_0_1.1" vType="type1" speedFactor="1.04" vaporized=""/>
    <tripinfo id="f_0_3.10" depart="82.00" departLane="np3_nt3_0" departPos="38.12" departSpeed="0.00" departDelay="0.18" arrival="1038.00" arrivalLane="nt14_np11_0" arrivalPos="75.00" arrivalSpeed="10.13" duration="956.00" routeLength="912.97" waitingTime="822.00" waitingCount="10" stopTime="0.00" timeLoss="874.56" rerouteNo="0" devices="tripinfo_f_0_3.10" vType="type1" speedFactor="0.94" vaporized=""/>
    <tripinfo id="f_0_3.11" depart="90.00" departLane="np3_nt3_0" departPos="8.90" departSpeed="0.00" departDelay="0.00" arrival="1072.00" arrivalLane="nt14_np11_0" arrivalPos="75.00" arrivalSpeed="9.87" duration="982.00" routeLength="942.19" waitingTime="838.00" waitingCount="11" stopTime="0.00" timeLoss="904.09" rerouteNo="0" devices="tripinfo_f_0_3.11" vType="type1" speedFactor="1.02" vaporized=""/>
    <tripinfo id="f_0_3.12" depart="99.00" departLane="np3_nt3_0" departPos="0.23" departSpeed="0.00" departDelay="0.82" arrival="1074.00" arrivalLane="nt14_np11_0" arrivalPos="75.00" arrivalSpeed="10.61" duration="975.00" routeLength="950.86" waitingTime="829.00" waitingCount="11" stopTime="0.00" timeLoss="897.15" rerouteNo="0" devices="tripinfo_f_0_3.12" vType="type1" speedFactor="1.03" vaporized=""/>
    <tripinfo id="f_0_3.13" depart="107.00" departLane="np3_nt3_0" departPos="16.44" departSpeed="0.00" departDelay="0.63" arrival="1076.00" arrivalLane="nt14_np11_0" arrivalPos="75.00" arrivalSpeed="12.20" duration="969.00" routeLength="934.65" waitingTime="821.00" waitingCount="12" stopTime="0.00" timeLoss="899.05" rerouteNo="0" devices="tripinfo_f_0_3.13" vType="type1" speedFactor="1.13" vaporized=""/>
    <tripinfo id="f_0_3.14" depart="115.00" departLane="np3_nt3_0" departPos="60.57" departSpeed="0.00" departDelay="0.45" arrival="1078.00" arrivalLane="nt14_np11_0" arrivalPos="75.00" arrivalSpeed="10.27" duration="963.00" routeLength="890.52" waitingTime="810.00" waitingCount="13" stopTime="0.00" timeLoss="895.30" rerouteNo="0" devices="tripinfo_f_0_3.14" vType="type1" speedFactor="1.10" vaporized=""/>
    <tripinfo id="f_0_3.15" depart="123.00" departLane="np3_nt3_0" departPos="55.50" departSpeed="0.00" departDelay="0.27" arrival="1080.00" arrivalLane="nt14_np11_0" arrivalPos="75.00" arrivalSpeed="10.87" duration="957.00" routeLength="895.59" waitingTime="801.00" waitingCount="15" stopTime="0.00" timeLoss="894.34" rerouteNo="0" devices="tripinfo_f_0_3.15" vType="type1" speedFactor="1.20" vaporized=""/>
    <tripinfo id="f_0_3.16" depart="131.00" departLane="np3_nt3_0" departPos="59.93" departSpeed="0.00" departDelay="0.09" arrival="1082.00" arrivalLane="nt14_np11_0" arrivalPos="75.00" arrivalSpeed="9.68" duration="951.00" routeLength="891.16" waitingTime="783.00" waitingCount="14" stopTime="0.00" timeLoss="883.08" rerouteNo="0" devices="tripinfo_f_0_3.16" vType="type1" speedFactor="1.10" vaporized=""/>
    <tripinfo id="f_0_1.10" depart="137.00" departLane="np16_nt1_0" departPos="26.38" departSpeed="0.00" departDelay="0.64" arrival="1083.00" arrivalLane="nt16_np8_0" arrivalPos="75.00" arrivalSpeed="19.90" duration="946.00" routeLength="1321.50" waitingTime="752.00" waitingCount="22" stopTime="0.00" timeLoss="862.83" rerouteNo="0" devices="tripinfo_f_0_1.10" vType="type1" speedFactor="1.10" vaporized=""/>
    <tripinfo id="f_0_1.2" depart="28.00" departLane="np16_nt1_0" departPos="65.60" departSpeed="0.00" departDelay="0.73" arrival="1085.00" arrivalLane="nt16_np8_0" arrivalPos="75.00" arrivalSpeed="17.81" duration="1057.00" routeLength="1282.28" waitingTime="826.00" waitingCount="23" stopTime="0.00" timeLoss="966.70" rerouteNo="0" devices="tripinfo_f_0_1.2" vType="type1" speedFactor="1.00" vaporized=""/>
    <tripinfo id="f_0_3.17" depart="140.00" departLane="np3_nt3_0" departPos="13.72" departSpeed="0.00" departDelay="0.91" arrival="1087.00" arrivalLane="nt14_np11_0" arrivalPos="75.00" arrivalSpeed="9.23" duration="947.00" routeLength="937.37" waitingTime="752.00" waitingCount="14" stopTime="0.00" timeLoss="853.57" rerouteNo="0" devices="tripinfo_f_0_3.17" vType="type1" speedFactor="0.85" vaporized=""/>
    <tripinfo id="f_0_3.18" depart="148.00" departLane="np3_nt3_0" departPos="35.06" departSpeed="0.00" departDelay="0.72" arrival="1088.00" arrivalLane="nt14_np11_0" arrivalPos="75.00" arrivalSpeed="11.39" duration="940.00" routeLength="916.03" waitingTime="756.00" waitingCount="14" stopTime="0.00" timeLoss="876.25" rerouteNo="0" devices="tripinfo_f_0_3.18" vType="type1" speedFactor="1.19" vaporized=""/>
    <tripinfo id="f_0_3.19" depart="156.00" departLane="np3_nt3_0" departPos="57.98" departSpeed="0.00" departDelay="0.54" arrival="1090.00" arrivalLane="nt14_np11_0" arrivalPos="75.00" arrivalSpeed="10.56" duration="934.00" routeLength="893.11" waitingTime="746.00" waitingCount="14" stopTime="0.00" timeLoss="866.35" rerouteNo="0" devices="tripinfo_f_0_3.19" vType="type1" speedFactor="1.11" vaporized=""/>
    <tripinfo id="f_0_3.20" depart="164.00" departLane="np3_nt3_0" departPos="27.51" departSpeed="0.00" departDelay="0.36" arrival="1104.00" arrivalLane="nt14_np11_0" arrivalPos="75.00" arrivalSpeed="11.74" duration="940.00" routeLength="923.58" waitingTime="757.00" waitingCount="15" stopTime="0.00" timeLoss="872.07" rerouteNo="0" devices="tripinfo_f_0_3.20" vType="type1" speedFactor="1.14" vaporized=""/>
    <tripinfo id="f_0_3.21" depart="172.00" departLane="np3_nt3_0" departPos="10.69" departSpeed="0.00" departDelay="0.18" arrival="1132.00" arrivalLane="nt14_np11_0" arrivalPos="75.00" arrivalSpeed="11.42" duration="960.00" routeLength="940.40" waitingTime="766.00" waitingCount="15" stopTime="0.00" timeLoss="885.17" rerouteNo="0" devices="tripinfo_f_0_3.21" vType="type1" speedFactor="1.06" vaporized=""/>
    <tripinfo id="f_0_0.18" depart="246.00" departLane="np13_nt13_0" departPos="59.14" departSpeed="0.00" departDelay="0.55" arrival="1134.00" arrivalLane="nt4_np5_0" arrivalPos="75.00" arrivalSpeed="15.00" duration="888.00" routeLength="1288.75" waitingTime="684.00" waitingCount="14" stopTime="0.00" timeLoss="783.92" rerouteNo="0" devices="tripinfo_f_0_0.18" vType="type1" speedFactor="0.87" vaporized=""/>
    <tripinfo id="f_3_6.0" depart="900.00" departLane="np10_nt15_0" departPos="68.51" departSpeed="0.00" departDelay="0.00" arrival="1172.00" arrivalLane="nt2_np2_0" arrivalPos="64.60" arrivalSpeed="9.06" duration="272.00" routeLength="882.57" waitingTime="168.00" waitingCount="4" stopTime="0.00" timeLoss="193.00" rerouteNo="0" devices="tripinfo_f_3_6.0" vType="type1" speedFactor="0.93" vaporized=""/>
    <tripinfo id="f_3_6.1" depart="913.00" departLane="np10_nt15_0" departPos="36.48" departSpeed="0.00" departDelay="0.00" arrival="1174.00" arrivalLane="nt2_np2_0" arrivalPos="64.60" arrivalSpeed="10.91" duration="261.00" routeLength="914.60" waitingTime="157.00" waitingCount="5" stopTime="0.00" timeLoss="187.87" rerouteNo="0" devices="tripinfo_f_3_6.1" vType="type1" speedFactor="1.05" vaporized=""/>
    <tripinfo id="f_3_5.0" depart="900.00" departLane="np8_nt16_0" departPos="14.64" departSpeed="0.00" departDelay="0.00" arrival="1177.00" arrivalLane="nt1_np16_0" arrivalPos="67.80" arrivalSpeed="18.87" duration="277.00" routeLength="1333.24" waitingTime="152.00" waitingCount="5" stopTime="0.00" timeLoss="182.66" rerouteNo="0" devices="tripinfo_f_3_5.0" vType="type1" speedFactor="0.98" vaporized=""/>
    <tripinfo id="f_3_6.2" depart="926.00" departLane="np10_nt15_0" departPos="30.67" departSpeed="0.00" departDelay="0.01" arrival="1177.00" arrivalLane="nt2_np2_0" arrivalPos="64.60" arrivalSpeed="9.03" duration="251.00" routeLength="920.41" waitingTime="132.00" waitingCount="4" stopTime="0.00" timeLoss="163.00" rerouteNo="0" devices="tripinfo_f_3_6.2" vType="type1" speedFactor="0.88" vaporized=""/>
    <tripinfo id="f_3_6.3" depart="939.00" departLane="np10_nt15_0" departPos="20.28" departSpeed="0.00" departDelay="0.01" arrival="1179.00" arrivalLane="nt2_np2_0" arrivalPos="64.60" arrivalSpeed="9.83" duration="240.00" routeLength="930.80" waitingTime="123.00" waitingCount="6" stopTime="0.00" timeLoss="163.13" rerouteNo="0" devices="tripinfo_f_3_6.3" vType="type1" speedFactor="1.02" vaporized=""/>
    <tripinfo id="f_3_6.4" depart="952.00" departLane="np10_nt15_0" departPos="72.05" departSpeed="0.00" departDelay="0.02" arrival="1180.00" arrivalLane="nt2_np2_0" arrivalPos="64.60" arrivalSpeed="11.34" duration="228.00" routeLength="879.03" waitingTime="123.00" waitingCount="7" stopTime="0.00" timeLoss="159.07" rerouteNo="0" devices="tripinfo_f_3_6.4" vType="type1" speedFactor="1.06" vaporized=""/>
    <tripinfo id="f_3_6.5" depart="965.00" departLane="np10_nt15_0" departPos="34.38" departSpeed="0.00" departDelay="0.02" arrival="1182.00" arrivalLane="nt2_np2_0" arrivalPos="64.60" arrivalSpeed="9.48" duration="217.00" routeLength="916.70" waitingTime="107.00" waitingCount="6" stopTime="0.00" timeLoss="143.04" rerouteNo="0" devices="tripinfo_f_3_6.5" vType="type1" speedFactor="1.04" vaporized=""/>
    <tripinfo id="f_0_3.22" depart="180.00" departLane="np3_nt3_0" departPos="41.41" departSpeed="0.00" departDelay="0.00" arrival="1238.00" arrivalLane="nt14_np11_0" arrivalPos="75.00" arrivalSpeed="9.80" duration="1058.00" routeLength="909.68" waitingTime="854.00" waitingCount="17" stopTime="0.00" timeLoss="977.66" rerouteNo="0" devices="tripinfo_f_0_3.22" vType="type1" speedFactor="0.95" vaporized=""/>
    <tripinfo id="f_0_0.19" depart="260.00" departLane="np13_nt13_0" departPos="18.92" departSpeed="0.00" departDelay="0.92" arrival="1256.00" arrivalLane="nt4_np5_0" arrivalPos="75.00" arrivalSpeed="17.37" duration="996.00" routeLength="1328.97" waitingTime="803.00" waitingCount="13" stopTime="0.00" timeLoss="902.58" rerouteNo="0" devices="tripinfo_f_0_0.19" vType="type1" speedFactor="0.99" vaporized=""/>
    <tripinfo id="f_0_3.23" depart="189.00" departLane="np3_nt3_0" departPos="17.24" departSpeed="0.00" departDelay="0.81" arrival="1273.00" arrivalLane="nt14_np11_0" arrivalPos="75.00" arrivalSpeed="10.29" duration="1084.00" routeLength="933.85" waitingTime="874.00" waitingCount="15" stopTime="0.00" timeLoss="1005.77" rerouteNo="0" devices="tripinfo_f_0_3.23" vType="type1" speedFactor="1.01" vaporized=""/>
    <tripinfo id="f_3_6.6" depart="978.00" departLane="np10_nt15_0" departPos="54.81" departSpeed="0.00" departDelay="0.02" arrival="1279.00" arrivalLane="nt2_np2_0" arrivalPos="64.60" arrivalSpeed="7.99" duration="301.00" routeLength="896.27" waitingTime="172.00" waitingCount="8" stopTime="0.00" timeLoss="220.85" rerouteNo="0" devices="tripinfo_f_3_6.6" vType="type1" speedFactor="0.94" vaporized=""/>