<?xml version="1.0" encoding="UTF-8"?>

<!-- generated on 2023-08-30 18:06:56 by Eclipse SUMO libsumo Version 1.18.0
<configuration xmlns:xsi="http://www.w3.org/2001/XMLSchema-instance" xsi:noNamespaceSchemaLocation="http://sumo.dlr.de/xsd/libsumoConfiguration.xsd">

    <input>
        <net-file value="/home/stefan/RESCO/./environments/arterial4x4/arterial4x4.net.xml"/>
        <route-files value="/home/stefan/RESCO/./environments/arterial4x4/arterial4x4_15.rou.xml"/>
    </input>

    <output>
        <tripinfo-output value="/home/stefan/results/RAINBOW-tr0-arterial4x4-0-drq_norm-wait_norm/tripinfo_15.xml"/>
        <tripinfo-output.write-unfinished value="true"/>
    </output>

    <processing>
        <time-to-teleport value="-1"/>
    </processing>

    <report>
        <no-warnings value="True"/>
        <no-step-log value="True"/>
    </report>

    <random_number>
        <random value="true"/>
    </random_number>

</configuration>
-->

<tripinfos xmlns:xsi="http://www.w3.org/2001/XMLSchema-instance" xsi:noNamespaceSchemaLocation="http://sumo.dlr.de/xsd/tripinfo_file.xsd">
    <tripinfo id="f_0_2.0" depart="0.00" departLane="np2_nt2_0" departPos="55.86" departSpeed="0.00" departDelay="0.00" arrival="127.00" arrivalLane="nt15_np10_0" arrivalPos="75.00" arrivalSpeed="9.29" duration="127.00" routeLength="895.22" waitingTime="29.00" waitingCount="3" stopTime="0.00" timeLoss="53.21" rerouteNo="0" devices="tripinfo_f_0_2.0" vType="type1" speedFactor="1.02" vaporized=""/>
    <tripinfo id="f_0_3.0" depart="0.00" departLane="np3_nt3_0" departPos="29.17" departSpeed="0.00" departDelay="0.00" arrival="128.00" arrivalLane="nt14_np11_0" arrivalPos="75.00" arrivalSpeed="10.43" duration="128.00" routeLength="921.92" waitingTime="20.00" waitingCount="3" stopTime="0.00" timeLoss="50.44" rerouteNo="0" devices="tripinfo_f_0_3.0" vType="type1" speedFactor="1.00" vaporized=""/>
    <tripinfo id="f_0_0.0" depart="0.00" departLane="np13_nt13_0" departPos="50.68" departSpeed="0.00" departDelay="0.00" arrival="139.00" arrivalLane="nt4_np5_0" arrivalPos="75.00" arrivalSpeed="20.32" duration="139.00" routeLength="1297.21" waitingTime="22.00" waitingCount="3" stopTime="0.00" timeLoss="55.07" rerouteNo="0" devices="tripinfo_f_0_0.0" vType="type1" speedFactor="1.09" vaporized=""/>
    <tripinfo id="f_0_3.1" depart="9.00" departLane="np3_nt3_0" departPos="32.13" departSpeed="0.00" departDelay="0.82" arrival="187.00" arrivalLane="nt14_np11_0" arrivalPos="75.00" arrivalSpeed="9.73" duration="178.00" routeLength="918.96" waitingTime="74.00" waitingCount="5" stopTime="0.00" timeLoss="107.49" rerouteNo="0" devices="tripinfo_f_0_3.1" vType="type1" speedFactor="1.09" vaporized=""/>
    <tripinfo id="f_0_2.1" depart="9.00" departLane="np2_nt2_0" departPos="36.70" departSpeed="0.00" departDelay="0.82" arrival="189.00" arrivalLane="nt15_np10_0" arrivalPos="75.00" arrivalSpeed="9.40" duration="180.00" routeLength="914.38" waitingTime="66.00" waitingCount="4" stopTime="0.00" timeLoss="93.59" rerouteNo="0" devices="tripinfo_f_0_2.1" vType="type1" speedFactor="0.89" vaporized=""/>
    <tripinfo id="f_0_0.1" depart="14.00" departLane="np13_nt13_0" departPos="14.94" departSpeed="0.00" departDelay="0.36" arrival="194.00" arrivalLane="nt4_np5_0" arrivalPos="75.00" arrivalSpeed="22.76" duration="180.00" routeLength="1332.95" waitingTime="77.00" waitingCount="3" stopTime="0.00" timeLoss="99.74" rerouteNo="0" devices="tripinfo_f_0_0.1" vType="type1" speedFactor="1.16" vaporized=""/>
    <tripinfo id="f_0_3.2" depart="17.00" departLane="np3_nt3_0" departPos="36.10" departSpeed="0.00" departDelay="0.64" arrival="207.00" arrivalLane="nt14_np11_0" arrivalPos="75.00" arrivalSpeed="9.64" duration="190.00" routeLength="914.99" waitingTime="88.00" waitingCount="5" stopTime="0.00" timeLoss="116.71" rerouteNo="0" devices="tripinfo_f_0_3.2" vType="type1" speedFactor="1.05" vaporized=""/>
    <tripinfo id="f_0_2.2" depart="17.00" departLane="np2_nt2_0" departPos="24.39" departSpeed="0.00" departDelay="0.64" arrival="212.00" arrivalLane="nt15_np10_0" arrivalPos="75.00" arrivalSpeed="9.32" duration="195.00" routeLength="926.69" waitingTime="88.00" waitingCount="5" stopTime="0.00" timeLoss="117.98" rerouteNo="0" devices="tripinfo_f_0_2.2" vType="type1" speedFactor="1.01" vaporized=""/>
    <tripinfo id="f_0_0.2" depart="28.00" departLane="np13_nt13_0" departPos="37.64" departSpeed="0.00" departDelay="0.73" arrival="244.00" arrivalLane="nt4_np5_0" arrivalPos="75.00" arrivalSpeed="16.61" duration="216.00" routeLength="1310.25" waitingTime="85.00" waitingCount="6" stopTime="0.00" timeLoss="118.29" rerouteNo="0" devices="tripinfo_f_0_0.2" vType="type1" speedFactor="0.94" vaporized=""/>
    <tripinfo id="f_0_0.3" depart="41.00" departLane="np13_nt13_0" departPos="23.55" departSpeed="0.00" departDelay="0.09" arrival="246.00" arrivalLane="nt4_np5_0" arrivalPos="75.00" arrivalSpeed="16.34" duration="205.00" routeLength="1324.34" waitingTime="74.00" waitingCount="5" stopTime="0.00" timeLoss="103.54" rerouteNo="0" devices="tripinfo_f_0_0.3" vType="type1" speedFactor="0.91" vaporized=""/>
    <tripinfo id="f_0_1.0" depart="0.00" departLane="np16_nt1_0" departPos="50.23" departSpeed="0.00" departDelay="0.00" arrival="258.00" arrivalLane="nt16_np8_0" arrivalPos="75.00" arrivalSpeed="20.32" duration="258.00" routeLength="1297.65" waitingTime="124.00" waitingCount="9" stopTime="0.00" timeLoss="175.79" rerouteNo="0" devices="tripinfo_f_0_1.0" vType="type1" speedFactor="1.11" vaporized=""/>
    <tripinfo id="f_0_0.4" depart="55.00" departLane="np13_nt13_0" departPos="9.36" departSpeed="0.00" departDelay="0.46" arrival="259.00" arrivalLane="nt4_np5_0" arrivalPos="75.00" arrivalSpeed="16.84" duration="204.00" routeLength="1338.53" waitingTime="61.00" waitingCount="6" stopTime="0.00" timeLoss="98.13" rerouteNo="0" devices="tripinfo_f_0_0.4" vType="type1" speedFactor="0.88" vaporized=""/>
    <tripinfo id="f_0_1.1" depart="14.00" departLane="np16_nt1_0" departPos="11.51" departSpeed="0.00" departDelay="0.36" arrival="260.00" arrivalLane="nt16_np8_0" arrivalPos="75.00" arrivalSpeed="15.63" duration="246.00" routeLength="1336.37" waitingTime="92.00" waitingCount="8" stopTime="0.00" timeLoss="141.89" rerouteNo="0" devices="tripinfo_f_0_1.1" vType="type1" speedFactor="0.89" vaporized=""/>
    <tripinfo id="f_0_0.5" depart="69.00" departLane="np13_nt13_0" departPos="48.03" departSpeed="0.00" departDelay="0.82" arrival="260.00" arrivalLane="nt4_np5_0" arrivalPos="75.00" arrivalSpeed="20.58" duration="191.00" routeLength="1299.86" waitingTime="73.00" waitingCount="4" stopTime="0.00" timeLoss="104.51" rerouteNo="0" devices="tripinfo_f_0_0.5" vType="type1" speedFactor="1.05" vaporized=""/>
    <tripinfo id="f_0_3.3" depart="25.00" departLane="np3_nt3_0" departPos="48.56" departSpeed="0.00" departDelay="0.45" arrival="276.00" arrivalLane="nt14_np11_0" arrivalPos="75.00" arrivalSpeed="10.43" duration="251.00" routeLength="902.53" waitingTime="145.00" waitingCount="8" stopTime="0.00" timeLoss="181.54" rerouteNo="0" devices="tripinfo_f_0_3.3" vType="type1" speedFactor="1.08" vaporized=""/>
    <tripinfo id="f_0_0.6" depart="82.00" departLane="np13_nt13_0" departPos="17.99" departSpeed="0.00" departDelay="0.18" arrival="276.00" arrivalLane="nt4_np5_0" arrivalPos="75.00" arrivalSpeed="17.74" duration="194.00" routeLength="1329.90" waitingTime="73.00" waitingCount="4" stopTime="0.00" timeLoss="97.95" rerouteNo="0" devices="tripinfo_f_0_0.6" vType="type1" speedFactor="0.96" vaporized=""/>
    <tripinfo id="f_0_3.4" depart="33.00" departLane="np3_nt3_0" departPos="12.33" departSpeed="0.00" departDelay="0.27" arrival="279.00" arrivalLane="nt14_np11_0" arrivalPos="75.00" arrivalSpeed="9.50" duration="246.00" routeLength="938.76" waitingTime="131.00" waitingCount="7" stopTime="0.00" timeLoss="171.07" rerouteNo="0" devices="tripinfo_f_0_3.4" vType="type1" speedFactor="1.05" vaporized=""/>
    <tripinfo id="f_0_3.5" depart="41.00" departLane="np3_nt3_0" departPos="23.36" departSpeed="0.00" departDelay="0.09" arrival="292.00" arrivalLane="nt14_np11_0" arrivalPos="75.00" arrivalSpeed="11.80" duration="251.00" routeLength="927.73" waitingTime="130.00" waitingCount="8" stopTime="0.00" timeLoss="179.48" rerouteNo="0" devices="tripinfo_f_0_3.5" vType="type1" speedFactor="1.09" vaporized=""/>
    <tripinfo id="f_0_3.6" depart="50.00" departLane="np3_nt3_0" departPos="9.82" departSpeed="0.00" departDelay="0.91" arrival="302.00" arrivalLane="nt14_np11_0" arrivalPos="75.00" arrivalSpeed="11.11" duration="252.00" routeLength="941.27" waitingTime="125.00" waitingCount="9" stopTime="0.00" timeLoss="173.91" rerouteNo="0" devices="tripinfo_f_0_3.6" vType="type1" speedFactor="1.01" vaporized=""/>
    <tripinfo id="f_0_3.7" depart="58.00" departLane="np3_nt3_0" departPos="13.93" departSpeed="0.00" departDelay="0.73" arrival="306.00" arrivalLane="nt14_np11_0" arrivalPos="75.00" arrivalSpeed="7.73" duration="248.00" routeLength="937.16" waitingTime="116.00" waitingCount="8" stopTime="0.00" timeLoss="158.05" rerouteNo="0" devices="tripinfo_f_0_3.7" vType="type1" speedFactor="0.88" vaporized=""/>
    <tripinfo id="f_0_0.7" depart="96.00" departLane="np13_nt13_0" departPos="25.56" departSpeed="0.00" departDelay="0.55" arrival="306.00" arrivalLane="nt4_np5_0" arrivalPos="75.00" arrivalSpeed="16.56" duration="210.00" routeLength="1322.33" waitingTime="73.00" waitingCount="6" stopTime="0.00" timeLoss="110.38" rerouteNo="0" devices="tripinfo_f_0_0.7" vType="type1" speedFactor="0.92" vaporized=""/>
    <tripinfo id="f_0_0.8" depart="110.00" departLane="np13_nt13_0" departPos="30.12" departSpeed="0.00" departDelay="0.91" arrival="308.00" arrivalLane="nt4_np5_0" arrivalPos="75.00" arrivalSpeed="21.45" duration="198.00" routeLength="1317.77" waitingTime="64.00" waitingCount="5" stopTime="0.00" timeLoss="113.62" rerouteNo="0" devices="tripinfo_f_0_0.8" vType="type1" speedFactor="1.09" vaporized=""/>
    <tripinfo id="f_0_3.8" depart="66.00" departLane="np3_nt3_0" departPos="24.85" departSpeed="0.00" departDelay="0.54" arrival="310.00" arrivalLane="nt14_np11_0" arrivalPos="75.00" arrivalSpeed="13.04" duration="244.00" routeLength="926.24" waitingTime="112.00" waitingCount="10" stopTime="0.00" timeLoss="183.53" rerouteNo="0" devices="tripinfo_f_0_3.8" vType="type1" speedFactor="1.29" vaporized=""/>
    <tripinfo id="f_0_2.3" depart="25.00" departLane="np2_nt2_0" departPos="40.72" departSpeed="0.00" departDelay="0.45" arrival="312.00" arrivalLane="nt15_np10_0" arrivalPos="75.00" arrivalSpeed="9.99" duration="287.00" routeLength="910.36" waitingTime="158.00" waitingCount="7" stopTime="0.00" timeLoss="206.65" rerouteNo="0" devices="tripinfo_f_0_2.3" vType="type1" speedFactor="0.95" vaporized=""/>
    <tripinfo id="f_0_2.4" depart="33.00" departLane="np2_nt2_0" departPos="56.39" departSpeed="0.00" departDelay="0.27" arrival="333.00" arrivalLane="nt15_np10_0" arrivalPos="75.00" arrivalSpeed="8.70" duration="300.00" routeLength="894.69" waitingTime="170.00" waitingCount="10" stopTime="0.00" timeLoss="225.10" rerouteNo="0" devices="tripinfo_f_0_2.4" vType="type1" speedFactor="1.00" vaporized=""/>
    <tripinfo id="f_0_1.2" depart="28.00" departLane="np16_nt1_0" departPos="61.76" departSpeed="0.00" departDelay="0.73" arrival="334.00" arrivalLane="nt16_np8_0" arrivalPos="75.00" arrivalSpeed="19.55" duration="306.00" routeLength="1286.12" waitingTime="152.00" waitingCount="12" stopTime="0.00" timeLoss="214.76" rerouteNo="0" devices="tripinfo_f_0_1.2" vType="type1" speedFactor="0.99" vaporized=""/>
    <tripinfo id="f_0_2.5" depart="41.00" departLane="np2_nt2_0" departPos="37.96" departSpeed="0.00" departDelay="0.09" arrival="335.00" arrivalLane="nt15_np10_0" arrivalPos="75.00" arrivalSpeed="10.11" duration="294.00" routeLength="913.12" waitingTime="153.00" waitingCount="10" stopTime="0.00" timeLoss="213.32" rerouteNo="0" devices="tripinfo_f_0_2.5" vType="type1" speedFactor="0.95" vaporized=""/>
    <tripinfo id="f_0_3.9" depart="74.00" departLane="np3_nt3_0" departPos="6.38" departSpeed="0.00" departDelay="0.36" arrival="366.00" arrivalLane="nt14_np11_0" arrivalPos="75.00" arrivalSpeed="11.61" duration="292.00" routeLength="944.71" waitingTime="181.00" waitingCount="7" stopTime="0.00" timeLoss="219.55" rerouteNo="0" devices="tripinfo_f_0_3.9" vType="type1" speedFactor="1.09" vaporized=""/>
    <tripinfo id="f_0_3.10" depart="82.00" departLane="np3_nt3_0" departPos="6.00" departSpeed="0.00" departDelay="0.18" arrival="368.00" arrivalLane="nt14_np11_0" arrivalPos="75.00" arrivalSpeed="11.40" duration="286.00" routeLength="945.09" waitingTime="175.00" waitingCount="8" stopTime="0.00" timeLoss="212.87" rerouteNo="0" devices="tripinfo_f_0_3.10" vType="type1" speedFactor="1.09" vaporized=""/>
    <tripinfo id="f_0_2.6" depart="50.00" departLane="np2_nt2_0" departPos="20.07" departSpeed="0.00" departDelay="0.91" arrival="369.00" arrivalLane="nt15_np10_0" arrivalPos="75.00" arrivalSpeed="7.18" duration="319.00" routeLength="931.01" waitingTime="166.00" waitingCount="12" stopTime="0.00" timeLoss="227.29" rerouteNo="0" devices="tripinfo_f_0_2.6" vType="type1" speedFactor="0.86" vaporized=""/>
    <tripinfo id="f_0_0.9" depart="123.00" departLane="np13_nt13_0" departPos="4.50" departSpeed="0.00" departDelay="0.28" arrival="371.00" arrivalLane="nt4_np5_0" arrivalPos="75.00" arrivalSpeed="17.61" duration="248.00" routeLength="1343.39" waitingTime="115.00" waitingCount="6" stopTime="0.00" timeLoss="150.72" rerouteNo="0" devices="tripinfo_f_0_0.9" vType="type1" speedFactor="0.95" vaporized=""/>
    <tripinfo id="f_0_1.3" depart="41.00" departLane="np16_nt1_0" departPos="51.35" departSpeed="0.00" departDelay="0.09" arrival="382.00" arrivalLane="nt16_np8_0" arrivalPos="75.00" arrivalSpeed="16.25" duration="341.00" routeLength="1296.53" waitingTime="157.00" waitingCount="12" stopTime="0.00" timeLoss="241.32" rerouteNo="0" devices="tripinfo_f_0_1.3" vType="type1" speedFactor="0.92" vaporized=""/>
    <tripinfo id="f_0_1.4" depart="55.00" departLane="np16_nt1_0" departPos="30.12" departSpeed="0.00" departDelay="0.46" arrival="385.00" arrivalLane="nt16_np8_0" arrivalPos="75.00" arrivalSpeed="19.09" duration="330.00" routeLength="1317.76" waitingTime="151.00" waitingCount="12" stopTime="0.00" timeLoss="241.97" rerouteNo="0" devices="tripinfo_f_0_1.4" vType="type1" speedFactor="1.04" vaporized=""/>
    <tripinfo id="f_0_0.10" depart="137.00" departLane="np13_nt13_0" departPos="0.48" departSpeed="0.00" departDelay="0.64" arrival="387.00" arrivalLane="nt4_np5_0" arrivalPos="75.00" arrivalSpeed="17.94" duration="250.00" routeLength="1347.41" waitingTime="112.00" waitingCount="5" stopTime="0.00" timeLoss="147.13" rerouteNo="0" devices="tripinfo_f_0_0.10" vType="type1" speedFactor="0.90" vaporized=""/>
    <tripinfo id="f_0_3.11" depart="90.00" departLane="np3_nt3_0" departPos="18.10" departSpeed="0.00" departDelay="0.00" arrival="399.00" arrivalLane="nt14_np11_0" arrivalPos="75.00" arrivalSpeed="9.00" duration="309.00" routeLength="932.99" waitingTime="172.00" waitingCount="7" stopTime="0.00" timeLoss="220.70" rerouteNo="0" devices="tripinfo_f_0_3.11" vType="type1" speedFactor="0.89" vaporized=""/>
    <tripinfo id="f_0_3.12" depart="99.00" departLane="np3_nt3_0" departPos="0.32" departSpeed="0.00" departDelay="0.82" arrival="401.00" arrivalLane="nt14_np11_0" arrivalPos="75.00" arrivalSpeed="10.22" duration="302.00" routeLength="950.77" waitingTime="157.00" waitingCount="7" stopTime="0.00" timeLoss="217.08" rerouteNo="0" devices="tripinfo_f_0_3.12" vType="type1" speedFactor="0.95" vaporized=""/>
    <tripinfo id="f_0_2.7" depart="58.00" departLane="np2_nt2_0" departPos="43.61" departSpeed="0.00" departDelay="0.73" arrival="407.00" arrivalLane="nt15_np10_0" arrivalPos="75.00" arrivalSpeed="8.71" duration="349.00" routeLength="907.47" waitingTime="171.00" waitingCount="13" stopTime="0.00" timeLoss="273.09" rerouteNo="0" devices="tripinfo_f_0_2.7" vType="type1" speedFactor="1.01" vaporized=""/>
    <tripinfo id="f_0_0.11" depart="150.00" departLane="np13_nt13_0" departPos="25.05" departSpeed="0.00" departDelay="0.00" arrival="409.00" arrivalLane="nt4_np5_0" arrivalPos="75.00" arrivalSpeed="17.68" duration="259.00" routeLength="1322.84" waitingTime="112.00" waitingCount="7" stopTime="0.00" timeLoss="156.79" rerouteNo="0" devices="tripinfo_f_0_0.11" vType="type1" speedFactor="0.91" vaporized=""/>
    <tripinfo id="f_0_3.13" depart="107.00" departLane="np3_nt3_0" departPos="10.17" departSpeed="0.00" departDelay="0.63" arrival="416.00" arrivalLane="nt14_np11_0" arrivalPos="75.00" arrivalSpeed="11.27" duration="309.00" routeLength="940.92" waitingTime="178.00" waitingCount="7" stopTime="0.00" timeLoss="235.43" rerouteNo="0" devices="tripinfo_f_0_3.13" vType="type1" speedFactor="1.07" vaporized=""/>
    <tripinfo id="f_0_2.8" depart="66.00" departLane="np2_nt2_0" departPos="46.92" departSpeed="0.00" departDelay="0.54" arrival="428.00" arrivalLane="nt15_np10_0" arrivalPos="75.00" arrivalSpeed="8.54" duration="362.00" routeLength="904.16" waitingTime="180.00" waitingCount="15" stopTime="0.00" timeLoss="284.16" rerouteNo="0" devices="tripinfo_f_0_2.8" vType="type1" speedFactor="0.97" vaporized=""/>
    <tripinfo id="f_0_3.14" depart="115.00" departLane="np3_nt3_0" departPos="0.00" departSpeed="0.00" departDelay="0.45" arrival="431.00" arrivalLane="nt14_np11_0" arrivalPos="75.00" arrivalSpeed="11.11" duration="316.00" routeLength="951.09" waitingTime="185.00" waitingCount="9" stopTime="0.00" timeLoss="245.27" rerouteNo="0" devices="tripinfo_f_0_3.14" vType="type1" speedFactor="1.13" vaporized=""/>
    <tripinfo id="f_0_3.15" depart="123.00" departLane="np3_nt3_0" departPos="0.00" departSpeed="0.00" departDelay="0.27" arrival="434.00" arrivalLane="nt14_np11_0" arrivalPos="75.00" arrivalSpeed="9.82" duration="311.00" routeLength="951.09" waitingTime="181.00" waitingCount="8" stopTime="0.00" timeLoss="234.30" rerouteNo="0" devices="tripinfo_f_0_3.15" vType="type1" speedFactor="1.04" vaporized=""/>
    <tripinfo id="f_0_0.12" depart="164.00" departLane="np13_nt13_0" departPos="5.35" departSpeed="0.00" departDelay="0.37" arrival="443.00" arrivalLane="nt4_np5_0" arrivalPos="75.00" arrivalSpeed="18.48" duration="279.00" routeLength="1342.54" waitingTime="130.00" waitingCount="9" stopTime="0.00" timeLoss="185.75" rerouteNo="0" devices="tripinfo_f_0_0.12" vType="type1" speedFactor="1.00" vaporized=""/>
    <tripinfo id="f_0_0.13" depart="178.00" departLane="np13_nt13_0" departPos="13.41" departSpeed="0.00" departDelay="0.73" arrival="445.00" arrivalLane="nt4_np5_0" arrivalPos="75.00" arrivalSpeed="21.44" duration="267.00" routeLength="1334.48" waitingTime="116.00" waitingCount="10" stopTime="0.00" timeLoss="181.58" rerouteNo="0" devices="tripinfo_f_0_0.13" vType="type1" speedFactor="1.09" vaporized=""/>
    <tripinfo id="f_0_2.9" depart="74.00" departLane="np2_nt2_0" departPos="3.14" departSpeed="0.00" departDelay="0.36" arrival="452.00" arrivalLane="nt15_np10_0" arrivalPos="75.00" arrivalSpeed="11.24" duration="378.00" routeLength="947.94" waitingTime="185.00" waitingCount="13" stopTime="0.00" timeLoss="302.32" rerouteNo="0" devices="tripinfo_f_0_2.9" vType="type1" speedFactor="1.06" vaporized=""/>
    <tripinfo id="f_0_3.16" depart="132.00" departLane="np3_nt3_0" departPos="0.00" departSpeed="0.00" departDelay="1.09" arrival="467.00" arrivalLane="nt14_np11_0" arrivalPos="75.00" arrivalSpeed="9.91" duration="335.00" routeLength="951.09" waitingTime="207.00" waitingCount="10" stopTime="0.00" timeLoss="259.87" rerouteNo="0" devices="tripinfo_f_0_3.16" vType="type1" speedFactor="1.06" vaporized=""/>
    <tripinfo id="f_0_2.10" depart="82.00" departLane="np2_nt2_0" departPos="22.54" departSpeed="0.00" departDelay="0.18" arrival="472.00" arrivalLane="nt15_np10_0" arrivalPos="75.00" arrivalSpeed="10.47" duration="390.00" routeLength="928.54" waitingTime="190.00" waitingCount="15" stopTime="0.00" timeLoss="318.70" rerouteNo="0" devices="tripinfo_f_0_2.10" vType="type1" speedFactor="1.10" vaporized=""/>
    <tripinfo id="f_0_0.14" depart="191.00" departLane="np13_nt13_0" departPos="41.70" departSpeed="0.00" departDelay="0.10" arrival="472.00" arrivalLane="nt4_np5_0" arrivalPos="75.00" arrivalSpeed="16.97" duration="281.00" routeLength="1306.19" waitingTime="129.00" waitingCount="8" stopTime="0.00" timeLoss="184.18" rerouteNo="0" devices="tripinfo_f_0_0.14" vType="type1" speedFactor="0.94" vaporized=""/>
    <tripinfo id="f_0_3.17" depart="140.00" departLane="np3_nt3_0" departPos="0.00" departSpeed="0.00" departDelay="0.91" arrival="481.00" arrivalLane="nt14_np11_0" arrivalPos="75.00" arrivalSpeed="11.69" duration="341.00" routeLength="951.09" waitingTime="204.00" waitingCount="12" stopTime="0.00" timeLoss="268.10" rerouteNo="0" devices="tripinfo_f_0_3.17" vType="type1" speedFactor="1.09" vaporized=""/>
    <tripinfo id="f_0_1.5" depart="69.00" departLane="np16_nt1_0" departPos="12.26" departSpeed="0.00" departDelay="0.82" arrival="483.00" arrivalLane="nt16_np8_0" arrivalPos="75.00" arrivalSpeed="18.76" duration="414.00" routeLength="1335.62" waitingTime="186.00" waitingCount="15" stopTime="0.00" timeLoss="316.32" rerouteNo="0" devices="tripinfo_f_0_1.5" vType="type1" speedFactor="0.96" vaporized=""/>
    <tripinfo id="f_0_1.10" depart="137.00" departLane="np16_nt1_0" departPos="30.72" departSpeed="0.00" departDelay="0.64" arrival="486.00" arrivalLane="nt16_np8_0" arrivalPos="75.00" arrivalSpeed="22.14" duration="349.00" routeLength="1317.16" waitingTime="175.00" waitingCount="15" stopTime="0.00" timeLoss="272.89" rerouteNo="0" devices="tripinfo_f_0_1.10" vType="type1" speedFactor="1.20" vaporized=""/>
    <tripinfo id="f_0_3.18" depart="188.00" departLane="np3_nt3_0" departPos="0.00" departSpeed="0.00" departDelay="40.72" arrival="490.00" arrivalLane="nt14_np11_0" arrivalPos="75.00" arrivalSpeed="5.83" duration="302.00" routeLength="951.09" waitingTime="135.00" waitingCount="9" stopTime="0.00" timeLoss="186.69" rerouteNo="0" devices="tripinfo_f_0_3.18" vType="type1" speedFactor="0.69" vaporized=""/>
    <tripinfo id="f_0_3.19" depart="218.00" departLane="np3_nt3_0" departPos="0.48" departSpeed="0.00" departDelay="62.54" arrival="492.00" arrivalLane="nt14_np11_0" arrivalPos="75.00" arrivalSpeed="7.02" duration="274.00" routeLength="950.61" waitingTime="121.00" waitingCount="8" stopTime="0.00" timeLoss="181.58" rerouteNo="0" devices="tripinfo_f_0_3.19" vType="type1" speedFactor="0.86" vaporized=""/>
    <tripinfo id="f_0_3.20" depart="220.00" departLane="np3_nt3_0" departPos="0.00" departSpeed="0.00" departDelay="56.36" arrival="513.00" arrivalLane="nt14_np11_0" arrivalPos="75.00" arrivalSpeed="8.81" duration="293.00" routeLength="951.09" waitingTime="153.00" waitingCount="10" stopTime="0.00" timeLoss="203.20" rerouteNo="0" devices="tripinfo_f_0_3.20" vType="type1" speedFactor="0.89" vaporized=""/>
    <tripinfo id="f_0_3.21" depart="223.00" departLane="np3_nt3_0" departPos="0.00" departSpeed="0.00" departDelay="51.18" arrival="515.00" arrivalLane="nt14_np11_0" arrivalPos="75.00" arrivalSpeed="9.58" duration="292.00" routeLength="951.09" waitingTime="148.00" waitingCount="10" stopTime="0.00" timeLoss="214.33" rerouteNo="0" devices="tripinfo_f_0_3.21" vType="type1" speedFactor="1.03" vaporized=""/>
    <tripinfo id="f_0_0.15" depart="205.00" departLane="np13_nt13_0" departPos="9.42" departSpeed="0.00" departDelay="0.46" arrival="533.00" arrivalLane="nt4_np5_0" arrivalPos="75.00" arrivalSpeed="21.21" duration="328.00" routeLength="1338.47" waitingTime="181.00" waitingCount="9" stopTime="0.00" timeLoss="243.56" rerouteNo="0" devices="tripinfo_f_0_0.15" vType="type1" speedFactor="1.09" vaporized=""/>
    <tripinfo id="f_0_2.11" depart="90.00" departLane="np2_nt2_0" departPos="3.95" departSpeed="0.00" departDelay="0.00" arrival="546.00" arrivalLane="nt15_np10_0" arrivalPos="75.00" arrivalSpeed="11.70" duration="456.00" routeLength="947.13" waitingTime="239.00" waitingCount="17" stopTime="0.00" timeLoss="383.82" rerouteNo="0" devices="tripinfo_f_0_2.11" vType="type1" speedFactor="1.11" vaporized=""/>
    <tripinfo id="f_0_0.16" depart="219.00" departLane="np13_nt13_0" departPos="37.15" departSpeed="0.00" departDelay="0.82" arrival="559.00" arrivalLane="nt4_np5_0" arrivalPos="75.00" arrivalSpeed="17.71" duration="340.00" routeLength="1310.74" waitingTime="181.00" waitingCount="10" stopTime="0.00" timeLoss="237.96" rerouteNo="0" devices="tripinfo_f_0_0.16" vType="type1" speedFactor="0.90" vaporized=""/>
    <tripinfo id="f_0_1.12" depart="164.00" departLane="np16_nt1_0" departPos="16.89" departSpeed="0.00" departDelay="0.37" arrival="563.00" arrivalLane="nt16_np8_0" arrivalPos="75.00" arrivalSpeed="17.61" duration="399.00" routeLength="1330.99" waitingTime="213.00" waitingCount="13" stopTime="0.00" timeLoss="301.78" rerouteNo="0" devices="tripinfo_f_0_1.12" vType="type1" speedFactor="0.95" vaporized=""/>
    <tripinfo id="f_0_3.22" depart="225.00" departLane="np3_nt3_0" departPos="0.00" departSpeed="0.00" departDelay="45.00" arrival="563.00" arrivalLane="nt14_np11_0" arrivalPos="75.00" arrivalSpeed="9.96" duration="338.00" routeLength="951.09" waitingTime="192.00" waitingCount="10" stopTime="0.00" timeLoss="253.21" rerouteNo="0" devices="tripinfo_f_0_3.22" vType="type1" speedFactor="0.94" vaporized=""/>
    <tripinfo id="f_0_1.11" depart="150.00" departLane="np16_nt1_0" departPos="26.95" departSpeed="0.00" departDelay="0.00" arrival="565.00" arrivalLane="nt16_np8_0" arrivalPos="75.00" arrivalSpeed="19.80" duration="415.00" routeLength="1320.93" waitingTime="205.00" waitingCount="16" stopTime="0.00" timeLoss="324.74" rerouteNo="0" devices="tripinfo_f_0_1.11" vType="type1" speedFactor="1.02" vaporized=""/>
    <tripinfo id="f_0_1.13" depart="178.00" departLane="np16_nt1_0" departPos="22.50" departSpeed="0.00" departDelay="0.73" arrival="573.00" arrivalLane="nt16_np8_0" arrivalPos="75.00" arrivalSpeed="19.08" duration="395.00" routeLength="1325.38" waitingTime="206.00" waitingCount="14" stopTime="0.00" timeLoss="301.06" rerouteNo="0" devices="tripinfo_f_0_1.13" vType="type1" speedFactor="0.98" vaporized=""/>
    <tripinfo id="f_0_0.17" depart="232.00" departLane="np13_nt13_0" departPos="5.68" departSpeed="0.00" departDelay="0.19" arrival="573.00" arrivalLane="nt4_np5_0" arrivalPos="75.00" arrivalSpeed="21.26" duration="341.00" routeLength="1342.21" waitingTime="173.00" waitingCount="13" stopTime="0.00" timeLoss="255.30" rerouteNo="0" devices="tripinfo_f_0_0.17" vType="type1" speedFactor="1.08" vaporized=""/>
    <tripinfo id="f_0_1.14" depart="191.00" departLane="np16_nt1_0" departPos="61.28" departSpeed="0.00" departDelay="0.10" arrival="575.00" arrivalLane="nt16_np8_0" arrivalPos="75.00" arrivalSpeed="17.57" duration="384.00" routeLength="1286.60" waitingTime="200.00" waitingCount="13" stopTime="0.00" timeLoss="289.92" rerouteNo="0" devices="tripinfo_f_0_1.14" vType="type1" speedFactor="0.97" vaporized=""/>
    <tripinfo id="f_0_0.18" depart="246.00" departLane="np13_nt13_0" departPos="21.92" departSpeed="0.00" departDelay="0.55" arrival="575.00" arrivalLane="nt4_np5_0" arrivalPos="75.00" arrivalSpeed="15.54" duration="329.00" routeLength="1325.97" waitingTime="151.00" waitingCount="11" stopTime="0.00" timeLoss="224.63" rerouteNo="0" devices="tripinfo_f_0_0.18" vType="type1" speedFactor="0.88" vaporized=""/>
    <tripinfo id="f_0_2.12" depart="99.00" departLane="np2_nt2_0" departPos="12.05" departSpeed="0.00" departDelay="0.82" arrival="577.00" arrivalLane="nt15_np10_0" arrivalPos="75.00" arrivalSpeed="10.30" duration="478.00" routeLength="939.03" waitingTime="240.00" waitingCount="24" stopTime="0.00" timeLoss="401.29" rerouteNo="0" devices="tripinfo_f_0_2.12" vType="type1" speedFactor="1.03" vaporized=""/>
    <tripinfo id="f_0_2.13" depart="107.00" departLane="np2_nt2_0" departPos="50.71" departSpeed="0.00" departDelay="0.63" arrival="579.00" arrivalLane="nt15_np10_0" arrivalPos="75.00" arrivalSpeed="11.22" duration="472.00" routeLength="900.37" waitingTime="239.00" waitingCount="17" stopTime="0.00" timeLoss="403.01" rerouteNo="0" devices="tripinfo_f_0_2.13" vType="type1" speedFactor="1.09" vaporized=""/>
    <tripinfo id="f_0_3.23" depart="228.00" departLane="np3_nt3_0" departPos="0.00" departSpeed="0.00" departDelay="39.81" arrival="592.00" arrivalLane="nt14_np11_0" arrivalPos="75.00" arrivalSpeed="9.08" duration="364.00" routeLength="951.09" waitingTime="213.00" waitingCount="13" stopTime="0.00" timeLoss="283.11" rerouteNo="0" devices="tripinfo_f_0_3.23" vType="type1" speedFactor="0.99" vaporized=""/>
    <tripinfo id="f_0_0.19" depart="260.00" departLane="np13_nt13_0" departPos="11.89" departSpeed="0.00" departDelay="0.92" arrival="598.00" arrivalLane="nt4_np5_0" arrivalPos="75.00" arrivalSpeed="17.73" duration="338.00" routeLength="1336.00" waitingTime="179.00" waitingCount="12" stopTime="0.00" timeLoss="245.29" rerouteNo="0" devices="tripinfo_f_0_0.19" vType="type1" speedFactor="1.00" vaporized=""/>
    <tripinfo id="f_0_0.20" depart="273.00" departLane="np13_nt13_0" departPos="61.37" departSpeed="0.00" departDelay="0.28" arrival="600.00" arrivalLane="nt4_np5_0" arrivalPos="75.00" arrivalSpeed="17.88" duration="327.00" routeLength="1286.52" waitingTime="154.00" waitingCount="13" stopTime="0.00" timeLoss="229.49" rerouteNo="0" devices="tripinfo_f_0_0.20" vType="type1" speedFactor="0.93" vaporized=""/>
    <tripinfo id="f_0_1.6" depart="82.00" departLane="np16_nt1_0" departPos="39.15" departSpeed="0.00" departDelay="0.18" arrival="613.00" arrivalLane="nt16_np8_0" arrivalPos="75.00" arrivalSpeed="21.53" duration="531.00" routeLength="1308.73" waitingTime="267.00" waitingCount="20" stopTime="0.00" timeLoss="450.89" rerouteNo="0" devices="tripinfo_f_0_1.6" vType="type1" speedFactor="1.14" vaporized=""/>