<?xml version="1.0" encoding="UTF-8"?>

<!-- generated on 2023-08-30 19:30:43 by Eclipse SUMO libsumo Version 1.18.0
<configuration xmlns:xsi="http://www.w3.org/2001/XMLSchema-instance" xsi:noNamespaceSchemaLocation="http://sumo.dlr.de/xsd/libsumoConfiguration.xsd">

    <input>
        <net-file value="/home/stefan/RESCO/./environments/arterial4x4/arterial4x4.net.xml"/>
        <route-files value="/home/stefan/RESCO/./environments/arterial4x4/arterial4x4_83.rou.xml"/>
    </input>

    <output>
        <tripinfo-output value="/home/stefan/results/RAINBOW-tr0-arterial4x4-0-drq_norm-wait_norm/tripinfo_83.xml"/>
        <tripinfo-output.write-unfinished value="true"/>
    </output>

    <processing>
        <time-to-teleport value="-1"/>
    </processing>

    <report>
        <no-warnings value="True"/>
        <no-step-log value="True"/>
    </report>

    <random_number>
        <random value="true"/>
    </random_number>

</configuration>
-->

<tripinfos xmlns:xsi="http://www.w3.org/2001/XMLSchema-instance" xsi:noNamespaceSchemaLocation="http://sumo.dlr.de/xsd/tripinfo_file.xsd">
    <tripinfo id="f_0_0.0" depart="0.00" departLane="np13_nt13_0" departPos="11.40" departSpeed="0.00" departDelay="0.00" arrival="-1.00" arrivalLane="" arrivalPos="-1.00" arrivalSpeed="-1.00" duration="3600.00" routeLength="643.63" waitingTime="3537.00" waitingCount="2" stopTime="0.00" timeLoss="3553.34" rerouteNo="0" devices="tripinfo_f_0_0.0" vType="type1" speedFactor="0.89" vaporized="end"/>
    <tripinfo id="f_0_1.0" depart="0.00" departLane="np16_nt1_0" departPos="42.20" departSpeed="0.00" departDelay="0.00" arrival="-1.00" arrivalLane="" arrivalPos="-1.00" arrivalSpeed="-1.00" duration="3600.00" routeLength="820.65" waitingTime="3516.00" waitingCount="2" stopTime="0.00" timeLoss="3532.48" rerouteNo="0" devices="tripinfo_f_0_1.0" vType="type1" speedFactor="0.87" vaporized="end"/>
    <tripinfo id="f_0_2.0" depart="0.00" departLane="np2_nt2_0" departPos="63.41" departSpeed="0.00" departDelay="0.00" arrival="-1.00" arrivalLane="" arrivalPos="-1.00" arrivalSpeed="-1.00" duration="3600.00" routeLength="575.86" waitingTime="3529.00" waitingCount="3" stopTime="0.00" timeLoss="3559.84" rerouteNo="0" devices="tripinfo_f_0_2.0" vType="type1" speedFactor="1.16" vaporized="end"/>
    <tripinfo id="f_0_3.0" depart="0.00" departLane="np3_nt3_0" departPos="60.51" departSpeed="0.00" departDelay="0.00" arrival="-1.00" arrivalLane="" arrivalPos="-1.00" arrivalSpeed="-1.00" duration="3600.00" routeLength="3.09" waitingTime="3597.00" waitingCount="1" stopTime="0.00" timeLoss="3598.72" rerouteNo="0" devices="tripinfo_f_0_3.0" vType="type1" speedFactor="1.01" vaporized="end"/>
    <tripinfo id="f_0_2.1" depart="9.00" departLane="np2_nt2_0" departPos="29.02" departSpeed="0.00" departDelay="0.82" arrival="-1.00" arrivalLane="" arrivalPos="-1.00" arrivalSpeed="-1.00" duration="3591.00" routeLength="580.26" waitingTime="3515.00" waitingCount="5" stopTime="0.00" timeLoss="3547.32" rerouteNo="0" devices="tripinfo_f_0_2.1" vType="type1" speedFactor="1.07" vaporized="end"/>
    <tripinfo id="f_0_3.1" depart="9.00" departLane="np3_nt3_0" departPos="37.68" departSpeed="0.00" departDelay="0.82" arrival="-1.00" arrivalLane="" arrivalPos="-1.00" arrivalSpeed="-1.00" duration="3591.00" routeLength="18.42" waitingTime="3586.00" waitingCount="1" stopTime="0.00" timeLoss="3588.20" rerouteNo="0" devices="tripinfo_f_0_3.1" vType="type1" speedFactor="0.93" vaporized="end"/>
    <tripinfo id="f_0_0.1" depart="14.00" departLane="np13_nt13_0" departPos="49.34" departSpeed="0.00" departDelay="0.36" arrival="-1.00" arrivalLane="" arrivalPos="-1.00" arrivalSpeed="-1.00" duration="3586.00" routeLength="598.18" waitingTime="3526.00" waitingCount="3" stopTime="0.00" timeLoss="3541.72" rerouteNo="0" devices="tripinfo_f_0_0.1" vType="type1" speedFactor="0.87" vaporized="end"/>
    <tripinfo id="f_0_1.1" depart="14.00" departLane="np16_nt1_0" departPos="27.66" departSpeed="0.00" departDelay="0.36" arrival="-1.00" arrivalLane="" arrivalPos="-1.00" arrivalSpeed="-1.00" duration="3586.00" routeLength="827.69" waitingTime="3506.00" waitingCount="2" stopTime="0.00" timeLoss="3530.68" rerouteNo="0" devices="tripinfo_f_0_1.1" vType="type1" speedFactor="1.06" vaporized="end"/>
    <tripinfo id="f_0_2.2" depart="17.00" departLane="np2_nt2_0" departPos="8.54" departSpeed="0.00" departDelay="0.64" arrival="-1.00" arrivalLane="" arrivalPos="-1.00" arrivalSpeed="-1.00" duration="3583.00" routeLength="555.73" waitingTime="3498.00" waitingCount="8" stopTime="0.00" timeLoss="3542.74" rerouteNo="0" devices="tripinfo_f_0_2.2" vType="type1" speedFactor="1.12" vaporized="end"/>
    <tripinfo id="f_0_3.2" depart="17.00" departLane="np3_nt3_0" departPos="40.15" departSpeed="0.00" departDelay="0.64" arrival="-1.00" arrivalLane="" arrivalPos="-1.00" arrivalSpeed="-1.00" duration="3583.00" routeLength="8.45" waitingTime="3578.00" waitingCount="1" stopTime="0.00" timeLoss="3581.27" rerouteNo="0" devices="tripinfo_f_0_3.2" vType="type1" speedFactor="1.05" vaporized="end"/>
    <tripinfo id="f_0_2.3" depart="25.00" departLane="np2_nt2_0" departPos="5.76" departSpeed="0.00" departDelay="0.45" arrival="-1.00" arrivalLane="" arrivalPos="-1.00" arrivalSpeed="-1.00" duration="3575.00" routeLength="528.50" waitingTime="3484.00" waitingCount="7" stopTime="0.00" timeLoss="3533.95" rerouteNo="0" devices="tripinfo_f_0_2.3" vType="type1" speedFactor="1.03" vaporized="end"/>
    <tripinfo id="f_0_3.3" depart="25.00" departLane="np3_nt3_0" departPos="27.47" departSpeed="0.00" departDelay="0.45" arrival="-1.00" arrivalLane="" arrivalPos="-1.00" arrivalSpeed="-1.00" duration="3575.00" routeLength="13.62" waitingTime="3569.00" waitingCount="1" stopTime="0.00" timeLoss="3572.73" rerouteNo="0" devices="tripinfo_f_0_3.3" vType="type1" speedFactor="0.98" vaporized="end"/>
    <tripinfo id="f_0_0.2" depart="28.00" departLane="np13_nt13_0" departPos="46.99" departSpeed="0.00" departDelay="0.73" arrival="-1.00" arrivalLane="" arrivalPos="-1.00" arrivalSpeed="-1.00" duration="3572.00" routeLength="19.81" waitingTime="3566.00" waitingCount="1" stopTime="0.00" timeLoss="3570.01" rerouteNo="0" devices="tripinfo_f_0_0.2" vType="type1" speedFactor="1.00" vaporized="end"/>
    <tripinfo id="f_0_1.2" depart="28.00" departLane="np16_nt1_0" departPos="18.26" departSpeed="0.00" departDelay="0.73" arrival="-1.00" arrivalLane="" arrivalPos="-1.00" arrivalSpeed="-1.00" duration="3572.00" routeLength="822.08" waitingTime="3493.00" waitingCount="2" stopTime="0.00" timeLoss="3518.92" rerouteNo="0" devices="tripinfo_f_0_1.2" vType="type1" speedFactor="1.09" vaporized="end"/>
    <tripinfo id="f_0_2.4" depart="33.00" departLane="np2_nt2_0" departPos="15.79" departSpeed="0.00" departDelay="0.27" arrival="-1.00" arrivalLane="" arrivalPos="-1.00" arrivalSpeed="-1.00" duration="3567.00" routeLength="503.47" waitingTime="3480.00" waitingCount="9" stopTime="0.00" timeLoss="3528.29" rerouteNo="0" devices="tripinfo_f_0_2.4" vType="type1" speedFactor="1.04" vaporized="end"/>
    <tripinfo id="f_0_3.4" depart="33.00" departLane="np3_nt3_0" departPos="0.50" departSpeed="0.00" departDelay="0.27" arrival="-1.00" arrivalLane="" arrivalPos="-1.00" arrivalSpeed="-1.00" duration="3567.00" routeLength="33.09" waitingTime="3560.00" waitingCount="1" stopTime="0.00" timeLoss="3562.46" rerouteNo="0" devices="tripinfo_f_0_3.4" vType="type1" speedFactor="0.85" vaporized="end"/>
    <tripinfo id="f_0_0.3" depart="41.00" departLane="np13_nt13_0" departPos="0.75" departSpeed="0.00" departDelay="0.09" arrival="-1.00" arrivalLane="" arrivalPos="-1.00" arrivalSpeed="-1.00" duration="3559.00" routeLength="58.55" waitingTime="3550.00" waitingCount="1" stopTime="0.00" timeLoss="3555.07" rerouteNo="0" devices="tripinfo_f_0_0.3" vType="type1" speedFactor="1.00" vaporized="end"/>
    <tripinfo id="f_0_1.3" depart="41.00" departLane="np16_nt1_0" departPos="8.49" departSpeed="0.00" departDelay="0.09" arrival="-1.00" arrivalLane="" arrivalPos="-1.00" arrivalSpeed="-1.00" duration="3559.00" routeLength="801.86" waitingTime="3471.00" waitingCount="3" stopTime="0.00" timeLoss="3494.11" rerouteNo="0" devices="tripinfo_f_0_1.3" vType="type1" speedFactor="0.85" vaporized="end"/>
    <tripinfo id="f_0_2.5" depart="41.00" departLane="np2_nt2_0" departPos="10.09" departSpeed="0.00" departDelay="0.09" arrival="-1.00" arrivalLane="" arrivalPos="-1.00" arrivalSpeed="-1.00" duration="3559.00" routeLength="494.17" waitingTime="3465.00" waitingCount="7" stopTime="0.00" timeLoss="3525.59" rerouteNo="0" devices="tripinfo_f_0_2.5" vType="type1" speedFactor="1.17" vaporized="end"/>
    <tripinfo id="f_0_3.5" depart="41.00" departLane="np3_nt3_0" departPos="18.45" departSpeed="0.00" departDelay="0.09" arrival="-1.00" arrivalLane="" arrivalPos="-1.00" arrivalSpeed="-1.00" duration="3559.00" routeLength="7.64" waitingTime="3555.00" waitingCount="1" stopTime="0.00" timeLoss="3557.30" rerouteNo="0" devices="tripinfo_f_0_3.5" vType="type1" speedFactor="1.00" vaporized="end"/>
    <tripinfo id="f_0_2.6" depart="50.00" departLane="np2_nt2_0" departPos="31.97" departSpeed="0.00" departDelay="0.91" arrival="-1.00" arrivalLane="" arrivalPos="-1.00" arrivalSpeed="-1.00" duration="3550.00" routeLength="457.29" waitingTime="3457.00" waitingCount="7" stopTime="0.00" timeLoss="3517.72" rerouteNo="0" devices="tripinfo_f_0_2.6" vType="type1" speedFactor="1.11" vaporized="end"/>
    <tripinfo id="f_0_3.6" depart="50.00" departLane="np3_nt3_0" departPos="17.30" departSpeed="0.00" departDelay="0.91" arrival="-1.00" arrivalLane="" arrivalPos="-1.00" arrivalSpeed="-1.00" duration="3550.00" routeLength="1.29" waitingTime="3546.00" waitingCount="1" stopTime="0.00" timeLoss="3548.85" rerouteNo="0" devices="tripinfo_f_0_3.6" vType="type1" speedFactor="0.80" vaporized="end"/>
    <tripinfo id="f_0_0.4" depart="55.00" departLane="np13_nt13_0" departPos="19.73" departSpeed="0.00" departDelay="0.46" arrival="-1.00" arrivalLane="" arrivalPos="-1.00" arrivalSpeed="-1.00" duration="3545.00" routeLength="32.06" waitingTime="3538.00" waitingCount="1" stopTime="0.00" timeLoss="3542.40" rerouteNo="0" devices="tripinfo_f_0_0.4" vType="type1" speedFactor="1.00" vaporized="end"/>
    <tripinfo id="f_0_1.4" depart="55.00" departLane="np16_nt1_0" departPos="8.81" departSpeed="0.00" departDelay="0.46" arrival="-1.00" arrivalLane="" arrivalPos="-1.00" arrivalSpeed="-1.00" duration="3545.00" routeLength="779.03" waitingTime="3466.00" waitingCount="4" stopTime="0.00" timeLoss="3500.92" rerouteNo="0" devices="tripinfo_f_0_1.4" vType="type1" speedFactor="1.22" vaporized="end"/>
    <tripinfo id="f_0_2.7" depart="58.00" departLane="np2_nt2_0" departPos="15.08" departSpeed="0.00" departDelay="0.73" arrival="-1.00" arrivalLane="" arrivalPos="-1.00" arrivalSpeed="-1.00" duration="3542.00" routeLength="439.19" waitingTime="3452.00" waitingCount="6" stopTime="0.00" timeLoss="3507.75" rerouteNo="0" devices="tripinfo_f_0_2.7" vType="type1" speedFactor="1.00" vaporized="end"/>
    <tripinfo id="f_0_3.7" depart="58.00" departLane="np3_nt3_0" departPos="0.20" departSpeed="0.00" departDelay="0.73" arrival="-1.00" arrivalLane="" arrivalPos="-1.00" arrivalSpeed="-1.00" duration="3542.00" routeLength="10.89" waitingTime="3539.00" waitingCount="1" stopTime="0.00" timeLoss="3540.11" rerouteNo="0" devices="tripinfo_f_0_3.7" vType="type1" speedFactor="1.11" vaporized="end"/>
    <tripinfo id="f_0_2.8" depart="66.00" departLane="np2_nt2_0" departPos="14.87" departSpeed="0.00" departDelay="0.54" arrival="-1.00" arrivalLane="" arrivalPos="-1.00" arrivalSpeed="-1.00" duration="3534.00" routeLength="424.40" waitingTime="3441.00" waitingCount="6" stopTime="0.00" timeLoss="3496.41" rerouteNo="0" devices="tripinfo_f_0_2.8" vType="type1" speedFactor="0.87" vaporized="end"/>
    <tripinfo id="f_0_3.8" depart="66.00" departLane="np3_nt3_0" departPos="0.00" departSpeed="0.00" departDelay="0.54" arrival="-1.00" arrivalLane="" arrivalPos="-1.00" arrivalSpeed="-1.00" duration="3534.00" routeLength="3.59" waitingTime="3531.00" waitingCount="1" stopTime="0.00" timeLoss="3532.66" rerouteNo="0" devices="tripinfo_f_0_3.8" vType="type1" speedFactor="0.97" vaporized="end"/>
    <tripinfo id="f_0_0.5" depart="69.00" departLane="np13_nt13_0" departPos="12.92" departSpeed="0.00" departDelay="0.82" arrival="-1.00" arrivalLane="" arrivalPos="-1.00" arrivalSpeed="-1.00" duration="3531.00" routeLength="31.37" waitingTime="3523.00" waitingCount="1" stopTime="0.00" timeLoss="3528.47" rerouteNo="0" devices="tripinfo_f_0_0.5" vType="type1" speedFactor="1.03" vaporized="end"/>
    <tripinfo id="f_0_1.5" depart="69.00" departLane="np16_nt1_0" departPos="41.00" departSpeed="0.00" departDelay="0.82" arrival="-1.00" arrivalLane="" arrivalPos="-1.00" arrivalSpeed="-1.00" duration="3531.00" routeLength="724.33" waitingTime="3447.00" waitingCount="5" stopTime="0.00" timeLoss="3485.28" rerouteNo="0" devices="tripinfo_f_0_1.5" vType="type1" speedFactor="1.10" vaporized="end"/>
    <tripinfo id="f_0_2.9" depart="74.00" departLane="np2_nt2_0" departPos="11.76" departSpeed="0.00" departDelay="0.36" arrival="-1.00" arrivalLane="" arrivalPos="-1.00" arrivalSpeed="-1.00" duration="3526.00" routeLength="405.01" waitingTime="3429.00" waitingCount="7" stopTime="0.00" timeLoss="3497.14" rerouteNo="0" devices="tripinfo_f_0_2.9" vType="type1" speedFactor="1.08" vaporized="end"/>
    <tripinfo id="f_0_0.6" depart="82.00" departLane="np13_nt13_0" departPos="12.68" departSpeed="0.00" departDelay="0.18" arrival="-1.00" arrivalLane="" arrivalPos="-1.00" arrivalSpeed="-1.00" duration="3518.00" routeLength="24.12" waitingTime="3511.00" waitingCount="1" stopTime="0.00" timeLoss="3515.72" rerouteNo="0" devices="tripinfo_f_0_0.6" vType="type1" speedFactor="0.94" vaporized="end"/>
    <tripinfo id="f_0_1.6" depart="82.00" departLane="np16_nt1_0" departPos="67.53" departSpeed="0.00" departDelay="0.18" arrival="-1.00" arrivalLane="" arrivalPos="-1.00" arrivalSpeed="-1.00" duration="3518.00" routeLength="690.30" waitingTime="3434.00" waitingCount="5" stopTime="0.00" timeLoss="3469.17" rerouteNo="0" devices="tripinfo_f_0_1.6" vType="type1" speedFactor="0.98" vaporized="end"/>
    <tripinfo id="f_0_2.10" depart="82.00" departLane="np2_nt2_0" departPos="3.54" departSpeed="0.00" departDelay="0.18" arrival="-1.00" arrivalLane="" arrivalPos="-1.00" arrivalSpeed="-1.00" duration="3518.00" routeLength="405.73" waitingTime="3420.00" waitingCount="8" stopTime="0.00" timeLoss="3485.67" rerouteNo="0" devices="tripinfo_f_0_2.10" vType="type1" speedFactor="0.96" vaporized="end"/>
    <tripinfo id="f_0_2.11" depart="90.00" departLane="np2_nt2_0" departPos="1.58" departSpeed="0.00" departDelay="0.00" arrival="-1.00" arrivalLane="" arrivalPos="-1.00" arrivalSpeed="-1.00" duration="3510.00" routeLength="377.69" waitingTime="3407.00" waitingCount="7" stopTime="0.00" timeLoss="3479.78" rerouteNo="0" devices="tripinfo_f_0_2.11" vType="type1" speedFactor="0.95" vaporized="end"/>
    <tripinfo id="f_0_0.7" depart="96.00" departLane="np13_nt13_0" departPos="0.45" departSpeed="0.00" departDelay="0.55" arrival="-1.00" arrivalLane="" arrivalPos="-1.00" arrivalSpeed="-1.00" duration="3504.00" routeLength="28.85" waitingTime="3498.00" waitingCount="1" stopTime="0.00" timeLoss="3501.37" rerouteNo="0" devices="tripinfo_f_0_0.7" vType="type1" speedFactor="0.88" vaporized="end"/>
    <tripinfo id="f_0_1.7" depart="96.00" departLane="np16_nt1_0" departPos="48.98" departSpeed="0.00" departDelay="0.55" arrival="-1.00" arrivalLane="" arrivalPos="-1.00" arrivalSpeed="-1.00" duration="3504.00" routeLength="746.36" waitingTime="3423.00" waitingCount="3" stopTime="0.00" timeLoss="3465.75" rerouteNo="0" devices="tripinfo_f_0_1.7" vType="type1" speedFactor="1.37" vaporized="end"/>
    <tripinfo id="f_0_2.12" depart="107.00" departLane="np2_nt2_0" departPos="0.00" departSpeed="0.00" departDelay="8.82" arrival="-1.00" arrivalLane="" arrivalPos="-1.00" arrivalSpeed="-1.00" duration="3493.00" routeLength="326.76" waitingTime="3396.00" waitingCount="8" stopTime="0.00" timeLoss="3470.70" rerouteNo="0" devices="tripinfo_f_0_2.12" vType="type1" speedFactor="1.07" vaporized="end"/>
    <tripinfo id="f_0_2.13" depart="113.00" departLane="np2_nt2_0" departPos="0.00" departSpeed="0.00" departDelay="6.63" arrival="-1.00" arrivalLane="" arrivalPos="-1.00" arrivalSpeed="-1.00" duration="3487.00" routeLength="289.26" waitingTime="3381.00" waitingCount="7" stopTime="0.00" timeLoss="3465.67" rerouteNo="0" devices="tripinfo_f_0_2.13" vType="type1" speedFactor="0.95" vaporized="end"/>
    <tripinfo id="f_0_0.8" depart="110.00" departLane="np13_nt13_0" departPos="7.46" departSpeed="0.00" departDelay="0.91" arrival="-1.00" arrivalLane="" arrivalPos="-1.00" arrivalSpeed="-1.00" duration="3490.00" routeLength="14.33" waitingTime="3485.00" waitingCount="1" stopTime="0.00" timeLoss="3488.29" rerouteNo="0" devices="tripinfo_f_0_0.8" vType="type1" speedFactor="1.01" vaporized="end"/>
    <tripinfo id="f_0_1.8" depart="110.00" departLane="np16_nt1_0" departPos="35.66" departSpeed="0.00" departDelay="0.91" arrival="-1.00" arrivalLane="" arrivalPos="-1.00" arrivalSpeed="-1.00" duration="3490.00" routeLength="744.68" waitingTime="3406.00" waitingCount="3" stopTime="0.00" timeLoss="3446.86" rerouteNo="0" devices="tripinfo_f_0_1.8" vType="type1" speedFactor="1.20" vaporized="end"/>
    <tripinfo id="f_0_2.14" depart="118.00" departLane="np2_nt2_0" departPos="0.00" departSpeed="0.00" departDelay="3.45" arrival="-1.00" arrivalLane="" arrivalPos="-1.00" arrivalSpeed="-1.00" duration="3482.00" routeLength="258.23" waitingTime="3385.00" waitingCount="8" stopTime="0.00" timeLoss="3467.59" rerouteNo="0" devices="tripinfo_f_0_2.14" vType="type1" speedFactor="1.19" vaporized="end"/>
    <tripinfo id="f_0_0.9" depart="123.00" departLane="np13_nt13_0" departPos="5.26" departSpeed="0.00" departDelay="0.28" arrival="-1.00" arrivalLane="" arrivalPos="-1.00" arrivalSpeed="-1.00" duration="3477.00" routeLength="9.03" waitingTime="3472.00" waitingCount="1" stopTime="0.00" timeLoss="3475.61" rerouteNo="0" devices="tripinfo_f_0_0.9" vType="type1" speedFactor="1.17" vaporized="end"/>
    <tripinfo id="f_0_1.9" depart="123.00" departLane="np16_nt1_0" departPos="49.43" departSpeed="0.00" departDelay="0.28" arrival="-1.00" arrivalLane="" arrivalPos="-1.00" arrivalSpeed="-1.00" duration="3477.00" routeLength="700.91" waitingTime="3389.00" waitingCount="3" stopTime="0.00" timeLoss="3411.93" rerouteNo="0" devices="tripinfo_f_0_1.9" vType="type1" speedFactor="0.73" vaporized="end"/>
    <tripinfo id="f_0_2.15" depart="123.00" departLane="np2_nt2_0" departPos="0.00" departSpeed="0.00" departDelay="0.27" arrival="-1.00" arrivalLane="" arrivalPos="-1.00" arrivalSpeed="-1.00" duration="3477.00" routeLength="243.23" waitingTime="3371.00" waitingCount="6" stopTime="0.00" timeLoss="3461.81" rerouteNo="0" devices="tripinfo_f_0_2.15" vType="type1" speedFactor="1.07" vaporized="end"/>
    <tripinfo id="f_0_2.16" depart="131.00" departLane="np2_nt2_0" departPos="4.58" departSpeed="0.00" departDelay="0.09" arrival="-1.00" arrivalLane="" arrivalPos="-1.00" arrivalSpeed="-1.00" duration="3469.00" routeLength="208.64" waitingTime="3380.00" waitingCount="8" stopTime="0.00" timeLoss="3455.15" rerouteNo="0" devices="tripinfo_f_0_2.16" vType="type1" speedFactor="1.03" vaporized="end"/>
    <tripinfo id="f_0_0.10" depart="137.00" departLane="np13_nt13_0" departPos="6.19" departSpeed="0.00" departDelay="0.64" arrival="-1.00" arrivalLane="" arrivalPos="-1.00" arrivalSpeed="-1.00" duration="3463.00" routeLength="0.60" waitingTime="3460.00" waitingCount="1" stopTime="0.00" timeLoss="3461.97" rerouteNo="0" devices="tripinfo_f_0_0.10" vType="type1" speedFactor="1.03" vaporized="end"/>
    <tripinfo id="f_0_1.10" depart="137.00" departLane="np16_nt1_0" departPos="37.73" departSpeed="0.00" departDelay="0.64" arrival="-1.00" arrivalLane="" arrivalPos="-1.00" arrivalSpeed="-1.00" duration="3463.00" routeLength="697.60" waitingTime="3374.00" waitingCount="3" stopTime="0.00" timeLoss="3418.92" rerouteNo="0" devices="tripinfo_f_0_1.10" vType="type1" speedFactor="1.07" vaporized="end"/>
    <tripinfo id="f_0_2.17" depart="140.00" departLane="np2_nt2_0" departPos="1.52" departSpeed="0.00" departDelay="0.91" arrival="-1.00" arrivalLane="" arrivalPos="-1.00" arrivalSpeed="-1.00" duration="3460.00" routeLength="622.76" waitingTime="3357.00" waitingCount="3" stopTime="0.00" timeLoss="3410.29" rerouteNo="0" devices="tripinfo_f_0_2.17" vType="type1" speedFactor="1.03" vaporized="end"/>
    <tripinfo id="f_0_2.18" depart="148.00" departLane="np2_nt2_0" departPos="0.00" departSpeed="0.00" departDelay="0.72" arrival="-1.00" arrivalLane="" arrivalPos="-1.00" arrivalSpeed="-1.00" duration="3452.00" routeLength="616.77" waitingTime="3350.00" waitingCount="3" stopTime="0.00" timeLoss="3404.32" rerouteNo="0" devices="tripinfo_f_0_2.18" vType="type1" speedFactor="1.05" vaporized="end"/>
    <tripinfo id="f_0_1.11" depart="150.00" departLane="np16_nt1_0" departPos="24.25" departSpeed="0.00" departDelay="0.00" arrival="-1.00" arrivalLane="" arrivalPos="-1.00" arrivalSpeed="-1.00" duration="3450.00" routeLength="696.08" waitingTime="3361.00" waitingCount="3" stopTime="0.00" timeLoss="3405.06" rerouteNo="0" devices="tripinfo_f_0_1.11" vType="type1" speedFactor="1.04" vaporized="end"/>
    <tripinfo id="f_0_2.19" depart="156.00" departLane="np2_nt2_0" departPos="6.43" departSpeed="0.00" departDelay="0.54" arrival="-1.00" arrivalLane="" arrivalPos="-1.00" arrivalSpeed="-1.00" duration="3444.00" routeLength="587.84" waitingTime="3346.00" waitingCount="4" stopTime="0.00" timeLoss="3392.75" rerouteNo="0" devices="tripinfo_f_0_2.19" vType="type1" speedFactor="0.93" vaporized="end"/>
    <tripinfo id="f_0_1.12" depart="164.00" departLane="np16_nt1_0" departPos="4.53" departSpeed="0.00" departDelay="0.37" arrival="-1.00" arrivalLane="" arrivalPos="-1.00" arrivalSpeed="-1.00" duration="3436.00" routeLength="700.80" waitingTime="3346.00" waitingCount="3" stopTime="0.00" timeLoss="3396.77" rerouteNo="0" devices="tripinfo_f_0_1.12" vType="type1" speedFactor="1.18" vaporized="end"/>
    <tripinfo id="f_0_2.20" depart="164.00" departLane="np2_nt2_0" departPos="17.44" departSpeed="0.00" departDelay="0.36" arrival="-1.00" arrivalLane="" arrivalPos="-1.00" arrivalSpeed="-1.00" duration="3436.00" routeLength="414.34" waitingTime="3350.00" waitingCount="5" stopTime="0.00" timeLoss="3401.27" rerouteNo="0" devices="tripinfo_f_0_2.20" vType="type1" speedFactor="0.90" vaporized="end"/>
    <tripinfo id="f_0_2.21" depart="172.00" departLane="np2_nt2_0" departPos="0.38" departSpeed="0.00" departDelay="0.18" arrival="-1.00" arrivalLane="" arrivalPos="-1.00" arrivalSpeed="-1.00" duration="3428.00" routeLength="401.39" waitingTime="3349.00" waitingCount="5" stopTime="0.00" timeLoss="3398.64" rerouteNo="0" devices="tripinfo_f_0_2.21" vType="type1" speedFactor="1.06" vaporized="end"/>
    <tripinfo id="f_0_1.13" depart="178.00" departLane="np16_nt1_0" departPos="2.43" departSpeed="0.00" departDelay="0.73" arrival="-1.00" arrivalLane="" arrivalPos="-1.00" arrivalSpeed="-1.00" duration="3422.00" routeLength="687.90" waitingTime="3333.00" waitingCount="4" stopTime="0.00" timeLoss="3375.73" rerouteNo="0" devices="tripinfo_f_0_1.13" vType="type1" speedFactor="0.98" vaporized="end"/>
    <tripinfo id="f_0_2.22" depart="180.00" departLane="np2_nt2_0" departPos="19.70" departSpeed="0.00" departDelay="0.00" arrival="-1.00" arrivalLane="" arrivalPos="-1.00" arrivalSpeed="-1.00" duration="3420.00" routeLength="344.57" waitingTime="3344.00" waitingCount="7" stopTime="0.00" timeLoss="3390.47" rerouteNo="0" devices="tripinfo_f_0_2.22" vType="type1" speedFactor="0.87" vaporized="end"/>
    <tripinfo id="f_0_2.23" depart="189.00" departLane="np2_nt2_0" departPos="19.50" departSpeed="0.00" departDelay="0.81" arrival="-1.00" arrivalLane="" arrivalPos="-1.00" arrivalSpeed="-1.00" duration="3411.00" routeLength="45.00" waitingTime="3385.00" waitingCount="4" stopTime="0.00" timeLoss="3406.75" rerouteNo="0" devices="tripinfo_f_0_2.23" vType="type1" speedFactor="1.26" vaporized="end"/>
    <tripinfo id="f_0_1.14" depart="191.00" departLane="np16_nt1_0" departPos="5.54" departSpeed="0.00" departDelay="0.10" arrival="-1.00" arrivalLane="" arrivalPos="-1.00" arrivalSpeed="-1.00" duration="3409.00" routeLength="649.81" waitingTime="3326.00" waitingCount="4" stopTime="0.00" timeLoss="3360.76" rerouteNo="0" devices="tripinfo_f_0_1.14" vType="type1" speedFactor="0.86" vaporized="end"/>
    <tripinfo id="f_0_2.24" depart="197.00" departLane="np2_nt2_0" departPos="15.10" departSpeed="0.00" departDelay="0.63" arrival="-1.00" arrivalLane="" arrivalPos="-1.00" arrivalSpeed="-1.00" duration="3403.00" routeLength="41.89" waitingTime="3379.00" waitingCount="4" stopTime="0.00" timeLoss="3398.29" rerouteNo="0" devices="tripinfo_f_0_2.24" vType="type1" speedFactor="1.03" vaporized="end"/>
    <tripinfo id="f_0_1.15" depart="205.00" departLane="np16_nt1_0" departPos="47.06" departSpeed="0.00" departDelay="0.46" arrival="-1.00" arrivalLane="" arrivalPos="-1.00" arrivalSpeed="-1.00" duration="3395.00" routeLength="585.78" waitingTime="3320.00" waitingCount="3" stopTime="0.00" timeLoss="3357.49" rerouteNo="0" devices="tripinfo_f_0_1.15" vType="type1" speedFactor="1.01" vaporized="end"/>
    <tripinfo id="f_0_2.25" depart="205.00" departLane="np2_nt2_0" departPos="22.70" departSpeed="0.00" departDelay="0.45" arrival="-1.00" arrivalLane="" arrivalPos="-1.00" arrivalSpeed="-1.00" duration="3395.00" routeLength="26.80" waitingTime="3371.00" waitingCount="4" stopTime="0.00" timeLoss="3391.57" rerouteNo="0" devices="tripinfo_f_0_2.25" vType="type1" speedFactor="1.00" vaporized="end"/>
    <tripinfo id="f_0_2.26" depart="213.00" departLane="np2_nt2_0" departPos="16.09" departSpeed="0.00" departDelay="0.27" arrival="-1.00" arrivalLane="" arrivalPos="-1.00" arrivalSpeed="-1.00" duration="3387.00" routeLength="25.91" waitingTime="3363.00" waitingCount="4" stopTime="0.00" timeLoss="3383.53" rerouteNo="0" devices="tripinfo_f_0_2.26" vType="type1" speedFactor="0.95" vaporized="end"/>
    <tripinfo id="f_0_1.16" depart="219.00" departLane="np16_nt1_0" departPos="48.75" departSpeed="0.00" departDelay="0.82" arrival="-1.00" arrivalLane="" arrivalPos="-1.00" arrivalSpeed="-1.00" duration="3381.00" routeLength="554.09" waitingTime="3312.00" waitingCount="4" stopTime="0.00" timeLoss="3348.24" rerouteNo="0" devices="tripinfo_f_0_1.16" vType="type1" speedFactor="1.06" vaporized="end"/>
    <tripinfo id="f_0_2.27" depart="221.00" departLane="np2_nt2_0" departPos="8.87" departSpeed="0.00" departDelay="0.09" arrival="-1.00" arrivalLane="" arrivalPos="-1.00" arrivalSpeed="-1.00" duration="3379.00" routeLength="25.62" waitingTime="3353.00" waitingCount="5" stopTime="0.00" timeLoss="3375.90" rerouteNo="0" devices="tripinfo_f_0_2.27" vType="type1" speedFactor="1.11" vaporized="end"/>
    <tripinfo id="f_0_2.28" depart="230.00" departLane="np2_nt2_0" departPos="0.00" departSpeed="0.00" departDelay="0.90" arrival="-1.00" arrivalLane="" arrivalPos="-1.00" arrivalSpeed="-1.00" duration="3370.00" routeLength="26.99" waitingTime="3344.00" waitingCount="3" stopTime="0.00" timeLoss="3366.22" rerouteNo="0" devices="tripinfo_f_0_2.28" vType="type1" speedFactor="0.88" vaporized="end"/>
    <tripinfo id="f_0_1.17" depart="232.00" departLane="np16_nt1_0" departPos="58.43" departSpeed="0.00" departDelay="0.19" arrival="-1.00" arrivalLane="" arrivalPos="-1.00" arrivalSpeed="-1.00" duration="3368.00" routeLength="521.91" waitingTime="3297.00" waitingCount="3" stopTime="0.00" timeLoss="3336.80" rerouteNo="0" devices="tripinfo_f_0_1.17" vType="type1" speedFactor="1.03" vaporized="end"/>
    <tripinfo id="f_0_2.29" depart="238.00" departLane="np2_nt2_0" departPos="0.00" departSpeed="0.00" departDelay="0.72" arrival="-1.00" arrivalLane="" arrivalPos="-1.00" arrivalSpeed="-1.00" duration="3362.00" routeLength="19.49" waitingTime="3341.00" waitingCount="3" stopTime="0.00" timeLoss="3358.97" rerouteNo="0" devices="tripinfo_f_0_2.29" vType="type1" speedFactor="0.87" vaporized="end"/>
    <tripinfo id="f_0_1.18" depart="246.00" departLane="np16_nt1_0" departPos="45.18" departSpeed="0.00" departDelay="0.55" arrival="-1.00" arrivalLane="" arrivalPos="-1.00" arrivalSpeed="-1.00" duration="3354.00" routeLength="520.16" waitingTime="3285.00" waitingCount="3" stopTime="0.00" timeLoss="3329.43" rerouteNo="0" devices="tripinfo_f_0_1.18" vType="type1" speedFactor="1.29" vaporized="end"/>
    <tripinfo id="f_0_2.30" depart="270.00" departLane="np2_nt2_0" departPos="0.00" departSpeed="0.00" departDelay="24.54" arrival="-1.00" arrivalLane="" arrivalPos="-1.00" arrivalSpeed="-1.00" duration="3330.00" routeLength="11.99" waitingTime="3314.00" waitingCount="2" stopTime="0.00" timeLoss="3327.77" rerouteNo="0" devices="tripinfo_f_0_2.30" vType="type1" speedFactor="0.89" vaporized="end"/>
    <tripinfo id="f_0_2.31" depart="300.00" departLane="np2_nt2_0" departPos="0.00" departSpeed="0.00" departDelay="46.36" arrival="-1.00" arrivalLane="" arrivalPos="-1.00" arrivalSpeed="-1.00" duration="3300.00" routeLength="4.49" waitingTime="3293.00" waitingCount="1" stopTime="0.00" timeLoss="3298.62" rerouteNo="0" devices="tripinfo_f_0_2.31" vType="type1" speedFactor="1.07" vaporized="end"/>
    <tripinfo id="f_0_1.19" depart="260.00" departLane="np16_nt1_0" departPos="3.45" departSpeed="0.00" departDelay="0.92" arrival="-1.00" arrivalLane="" arrivalPos="-1.00" arrivalSpeed="-1.00" duration="3340.00" routeLength="546.88" waitingTime="3272.00" waitingCount="4" stopTime="0.00" timeLoss="3306.95" rerouteNo="0" devices="tripinfo_f_0_1.19" vType="type1" speedFactor="0.98" vaporized="end"/>