<?xml version="1.0" encoding="UTF-8"?>

<!-- generated on 2023-08-30 18:47:35 by Eclipse SUMO libsumo Version 1.18.0
<configuration xmlns:xsi="http://www.w3.org/2001/XMLSchema-instance" xsi:noNamespaceSchemaLocation="http://sumo.dlr.de/xsd/libsumoConfiguration.xsd">

    <input>
        <net-file value="/home/stefan/RESCO/./environments/arterial4x4/arterial4x4.net.xml"/>
        <route-files value="/home/stefan/RESCO/./environments/arterial4x4/arterial4x4_47.rou.xml"/>
    </input>

    <output>
        <tripinfo-output value="/home/stefan/results/RAINBOW-tr0-arterial4x4-0-drq_norm-wait_norm/tripinfo_47.xml"/>
        <tripinfo-output.write-unfinished value="true"/>
    </output>

    <processing>
        <time-to-teleport value="-1"/>
    </processing>

    <report>
        <no-warnings value="True"/>
        <no-step-log value="True"/>
    </report>

    <random_number>
        <random value="true"/>
    </random_number>

</configuration>
-->

<tripinfos xmlns:xsi="http://www.w3.org/2001/XMLSchema-instance" xsi:noNamespaceSchemaLocation="http://sumo.dlr.de/xsd/tripinfo_file.xsd">
    <tripinfo id="f_0_3.0" depart="0.00" departLane="np3_nt3_0" departPos="8.68" departSpeed="0.00" departDelay="0.00" arrival="107.00" arrivalLane="nt14_np11_0" arrivalPos="75.00" arrivalSpeed="13.46" duration="107.00" routeLength="942.41" waitingTime="26.00" waitingCount="2" stopTime="0.00" timeLoss="42.25" rerouteNo="0" devices="tripinfo_f_0_3.0" vType="type1" speedFactor="1.23" vaporized=""/>
    <tripinfo id="f_0_3.1" depart="9.00" departLane="np3_nt3_0" departPos="1.79" departSpeed="0.00" departDelay="0.82" arrival="138.00" arrivalLane="nt14_np11_0" arrivalPos="75.00" arrivalSpeed="9.58" duration="129.00" routeLength="949.30" waitingTime="23.00" waitingCount="3" stopTime="0.00" timeLoss="45.19" rerouteNo="0" devices="tripinfo_f_0_3.1" vType="type1" speedFactor="0.95" vaporized=""/>
    <tripinfo id="f_0_3.2" depart="17.00" departLane="np3_nt3_0" departPos="32.94" departSpeed="0.00" departDelay="0.64" arrival="141.00" arrivalLane="nt14_np11_0" arrivalPos="75.00" arrivalSpeed="10.25" duration="124.00" routeLength="918.15" waitingTime="18.00" waitingCount="3" stopTime="0.00" timeLoss="42.45" rerouteNo="0" devices="tripinfo_f_0_3.2" vType="type1" speedFactor="0.94" vaporized=""/>
    <tripinfo id="f_0_0.0" depart="0.00" departLane="np13_nt13_0" departPos="62.67" departSpeed="0.00" departDelay="0.00" arrival="199.00" arrivalLane="nt4_np5_0" arrivalPos="75.00" arrivalSpeed="21.01" duration="199.00" routeLength="1285.22" waitingTime="83.00" waitingCount="3" stopTime="0.00" timeLoss="113.44" rerouteNo="0" devices="tripinfo_f_0_0.0" vType="type1" speedFactor="1.06" vaporized=""/>
    <tripinfo id="f_0_3.3" depart="25.00" departLane="np3_nt3_0" departPos="41.81" departSpeed="0.00" departDelay="0.45" arrival="209.00" arrivalLane="nt14_np11_0" arrivalPos="75.00" arrivalSpeed="8.81" duration="184.00" routeLength="909.28" waitingTime="67.00" waitingCount="5" stopTime="0.00" timeLoss="92.43" rerouteNo="0" devices="tripinfo_f_0_3.3" vType="type1" speedFactor="0.83" vaporized=""/>
    <tripinfo id="f_0_3.4" depart="33.00" departLane="np3_nt3_0" departPos="19.50" departSpeed="0.00" departDelay="0.27" arrival="211.00" arrivalLane="nt14_np11_0" arrivalPos="75.00" arrivalSpeed="10.91" duration="178.00" routeLength="931.59" waitingTime="55.00" waitingCount="3" stopTime="0.00" timeLoss="99.13" rerouteNo="0" devices="tripinfo_f_0_3.4" vType="type1" speedFactor="0.99" vaporized=""/>
    <tripinfo id="f_0_3.5" depart="41.00" departLane="np3_nt3_0" departPos="33.87" departSpeed="0.00" departDelay="0.09" arrival="213.00" arrivalLane="nt14_np11_0" arrivalPos="75.00" arrivalSpeed="10.18" duration="172.00" routeLength="917.22" waitingTime="54.00" waitingCount="5" stopTime="0.00" timeLoss="93.18" rerouteNo="0" devices="tripinfo_f_0_3.5" vType="type1" speedFactor="0.98" vaporized=""/>
    <tripinfo id="f_0_3.6" depart="50.00" departLane="np3_nt3_0" departPos="39.69" departSpeed="0.00" departDelay="0.91" arrival="215.00" arrivalLane="nt14_np11_0" arrivalPos="75.00" arrivalSpeed="9.59" duration="165.00" routeLength="911.40" waitingTime="47.00" waitingCount="5" stopTime="0.00" timeLoss="86.99" rerouteNo="0" devices="tripinfo_f_0_3.6" vType="type1" speedFactor="0.98" vaporized=""/>
    <tripinfo id="f_0_3.7" depart="58.00" departLane="np3_nt3_0" departPos="32.09" departSpeed="0.00" departDelay="0.73" arrival="233.00" arrivalLane="nt14_np11_0" arrivalPos="75.00" arrivalSpeed="8.53" duration="175.00" routeLength="919.00" waitingTime="55.00" waitingCount="4" stopTime="0.00" timeLoss="92.34" rerouteNo="0" devices="tripinfo_f_0_3.7" vType="type1" speedFactor="0.93" vaporized=""/>
    <tripinfo id="f_0_2.0" depart="0.00" departLane="np2_nt2_0" departPos="51.26" departSpeed="0.00" departDelay="0.00" arrival="237.00" arrivalLane="nt15_np10_0" arrivalPos="75.00" arrivalSpeed="7.60" duration="237.00" routeLength="899.82" waitingTime="101.00" waitingCount="3" stopTime="0.00" timeLoss="129.04" rerouteNo="0" devices="tripinfo_f_0_2.0" vType="type1" speedFactor="0.70" vaporized=""/>
    <tripinfo id="f_0_0.1" depart="14.00" departLane="np13_nt13_0" departPos="30.60" departSpeed="0.00" departDelay="0.36" arrival="238.00" arrivalLane="nt4_np5_0" arrivalPos="75.00" arrivalSpeed="20.71" duration="224.00" routeLength="1317.29" waitingTime="117.00" waitingCount="4" stopTime="0.00" timeLoss="140.55" rerouteNo="0" devices="tripinfo_f_0_0.1" vType="type1" speedFactor="1.10" vaporized=""/>
    <tripinfo id="f_0_0.2" depart="28.00" departLane="np13_nt13_0" departPos="8.76" departSpeed="0.00" departDelay="0.73" arrival="240.00" arrivalLane="nt4_np5_0" arrivalPos="75.00" arrivalSpeed="22.64" duration="212.00" routeLength="1339.13" waitingTime="97.00" waitingCount="5" stopTime="0.00" timeLoss="130.99" rerouteNo="0" devices="tripinfo_f_0_0.2" vType="type1" speedFactor="1.15" vaporized=""/>
    <tripinfo id="f_0_0.3" depart="41.00" departLane="np13_nt13_0" departPos="24.32" departSpeed="0.00" departDelay="0.09" arrival="253.00" arrivalLane="nt4_np5_0" arrivalPos="75.00" arrivalSpeed="19.02" duration="212.00" routeLength="1323.57" waitingTime="77.00" waitingCount="6" stopTime="0.00" timeLoss="123.55" rerouteNo="0" devices="tripinfo_f_0_0.3" vType="type1" speedFactor="1.04" vaporized=""/>
    <tripinfo id="f_0_0.4" depart="55.00" departLane="np13_nt13_0" departPos="44.52" departSpeed="0.00" departDelay="0.46" arrival="256.00" arrivalLane="nt4_np5_0" arrivalPos="75.00" arrivalSpeed="15.70" duration="201.00" routeLength="1303.37" waitingTime="59.00" waitingCount="6" stopTime="0.00" timeLoss="95.33" rerouteNo="0" devices="tripinfo_f_0_0.4" vType="type1" speedFactor="0.86" vaporized=""/>
    <tripinfo id="f_0_0.5" depart="69.00" departLane="np13_nt13_0" departPos="45.60" departSpeed="0.00" departDelay="0.82" arrival="280.00" arrivalLane="nt4_np5_0" arrivalPos="75.00" arrivalSpeed="18.55" duration="211.00" routeLength="1302.29" waitingTime="74.00" waitingCount="6" stopTime="0.00" timeLoss="119.14" rerouteNo="0" devices="tripinfo_f_0_0.5" vType="type1" speedFactor="0.99" vaporized=""/>
    <tripinfo id="f_0_0.6" depart="82.00" departLane="np13_nt13_0" departPos="28.53" departSpeed="0.00" departDelay="0.18" arrival="288.00" arrivalLane="nt4_np5_0" arrivalPos="75.00" arrivalSpeed="22.25" duration="206.00" routeLength="1319.36" waitingTime="88.00" waitingCount="6" stopTime="0.00" timeLoss="124.07" rerouteNo="0" devices="tripinfo_f_0_0.6" vType="type1" speedFactor="1.12" vaporized=""/>
    <tripinfo id="f_0_0.7" depart="96.00" departLane="np13_nt13_0" departPos="47.15" departSpeed="0.00" departDelay="0.55" arrival="291.00" arrivalLane="nt4_np5_0" arrivalPos="75.00" arrivalSpeed="21.13" duration="195.00" routeLength="1300.74" waitingTime="79.00" waitingCount="5" stopTime="0.00" timeLoss="108.82" rerouteNo="0" devices="tripinfo_f_0_0.7" vType="type1" speedFactor="1.06" vaporized=""/>
    <tripinfo id="f_0_2.1" depart="9.00" departLane="np2_nt2_0" departPos="4.71" departSpeed="0.00" departDelay="0.82" arrival="348.00" arrivalLane="nt15_np10_0" arrivalPos="75.00" arrivalSpeed="9.02" duration="339.00" routeLength="946.37" waitingTime="219.00" waitingCount="5" stopTime="0.00" timeLoss="252.55" rerouteNo="0" devices="tripinfo_f_0_2.1" vType="type1" speedFactor="0.92" vaporized=""/>
    <tripinfo id="f_0_2.2" depart="17.00" departLane="np2_nt2_0" departPos="40.78" departSpeed="0.00" departDelay="0.64" arrival="349.00" arrivalLane="nt15_np10_0" arrivalPos="75.00" arrivalSpeed="11.67" duration="332.00" routeLength="910.30" waitingTime="214.00" waitingCount="6" stopTime="0.00" timeLoss="270.82" rerouteNo="0" devices="tripinfo_f_0_2.2" vType="type1" speedFactor="1.24" vaporized=""/>
    <tripinfo id="f_0_3.8" depart="66.00" departLane="np3_nt3_0" departPos="29.35" departSpeed="0.00" departDelay="0.54" arrival="368.00" arrivalLane="nt14_np11_0" arrivalPos="75.00" arrivalSpeed="10.61" duration="302.00" routeLength="921.74" waitingTime="187.00" waitingCount="5" stopTime="0.00" timeLoss="223.66" rerouteNo="0" devices="tripinfo_f_0_3.8" vType="type1" speedFactor="0.99" vaporized=""/>
    <tripinfo id="f_0_2.3" depart="25.00" departLane="np2_nt2_0" departPos="6.53" departSpeed="0.00" departDelay="0.45" arrival="376.00" arrivalLane="nt15_np10_0" arrivalPos="75.00" arrivalSpeed="10.47" duration="351.00" routeLength="944.55" waitingTime="238.00" waitingCount="8" stopTime="0.00" timeLoss="281.53" rerouteNo="0" devices="tripinfo_f_0_2.3" vType="type1" speedFactor="1.14" vaporized=""/>
    <tripinfo id="f_0_2.4" depart="33.00" departLane="np2_nt2_0" departPos="41.58" departSpeed="0.00" departDelay="0.27" arrival="378.00" arrivalLane="nt15_np10_0" arrivalPos="75.00" arrivalSpeed="10.69" duration="345.00" routeLength="909.50" waitingTime="230.00" waitingCount="9" stopTime="0.00" timeLoss="276.19" rerouteNo="0" devices="tripinfo_f_0_2.4" vType="type1" speedFactor="1.10" vaporized=""/>
    <tripinfo id="f_0_3.9" depart="74.00" departLane="np3_nt3_0" departPos="37.93" departSpeed="0.00" departDelay="0.36" arrival="389.00" arrivalLane="nt14_np11_0" arrivalPos="75.00" arrivalSpeed="8.98" duration="315.00" routeLength="913.16" waitingTime="181.00" waitingCount="8" stopTime="0.00" timeLoss="223.95" rerouteNo="0" devices="tripinfo_f_0_3.9" vType="type1" speedFactor="0.84" vaporized=""/>
    <tripinfo id="f_0_3.10" depart="82.00" departLane="np3_nt3_0" departPos="56.89" departSpeed="0.00" departDelay="0.18" arrival="391.00" arrivalLane="nt14_np11_0" arrivalPos="75.00" arrivalSpeed="10.57" duration="309.00" routeLength="894.20" waitingTime="185.00" waitingCount="8" stopTime="0.00" timeLoss="236.23" rerouteNo="0" devices="tripinfo_f_0_3.10" vType="type1" speedFactor="1.03" vaporized=""/>
    <tripinfo id="f_0_2.5" depart="41.00" departLane="np2_nt2_0" departPos="33.94" departSpeed="0.00" departDelay="0.09" arrival="401.00" arrivalLane="nt15_np10_0" arrivalPos="75.00" arrivalSpeed="11.56" duration="360.00" routeLength="917.14" waitingTime="243.00" waitingCount="10" stopTime="0.00" timeLoss="293.94" rerouteNo="0" devices="tripinfo_f_0_2.5" vType="type1" speedFactor="1.16" vaporized=""/>
    <tripinfo id="f_0_3.11" depart="90.00" departLane="np3_nt3_0" departPos="25.03" departSpeed="0.00" departDelay="0.00" arrival="402.00" arrivalLane="nt14_np11_0" arrivalPos="75.00" arrivalSpeed="9.23" duration="312.00" routeLength="926.06" waitingTime="185.00" waitingCount="8" stopTime="0.00" timeLoss="234.43" rerouteNo="0" devices="tripinfo_f_0_3.11" vType="type1" speedFactor="1.00" vaporized=""/>
    <tripinfo id="f_0_0.8" depart="110.00" departLane="np13_nt13_0" departPos="32.40" departSpeed="0.00" departDelay="0.91" arrival="423.00" arrivalLane="nt4_np5_0" arrivalPos="75.00" arrivalSpeed="19.05" duration="313.00" routeLength="1315.49" waitingTime="188.00" waitingCount="5" stopTime="0.00" timeLoss="220.86" rerouteNo="0" devices="tripinfo_f_0_0.8" vType="type1" speedFactor="1.00" vaporized=""/>
    <tripinfo id="f_0_2.6" depart="50.00" departLane="np2_nt2_0" departPos="3.52" departSpeed="0.00" departDelay="0.91" arrival="428.00" arrivalLane="nt15_np10_0" arrivalPos="75.00" arrivalSpeed="9.10" duration="378.00" routeLength="947.56" waitingTime="232.00" waitingCount="12" stopTime="0.00" timeLoss="292.87" rerouteNo="0" devices="tripinfo_f_0_2.6" vType="type1" speedFactor="0.94" vaporized=""/>
    <tripinfo id="f_0_2.7" depart="58.00" departLane="np2_nt2_0" departPos="16.89" departSpeed="0.00" departDelay="0.73" arrival="430.00" arrivalLane="nt15_np10_0" arrivalPos="75.00" arrivalSpeed="10.04" duration="372.00" routeLength="934.19" waitingTime="220.00" waitingCount="12" stopTime="0.00" timeLoss="302.36" rerouteNo="0" devices="tripinfo_f_0_2.7" vType="type1" speedFactor="1.12" vaporized=""/>
    <tripinfo id="f_0_2.8" depart="66.00" departLane="np2_nt2_0" departPos="50.47" departSpeed="0.00" departDelay="0.54" arrival="432.00" arrivalLane="nt15_np10_0" arrivalPos="75.00" arrivalSpeed="11.77" duration="366.00" routeLength="900.61" waitingTime="205.00" waitingCount="14" stopTime="0.00" timeLoss="301.09" rerouteNo="0" devices="tripinfo_f_0_2.8" vType="type1" speedFactor="1.17" vaporized=""/>
    <tripinfo id="f_0_1.0" depart="0.00" departLane="np16_nt1_0" departPos="23.32" departSpeed="0.00" departDelay="0.00" arrival="443.00" arrivalLane="nt16_np8_0" arrivalPos="75.00" arrivalSpeed="19.39" duration="443.00" routeLength="1324.56" waitingTime="295.00" waitingCount="12" stopTime="0.00" timeLoss="353.99" rerouteNo="0" devices="tripinfo_f_0_1.0" vType="type1" speedFactor="1.03" vaporized=""/>
    <tripinfo id="f_0_3.12" depart="99.00" departLane="np3_nt3_0" departPos="7.64" departSpeed="0.00" departDelay="0.82" arrival="461.00" arrivalLane="nt14_np11_0" arrivalPos="75.00" arrivalSpeed="8.85" duration="362.00" routeLength="943.45" waitingTime="225.00" waitingCount="5" stopTime="0.00" timeLoss="265.21" rerouteNo="0" devices="tripinfo_f_0_3.12" vType="type1" speedFactor="0.82" vaporized=""/>
    <tripinfo id="f_0_0.9" depart="123.00" departLane="np13_nt13_0" departPos="0.45" departSpeed="0.00" departDelay="0.28" arrival="463.00" arrivalLane="nt4_np5_0" arrivalPos="75.00" arrivalSpeed="18.60" duration="340.00" routeLength="1347.44" waitingTime="198.00" waitingCount="8" stopTime="0.00" timeLoss="240.72" rerouteNo="0" devices="tripinfo_f_0_0.9" vType="type1" speedFactor="0.94" vaporized=""/>
    <tripinfo id="f_0_0.10" depart="137.00" departLane="np13_nt13_0" departPos="40.01" departSpeed="0.00" departDelay="0.64" arrival="465.00" arrivalLane="nt4_np5_0" arrivalPos="75.00" arrivalSpeed="21.13" duration="328.00" routeLength="1307.88" waitingTime="184.00" waitingCount="8" stopTime="0.00" timeLoss="243.89" rerouteNo="0" devices="tripinfo_f_0_0.10" vType="type1" speedFactor="1.10" vaporized=""/>
    <tripinfo id="f_0_3.13" depart="107.00" departLane="np3_nt3_0" departPos="31.99" departSpeed="0.00" departDelay="0.63" arrival="467.00" arrivalLane="nt14_np11_0" arrivalPos="75.00" arrivalSpeed="10.34" duration="360.00" routeLength="919.10" waitingTime="239.00" waitingCount="8" stopTime="0.00" timeLoss="282.72" rerouteNo="0" devices="tripinfo_f_0_3.13" vType="type1" speedFactor="1.00" vaporized=""/>
    <tripinfo id="f_0_3.14" depart="115.00" departLane="np3_nt3_0" departPos="37.31" departSpeed="0.00" departDelay="0.45" arrival="503.00" arrivalLane="nt14_np11_0" arrivalPos="75.00" arrivalSpeed="8.82" duration="388.00" routeLength="913.78" waitingTime="266.00" waitingCount="8" stopTime="0.00" timeLoss="311.62" rerouteNo="0" devices="tripinfo_f_0_3.14" vType="type1" speedFactor="1.00" vaporized=""/>
    <tripinfo id="f_0_3.15" depart="123.00" departLane="np3_nt3_0" departPos="15.10" departSpeed="0.00" departDelay="0.27" arrival="508.00" arrivalLane="nt14_np11_0" arrivalPos="75.00" arrivalSpeed="6.60" duration="385.00" routeLength="935.99" waitingTime="234.00" waitingCount="7" stopTime="0.00" timeLoss="278.46" rerouteNo="0" devices="tripinfo_f_0_3.15" vType="type1" speedFactor="0.74" vaporized=""/>
    <tripinfo id="f_0_2.9" depart="74.00" departLane="np2_nt2_0" departPos="56.63" departSpeed="0.00" departDelay="0.36" arrival="537.00" arrivalLane="nt15_np10_0" arrivalPos="75.00" arrivalSpeed="9.80" duration="463.00" routeLength="894.45" waitingTime="323.00" waitingCount="12" stopTime="0.00" timeLoss="395.17" rerouteNo="0" devices="tripinfo_f_0_2.9" vType="type1" speedFactor="1.10" vaporized=""/>
    <tripinfo id="f_0_3.16" depart="131.00" departLane="np3_nt3_0" departPos="38.54" departSpeed="0.00" departDelay="0.09" arrival="537.00" arrivalLane="nt14_np11_0" arrivalPos="75.00" arrivalSpeed="10.19" duration="406.00" routeLength="912.55" waitingTime="258.00" waitingCount="9" stopTime="0.00" timeLoss="327.89" rerouteNo="0" devices="tripinfo_f_0_3.16" vType="type1" speedFactor="0.97" vaporized=""/>
    <tripinfo id="f_0_3.17" depart="140.00" departLane="np3_nt3_0" departPos="29.60" departSpeed="0.00" departDelay="0.91" arrival="539.00" arrivalLane="nt14_np11_0" arrivalPos="75.00" arrivalSpeed="10.28" duration="399.00" routeLength="921.49" waitingTime="256.00" waitingCount="8" stopTime="0.00" timeLoss="327.14" rerouteNo="0" devices="tripinfo_f_0_3.17" vType="type1" speedFactor="1.07" vaporized=""/>
    <tripinfo id="f_0_3.18" depart="148.00" departLane="np3_nt3_0" departPos="18.96" departSpeed="0.00" departDelay="0.72" arrival="566.00" arrivalLane="nt14_np11_0" arrivalPos="75.00" arrivalSpeed="9.71" duration="418.00" routeLength="932.13" waitingTime="289.00" waitingCount="9" stopTime="0.00" timeLoss="347.77" rerouteNo="0" devices="tripinfo_f_0_3.18" vType="type1" speedFactor="1.11" vaporized=""/>
    <tripinfo id="f_0_0.11" depart="150.00" departLane="np13_nt13_0" departPos="29.48" departSpeed="0.00" departDelay="0.00" arrival="568.00" arrivalLane="nt4_np5_0" arrivalPos="75.00" arrivalSpeed="19.03" duration="418.00" routeLength="1318.41" waitingTime="274.00" waitingCount="11" stopTime="0.00" timeLoss="328.66" rerouteNo="0" devices="tripinfo_f_0_0.11" vType="type1" speedFactor="1.02" vaporized=""/>
    <tripinfo id="f_0_0.12" depart="164.00" departLane="np13_nt13_0" departPos="21.71" departSpeed="0.00" departDelay="0.37" arrival="584.00" arrivalLane="nt4_np5_0" arrivalPos="75.00" arrivalSpeed="17.34" duration="420.00" routeLength="1326.18" waitingTime="270.00" waitingCount="9" stopTime="0.00" timeLoss="321.62" rerouteNo="0" devices="tripinfo_f_0_0.12" vType="type1" speedFactor="0.94" vaporized=""/>
    <tripinfo id="f_0_0.13" depart="178.00" departLane="np13_nt13_0" departPos="62.38" departSpeed="0.00" departDelay="0.73" arrival="609.00" arrivalLane="nt4_np5_0" arrivalPos="75.00" arrivalSpeed="16.42" duration="431.00" routeLength="1285.51" waitingTime="268.00" waitingCount="9" stopTime="0.00" timeLoss="322.97" rerouteNo="0" devices="tripinfo_f_0_0.13" vType="type1" speedFactor="0.83" vaporized=""/>
    <tripinfo id="f_0_3.19" depart="156.00" departLane="np3_nt3_0" departPos="33.92" departSpeed="0.00" departDelay="0.54" arrival="627.00" arrivalLane="nt14_np11_0" arrivalPos="75.00" arrivalSpeed="11.07" duration="471.00" routeLength="917.17" waitingTime="338.00" waitingCount="10" stopTime="0.00" timeLoss="397.91" rerouteNo="0" devices="tripinfo_f_0_3.19" vType="type1" speedFactor="1.06" vaporized=""/>
    <tripinfo id="f_0_3.20" depart="164.00" departLane="np3_nt3_0" departPos="36.05" departSpeed="0.00" departDelay="0.36" arrival="629.00" arrivalLane="nt14_np11_0" arrivalPos="75.00" arrivalSpeed="9.88" duration="465.00" routeLength="915.04" waitingTime="332.00" waitingCount="11" stopTime="0.00" timeLoss="390.80" rerouteNo="0" devices="tripinfo_f_0_3.20" vType="type1" speedFactor="1.03" vaporized=""/>
    <tripinfo id="f_0_2.10" depart="82.00" departLane="np2_nt2_0" departPos="43.95" departSpeed="0.00" departDelay="0.18" arrival="662.00" arrivalLane="nt15_np10_0" arrivalPos="75.00" arrivalSpeed="9.93" duration="580.00" routeLength="907.13" waitingTime="431.00" waitingCount="12" stopTime="0.00" timeLoss="502.04" rerouteNo="0" devices="tripinfo_f_0_2.10" vType="type1" speedFactor="0.97" vaporized=""/>
    <tripinfo id="f_0_2.11" depart="90.00" departLane="np2_nt2_0" departPos="13.10" departSpeed="0.00" departDelay="0.00" arrival="664.00" arrivalLane="nt15_np10_0" arrivalPos="75.00" arrivalSpeed="8.42" duration="574.00" routeLength="937.98" waitingTime="418.00" waitingCount="12" stopTime="0.00" timeLoss="493.68" rerouteNo="0" devices="tripinfo_f_0_2.11" vType="type1" speedFactor="0.98" vaporized=""/>
    <tripinfo id="f_0_0.14" depart="191.00" departLane="np13_nt13_0" departPos="6.91" departSpeed="0.00" departDelay="0.10" arrival="677.00" arrivalLane="nt4_np5_0" arrivalPos="75.00" arrivalSpeed="17.56" duration="486.00" routeLength="1340.98" waitingTime="340.00" waitingCount="6" stopTime="0.00" timeLoss="391.51" rerouteNo="0" devices="tripinfo_f_0_0.14" vType="type1" speedFactor="0.98" vaporized=""/>
    <tripinfo id="f_0_2.12" depart="99.00" departLane="np2_nt2_0" departPos="26.51" departSpeed="0.00" departDelay="0.82" arrival="718.00" arrivalLane="nt15_np10_0" arrivalPos="75.00" arrivalSpeed="8.90" duration="619.00" routeLength="924.57" waitingTime="474.00" waitingCount="10" stopTime="0.00" timeLoss="536.55" rerouteNo="0" devices="tripinfo_f_0_2.12" vType="type1" speedFactor="0.94" vaporized=""/>
    <tripinfo id="f_0_3.21" depart="172.00" departLane="np3_nt3_0" departPos="9.26" departSpeed="0.00" departDelay="0.18" arrival="724.00" arrivalLane="nt14_np11_0" arrivalPos="75.00" arrivalSpeed="7.35" duration="552.00" routeLength="941.83" waitingTime="388.00" waitingCount="11" stopTime="0.00" timeLoss="454.98" rerouteNo="0" devices="tripinfo_f_0_3.21" vType="type1" speedFactor="0.81" vaporized=""/>
    <tripinfo id="f_0_3.22" depart="180.00" departLane="np3_nt3_0" departPos="18.73" departSpeed="0.00" departDelay="0.00" arrival="726.00" arrivalLane="nt14_np11_0" arrivalPos="75.00" arrivalSpeed="9.99" duration="546.00" routeLength="932.36" waitingTime="374.00" waitingCount="11" stopTime="0.00" timeLoss="469.10" rerouteNo="0" devices="tripinfo_f_0_3.22" vType="type1" speedFactor="1.02" vaporized=""/>
    <tripinfo id="f_0_0.15" depart="205.00" departLane="np13_nt13_0" departPos="31.41" departSpeed="0.00" departDelay="0.46" arrival="739.00" arrivalLane="nt4_np5_0" arrivalPos="75.00" arrivalSpeed="20.86" duration="534.00" routeLength="1316.48" waitingTime="383.00" waitingCount="8" stopTime="0.00" timeLoss="449.84" rerouteNo="0" devices="tripinfo_f_0_0.15" vType="type1" speedFactor="1.10" vaporized=""/>
    <tripinfo id="f_0_3.23" depart="189.00" departLane="np3_nt3_0" departPos="18.50" departSpeed="0.00" departDelay="0.81" arrival="748.00" arrivalLane="nt14_np11_0" arrivalPos="75.00" arrivalSpeed="7.98" duration="559.00" routeLength="932.59" waitingTime="388.00" waitingCount="11" stopTime="0.00" timeLoss="472.90" rerouteNo="0" devices="tripinfo_f_0_3.23" vType="type1" speedFactor="0.91" vaporized=""/>
    <tripinfo id="f_0_3.24" depart="197.00" departLane="np3_nt3_0" departPos="18.15" departSpeed="0.00" departDelay="0.63" arrival="750.00" arrivalLane="nt14_np11_0" arrivalPos="75.00" arrivalSpeed="9.37" duration="553.00" routeLength="932.94" waitingTime="381.00" waitingCount="11" stopTime="0.00" timeLoss="471.48" rerouteNo="0" devices="tripinfo_f_0_3.24" vType="type1" speedFactor="0.96" vaporized=""/>
    <tripinfo id="f_0_0.16" depart="219.00" departLane="np13_nt13_0" departPos="0.23" departSpeed="0.00" departDelay="0.82" arrival="764.00" arrivalLane="nt4_np5_0" arrivalPos="75.00" arrivalSpeed="17.08" duration="545.00" routeLength="1347.66" waitingTime="390.00" waitingCount="10" stopTime="0.00" timeLoss="447.18" rerouteNo="0" devices="tripinfo_f_0_0.16" vType="type1" speedFactor="0.96" vaporized=""/>
    <tripinfo id="f_0_3.25" depart="205.00" departLane="np3_nt3_0" departPos="31.89" departSpeed="0.00" departDelay="0.45" arrival="777.00" arrivalLane="nt14_np11_0" arrivalPos="75.00" arrivalSpeed="9.17" duration="572.00" routeLength="919.20" waitingTime="414.00" waitingCount="12" stopTime="0.00" timeLoss="498.66" rerouteNo="0" devices="tripinfo_f_0_3.25" vType="type1" speedFactor="1.04" vaporized=""/>
    <tripinfo id="f_0_3.26" depart="213.00" departLane="np3_nt3_0" departPos="34.20" departSpeed="0.00" departDelay="0.27" arrival="786.00" arrivalLane="nt14_np11_0" arrivalPos="75.00" arrivalSpeed="11.42" duration="573.00" routeLength="916.89" waitingTime="409.00" waitingCount="12" stopTime="0.00" timeLoss="504.90" rerouteNo="0" devices="tripinfo_f_0_3.26" vType="type1" speedFactor="1.13" vaporized=""/>
    <tripinfo id="f_0_2.13" depart="107.00" departLane="np2_nt2_0" departPos="2.69" departSpeed="0.00" departDelay="0.63" arrival="803.00" arrivalLane="nt15_np10_0" arrivalPos="75.00" arrivalSpeed="9.54" duration="696.00" routeLength="948.39" waitingTime="548.00" waitingCount="11" stopTime="0.00" timeLoss="613.56" rerouteNo="0" devices="tripinfo_f_0_2.13" vType="type1" speedFactor="0.98" vaporized=""/>
    <tripinfo id="f_0_2.14" depart="115.00" departLane="np2_nt2_0" departPos="29.17" departSpeed="0.00" departDelay="0.45" arrival="805.00" arrivalLane="nt15_np10_0" arrivalPos="75.00" arrivalSpeed="7.34" duration="690.00" routeLength="921.91" waitingTime="532.00" waitingCount="12" stopTime="0.00" timeLoss="602.28" rerouteNo="0" devices="tripinfo_f_0_2.14" vType="type1" speedFactor="0.88" vaporized=""/>
    <tripinfo id="f_0_3.27" depart="221.00" departLane="np3_nt3_0" departPos="26.99" departSpeed="0.00" departDelay="0.09" arrival="921.00" arrivalLane="nt14_np11_0" arrivalPos="75.00" arrivalSpeed="9.87" duration="700.00" routeLength="924.10" waitingTime="531.00" waitingCount="13" stopTime="0.00" timeLoss="630.12" rerouteNo="0" devices="tripinfo_f_0_3.27" vType="type1" speedFactor="1.11" vaporized=""/>
    <tripinfo id="f_0_3.28" depart="230.00" departLane="np3_nt3_0" departPos="32.36" departSpeed="0.00" departDelay="0.90" arrival="936.00" arrivalLane="nt14_np11_0" arrivalPos="75.00" arrivalSpeed="11.26" duration="706.00" routeLength="918.73" waitingTime="534.00" waitingCount="12" stopTime="0.00" timeLoss="639.61" rerouteNo="0" devices="tripinfo_f_0_3.28" vType="type1" speedFactor="1.15" vaporized=""/>
    <tripinfo id="f_0_0.17" depart="232.00" departLane="np13_nt13_0" departPos="50.02" departSpeed="0.00" departDelay="0.19" arrival="958.00" arrivalLane="nt4_np5_0" arrivalPos="75.00" arrivalSpeed="20.58" duration="726.00" routeLength="1297.87" waitingTime="572.00" waitingCount="11" stopTime="0.00" timeLoss="641.61" rerouteNo="0" devices="tripinfo_f_0_0.17" vType="type1" speedFactor="1.08" vaporized=""/>
    <tripinfo id="f_0_0.18" depart="246.00" departLane="np13_nt13_0" departPos="63.18" departSpeed="0.00" departDelay="0.55" arrival="966.00" arrivalLane="nt4_np5_0" arrivalPos="75.00" arrivalSpeed="15.98" duration="720.00" routeLength="1284.71" waitingTime="566.00" waitingCount="10" stopTime="0.00" timeLoss="622.10" rerouteNo="0" devices="tripinfo_f_0_0.18" vType="type1" speedFactor="0.92" vaporized=""/>
    <tripinfo id="f_0_3.29" depart="238.00" departLane="np3_nt3_0" departPos="35.19" departSpeed="0.00" departDelay="0.72" arrival="1044.00" arrivalLane="nt14_np11_0" arrivalPos="75.00" arrivalSpeed="8.04" duration="806.00" routeLength="915.90" waitingTime="613.00" waitingCount="12" stopTime="0.00" timeLoss="714.78" rerouteNo="0" devices="tripinfo_f_0_3.29" vType="type1" speedFactor="0.84" vaporized=""/>
    <tripinfo id="f_3_5.0" depart="900.00" departLane="np8_nt16_0" departPos="14.61" departSpeed="0.00" departDelay="0.00" arrival="1059.00" arrivalLane="nt1_np16_0" arrivalPos="67.80" arrivalSpeed="24.81" duration="159.00" routeLength="1333.27" waitingTime="49.00" waitingCount="6" stopTime="0.00" timeLoss="84.53" rerouteNo="0" devices="tripinfo_f_3_5.0" vType="type1" speedFactor="1.25" vaporized=""/>
    <tripinfo id="f_0_3.30" depart="246.00" departLane="np3_nt3_0" departPos="28.12" departSpeed="0.00" departDelay="0.54" arrival="1063.00" arrivalLane="nt14_np11_0" arrivalPos="75.00" arrivalSpeed="11.88" duration="817.00" routeLength="922.97" waitingTime="634.00" waitingCount="14" stopTime="0.00" timeLoss="746.07" rerouteNo="0" devices="tripinfo_f_0_3.30" vType="type1" speedFactor="1.10" vaporized=""/>
    <tripinfo id="f_0_3.31" depart="254.00" departLane="np3_nt3_0" departPos="3.87" departSpeed="0.00" departDelay="0.36" arrival="1072.00" arrivalLane="nt14_np11_0" arrivalPos="75.00" arrivalSpeed="11.32" duration="818.00" routeLength="947.22" waitingTime="616.00" waitingCount="13" stopTime="0.00" timeLoss="747.36" rerouteNo="0" devices="tripinfo_f_0_3.31" vType="type1" speedFactor="1.13" vaporized=""/>
    <tripinfo id="f_0_2.15" depart="123.00" departLane="np2_nt2_0" departPos="48.29" departSpeed="0.00" departDelay="0.27" arrival="1108.00" arrivalLane="nt15_np10_0" arrivalPos="75.00" arrivalSpeed="8.72" duration="985.00" routeLength="902.79" waitingTime="814.00" waitingCount="13" stopTime="0.00" timeLoss="903.92" rerouteNo="0" devices="tripinfo_f_0_2.15" vType="type1" speedFactor="0.93" vaporized=""/>
    <tripinfo id="f_0_1.1" depart="14.00" departLane="np16_nt1_0" departPos="34.31" departSpeed="0.00" departDelay="0.36" arrival="1123.00" arrivalLane="nt16_np8_0" arrivalPos="75.00" arrivalSpeed="16.34" duration="1109.00" routeLength="1313.57" waitingTime="895.00" waitingCount="16" stopTime="0.00" timeLoss="1005.42" rerouteNo="0" devices="tripinfo_f_0_1.1" vType="type1" speedFactor="0.89" vaporized=""/>
    <tripinfo id="f_0_2.16" depart="131.00" departLane="np2_nt2_0" departPos="14.89" departSpeed="0.00" departDelay="0.09" arrival="1133.00" arrivalLane="nt15_np10_0" arrivalPos="75.00" arrivalSpeed="9.12" duration="1002.00" routeLength="936.19" waitingTime="805.00" waitingCount="15" stopTime="0.00" timeLoss="916.28" rerouteNo="0" devices="tripinfo_f_0_2.16" vType="type1" speedFactor="0.92" vaporized=""/>