<?xml version="1.0" encoding="UTF-8"?>

<!-- generated on 2023-08-30 17:50:38 by Eclipse SUMO libsumo Version 1.18.0
<configuration xmlns:xsi="http://www.w3.org/2001/XMLSchema-instance" xsi:noNamespaceSchemaLocation="http://sumo.dlr.de/xsd/libsumoConfiguration.xsd">

    <input>
        <net-file value="/home/stefan/RESCO/./environments/arterial4x4/arterial4x4.net.xml"/>
        <route-files value="/home/stefan/RESCO/./environments/arterial4x4/arterial4x4_2.rou.xml"/>
    </input>

    <output>
        <tripinfo-output value="/home/stefan/results/RAINBOW-tr0-arterial4x4-0-drq_norm-wait_norm/tripinfo_2.xml"/>
        <tripinfo-output.write-unfinished value="true"/>
    </output>

    <processing>
        <time-to-teleport value="-1"/>
    </processing>

    <report>
        <no-warnings value="True"/>
        <no-step-log value="True"/>
    </report>

    <random_number>
        <random value="true"/>
    </random_number>

</configuration>
-->

<tripinfos xmlns:xsi="http://www.w3.org/2001/XMLSchema-instance" xsi:noNamespaceSchemaLocation="http://sumo.dlr.de/xsd/tripinfo_file.xsd">
    <tripinfo id="f_0_2.0" depart="0.00" departLane="np2_nt2_0" departPos="22.61" departSpeed="0.00" departDelay="0.00" arrival="132.00" arrivalLane="nt15_np10_0" arrivalPos="75.00" arrivalSpeed="10.58" duration="132.00" routeLength="928.47" waitingTime="36.00" waitingCount="3" stopTime="0.00" timeLoss="54.37" rerouteNo="0" devices="tripinfo_f_0_2.0" vType="type1" speedFactor="1.01" vaporized=""/>
    <tripinfo id="f_0_3.0" depart="0.00" departLane="np3_nt3_0" departPos="30.97" departSpeed="0.00" departDelay="0.00" arrival="142.00" arrivalLane="nt14_np11_0" arrivalPos="75.00" arrivalSpeed="10.22" duration="142.00" routeLength="920.12" waitingTime="48.00" waitingCount="4" stopTime="0.00" timeLoss="69.76" rerouteNo="0" devices="tripinfo_f_0_3.0" vType="type1" speedFactor="1.07" vaporized=""/>
    <tripinfo id="f_0_2.1" depart="9.00" departLane="np2_nt2_0" departPos="16.44" departSpeed="0.00" departDelay="0.82" arrival="146.00" arrivalLane="nt15_np10_0" arrivalPos="75.00" arrivalSpeed="10.09" duration="137.00" routeLength="934.64" waitingTime="44.00" waitingCount="4" stopTime="0.00" timeLoss="63.72" rerouteNo="0" devices="tripinfo_f_0_2.1" vType="type1" speedFactor="1.07" vaporized=""/>
    <tripinfo id="f_0_2.2" depart="17.00" departLane="np2_nt2_0" departPos="49.93" departSpeed="0.00" departDelay="0.64" arrival="148.00" arrivalLane="nt15_np10_0" arrivalPos="75.00" arrivalSpeed="13.04" duration="131.00" routeLength="901.15" waitingTime="36.00" waitingCount="5" stopTime="0.00" timeLoss="67.53" rerouteNo="0" devices="tripinfo_f_0_2.2" vType="type1" speedFactor="1.19" vaporized=""/>
    <tripinfo id="f_0_3.1" depart="9.00" departLane="np3_nt3_0" departPos="40.81" departSpeed="0.00" departDelay="0.82" arrival="162.00" arrivalLane="nt14_np11_0" arrivalPos="75.00" arrivalSpeed="8.11" duration="153.00" routeLength="910.28" waitingTime="51.00" waitingCount="3" stopTime="0.00" timeLoss="74.21" rerouteNo="0" devices="tripinfo_f_0_3.1" vType="type1" speedFactor="0.96" vaporized=""/>
    <tripinfo id="f_0_3.2" depart="17.00" departLane="np3_nt3_0" departPos="43.22" departSpeed="0.00" departDelay="0.64" arrival="188.00" arrivalLane="nt14_np11_0" arrivalPos="75.00" arrivalSpeed="10.68" duration="171.00" routeLength="907.87" waitingTime="66.00" waitingCount="6" stopTime="0.00" timeLoss="95.38" rerouteNo="0" devices="tripinfo_f_0_3.2" vType="type1" speedFactor="1.00" vaporized=""/>
    <tripinfo id="f_0_0.0" depart="0.00" departLane="np13_nt13_0" departPos="22.85" departSpeed="0.00" departDelay="0.00" arrival="203.00" arrivalLane="nt4_np5_0" arrivalPos="75.00" arrivalSpeed="16.62" duration="203.00" routeLength="1325.04" waitingTime="79.00" waitingCount="5" stopTime="0.00" timeLoss="106.28" rerouteNo="0" devices="tripinfo_f_0_0.0" vType="type1" speedFactor="0.95" vaporized=""/>
    <tripinfo id="f_0_0.1" depart="14.00" departLane="np13_nt13_0" departPos="2.58" departSpeed="0.00" departDelay="0.36" arrival="205.00" arrivalLane="nt4_np5_0" arrivalPos="75.00" arrivalSpeed="19.63" duration="191.00" routeLength="1345.31" waitingTime="61.00" waitingCount="7" stopTime="0.00" timeLoss="96.55" rerouteNo="0" devices="tripinfo_f_0_0.1" vType="type1" speedFactor="0.99" vaporized=""/>
    <tripinfo id="f_0_3.3" depart="25.00" departLane="np3_nt3_0" departPos="1.17" departSpeed="0.00" departDelay="0.45" arrival="213.00" arrivalLane="nt14_np11_0" arrivalPos="75.00" arrivalSpeed="8.07" duration="188.00" routeLength="949.92" waitingTime="70.00" waitingCount="6" stopTime="0.00" timeLoss="103.96" rerouteNo="0" devices="tripinfo_f_0_3.3" vType="type1" speedFactor="0.95" vaporized=""/>
    <tripinfo id="f_0_2.3" depart="25.00" departLane="np2_nt2_0" departPos="13.95" departSpeed="0.00" departDelay="0.45" arrival="219.00" arrivalLane="nt15_np10_0" arrivalPos="75.00" arrivalSpeed="7.30" duration="194.00" routeLength="937.13" waitingTime="69.00" waitingCount="4" stopTime="0.00" timeLoss="99.68" rerouteNo="0" devices="tripinfo_f_0_2.3" vType="type1" speedFactor="0.84" vaporized=""/>
    <tripinfo id="f_0_0.2" depart="28.00" departLane="np13_nt13_0" departPos="1.35" departSpeed="0.00" departDelay="0.73" arrival="254.00" arrivalLane="nt4_np5_0" arrivalPos="75.00" arrivalSpeed="19.23" duration="226.00" routeLength="1346.54" waitingTime="84.00" waitingCount="9" stopTime="0.00" timeLoss="129.07" rerouteNo="0" devices="tripinfo_f_0_0.2" vType="type1" speedFactor="0.96" vaporized=""/>
    <tripinfo id="f_0_0.3" depart="41.00" departLane="np13_nt13_0" departPos="8.01" departSpeed="0.00" departDelay="0.09" arrival="272.00" arrivalLane="nt4_np5_0" arrivalPos="75.00" arrivalSpeed="18.81" duration="231.00" routeLength="1339.88" waitingTime="90.00" waitingCount="7" stopTime="0.00" timeLoss="137.37" rerouteNo="0" devices="tripinfo_f_0_0.3" vType="type1" speedFactor="0.99" vaporized=""/>
    <tripinfo id="f_0_0.4" depart="55.00" departLane="np13_nt13_0" departPos="63.56" departSpeed="0.00" departDelay="0.46" arrival="283.00" arrivalLane="nt4_np5_0" arrivalPos="75.00" arrivalSpeed="16.53" duration="228.00" routeLength="1284.33" waitingTime="82.00" waitingCount="8" stopTime="0.00" timeLoss="125.90" rerouteNo="0" devices="tripinfo_f_0_0.4" vType="type1" speedFactor="0.88" vaporized=""/>
    <tripinfo id="f_0_2.4" depart="33.00" departLane="np2_nt2_0" departPos="27.42" departSpeed="0.00" departDelay="0.27" arrival="288.00" arrivalLane="nt15_np10_0" arrivalPos="75.00" arrivalSpeed="9.57" duration="255.00" routeLength="923.66" waitingTime="130.00" waitingCount="5" stopTime="0.00" timeLoss="170.82" rerouteNo="0" devices="tripinfo_f_0_2.4" vType="type1" speedFactor="0.92" vaporized=""/>
    <tripinfo id="f_0_2.5" depart="41.00" departLane="np2_nt2_0" departPos="42.19" departSpeed="0.00" departDelay="0.09" arrival="290.00" arrivalLane="nt15_np10_0" arrivalPos="75.00" arrivalSpeed="8.02" duration="249.00" routeLength="908.89" waitingTime="137.00" waitingCount="6" stopTime="0.00" timeLoss="168.29" rerouteNo="0" devices="tripinfo_f_0_2.5" vType="type1" speedFactor="0.94" vaporized=""/>
    <tripinfo id="f_0_3.4" depart="33.00" departLane="np3_nt3_0" departPos="7.01" departSpeed="0.00" departDelay="0.27" arrival="298.00" arrivalLane="nt14_np11_0" arrivalPos="75.00" arrivalSpeed="7.41" duration="265.00" routeLength="944.08" waitingTime="135.00" waitingCount="6" stopTime="0.00" timeLoss="173.33" rerouteNo="0" devices="tripinfo_f_0_3.4" vType="type1" speedFactor="0.86" vaporized=""/>
    <tripinfo id="f_0_3.5" depart="41.00" departLane="np3_nt3_0" departPos="1.29" departSpeed="0.00" departDelay="0.09" arrival="300.00" arrivalLane="nt14_np11_0" arrivalPos="75.00" arrivalSpeed="10.87" duration="259.00" routeLength="949.80" waitingTime="130.00" waitingCount="6" stopTime="0.00" timeLoss="182.95" rerouteNo="0" devices="tripinfo_f_0_3.5" vType="type1" speedFactor="1.05" vaporized=""/>
    <tripinfo id="f_0_2.6" depart="50.00" departLane="np2_nt2_0" departPos="49.82" departSpeed="0.00" departDelay="0.91" arrival="304.00" arrivalLane="nt15_np10_0" arrivalPos="75.00" arrivalSpeed="9.00" duration="254.00" routeLength="901.26" waitingTime="118.00" waitingCount="6" stopTime="0.00" timeLoss="173.81" rerouteNo="0" devices="tripinfo_f_0_2.6" vType="type1" speedFactor="0.94" vaporized=""/>
    <tripinfo id="f_0_1.0" depart="0.00" departLane="np16_nt1_0" departPos="11.93" departSpeed="0.00" departDelay="0.00" arrival="307.00" arrivalLane="nt16_np8_0" arrivalPos="75.00" arrivalSpeed="14.24" duration="307.00" routeLength="1335.95" waitingTime="148.00" waitingCount="7" stopTime="0.00" timeLoss="188.67" rerouteNo="0" devices="tripinfo_f_0_1.0" vType="type1" speedFactor="0.78" vaporized=""/>
    <tripinfo id="f_0_1.1" depart="14.00" departLane="np16_nt1_0" departPos="46.65" departSpeed="0.00" departDelay="0.36" arrival="310.00" arrivalLane="nt16_np8_0" arrivalPos="75.00" arrivalSpeed="17.65" duration="296.00" routeLength="1301.23" waitingTime="134.00" waitingCount="8" stopTime="0.00" timeLoss="194.34" rerouteNo="0" devices="tripinfo_f_0_1.1" vType="type1" speedFactor="0.90" vaporized=""/>
    <tripinfo id="f_0_2.7" depart="58.00" departLane="np2_nt2_0" departPos="7.80" departSpeed="0.00" departDelay="0.73" arrival="317.00" arrivalLane="nt15_np10_0" arrivalPos="75.00" arrivalSpeed="10.54" duration="259.00" routeLength="943.28" waitingTime="113.00" waitingCount="12" stopTime="0.00" timeLoss="184.40" rerouteNo="0" devices="tripinfo_f_0_2.7" vType="type1" speedFactor="1.06" vaporized=""/>
    <tripinfo id="f_0_0.5" depart="69.00" departLane="np13_nt13_0" departPos="60.60" departSpeed="0.00" departDelay="0.82" arrival="318.00" arrivalLane="nt4_np5_0" arrivalPos="75.00" arrivalSpeed="20.26" duration="249.00" routeLength="1287.29" waitingTime="103.00" waitingCount="10" stopTime="0.00" timeLoss="160.49" rerouteNo="0" devices="tripinfo_f_0_0.5" vType="type1" speedFactor="1.02" vaporized=""/>
    <tripinfo id="f_0_1.2" depart="28.00" departLane="np16_nt1_0" departPos="30.99" departSpeed="0.00" departDelay="0.73" arrival="323.00" arrivalLane="nt16_np8_0" arrivalPos="75.00" arrivalSpeed="18.07" duration="295.00" routeLength="1316.89" waitingTime="127.00" waitingCount="12" stopTime="0.00" timeLoss="200.95" rerouteNo="0" devices="tripinfo_f_0_1.2" vType="type1" speedFactor="0.97" vaporized=""/>
    <tripinfo id="f_0_2.8" depart="66.00" departLane="np2_nt2_0" departPos="31.50" departSpeed="0.00" departDelay="0.54" arrival="327.00" arrivalLane="nt15_np10_0" arrivalPos="75.00" arrivalSpeed="10.88" duration="261.00" routeLength="919.58" waitingTime="102.00" waitingCount="13" stopTime="0.00" timeLoss="186.89" rerouteNo="0" devices="tripinfo_f_0_2.8" vType="type1" speedFactor="1.05" vaporized=""/>
    <tripinfo id="f_0_1.3" depart="41.00" departLane="np16_nt1_0" departPos="31.14" departSpeed="0.00" departDelay="0.09" arrival="336.00" arrivalLane="nt16_np8_0" arrivalPos="75.00" arrivalSpeed="22.86" duration="295.00" routeLength="1316.74" waitingTime="118.00" waitingCount="14" stopTime="0.00" timeLoss="214.87" rerouteNo="0" devices="tripinfo_f_0_1.3" vType="type1" speedFactor="1.14" vaporized=""/>
    <tripinfo id="f_0_3.6" depart="50.00" departLane="np3_nt3_0" departPos="0.58" departSpeed="0.00" departDelay="0.91" arrival="362.00" arrivalLane="nt14_np11_0" arrivalPos="75.00" arrivalSpeed="9.94" duration="312.00" routeLength="950.51" waitingTime="180.00" waitingCount="9" stopTime="0.00" timeLoss="232.36" rerouteNo="0" devices="tripinfo_f_0_3.6" vType="type1" speedFactor="1.01" vaporized=""/>
    <tripinfo id="f_0_3.7" depart="58.00" departLane="np3_nt3_0" departPos="1.48" departSpeed="0.00" departDelay="0.73" arrival="364.00" arrivalLane="nt14_np11_0" arrivalPos="75.00" arrivalSpeed="11.74" duration="306.00" routeLength="949.61" waitingTime="171.00" waitingCount="8" stopTime="0.00" timeLoss="234.29" rerouteNo="0" devices="tripinfo_f_0_3.7" vType="type1" speedFactor="1.11" vaporized=""/>
    <tripinfo id="f_0_0.6" depart="82.00" departLane="np13_nt13_0" departPos="11.84" departSpeed="0.00" departDelay="0.18" arrival="364.00" arrivalLane="nt4_np5_0" arrivalPos="75.00" arrivalSpeed="17.93" duration="282.00" routeLength="1336.05" waitingTime="130.00" waitingCount="9" stopTime="0.00" timeLoss="180.39" rerouteNo="0" devices="tripinfo_f_0_0.6" vType="type1" speedFactor="0.91" vaporized=""/>
    <tripinfo id="f_0_3.8" depart="66.00" departLane="np3_nt3_0" departPos="4.10" departSpeed="0.00" departDelay="0.54" arrival="372.00" arrivalLane="nt14_np11_0" arrivalPos="75.00" arrivalSpeed="10.72" duration="306.00" routeLength="946.99" waitingTime="178.00" waitingCount="10" stopTime="0.00" timeLoss="233.46" rerouteNo="0" devices="tripinfo_f_0_3.8" vType="type1" speedFactor="1.10" vaporized=""/>
    <tripinfo id="f_0_3.9" depart="74.00" departLane="np3_nt3_0" departPos="0.48" departSpeed="0.00" departDelay="0.36" arrival="375.00" arrivalLane="nt14_np11_0" arrivalPos="75.00" arrivalSpeed="9.78" duration="301.00" routeLength="950.61" waitingTime="172.00" waitingCount="8" stopTime="0.00" timeLoss="216.49" rerouteNo="0" devices="tripinfo_f_0_3.9" vType="type1" speedFactor="0.95" vaporized=""/>
    <tripinfo id="f_0_0.7" depart="96.00" departLane="np13_nt13_0" departPos="12.18" departSpeed="0.00" departDelay="0.55" arrival="378.00" arrivalLane="nt4_np5_0" arrivalPos="75.00" arrivalSpeed="19.34" duration="282.00" routeLength="1335.71" waitingTime="136.00" waitingCount="8" stopTime="0.00" timeLoss="195.56" rerouteNo="0" devices="tripinfo_f_0_0.7" vType="type1" speedFactor="1.08" vaporized=""/>
    <tripinfo id="f_0_2.9" depart="74.00" departLane="np2_nt2_0" departPos="30.25" departSpeed="0.00" departDelay="0.36" arrival="393.00" arrivalLane="nt15_np10_0" arrivalPos="75.00" arrivalSpeed="8.47" duration="319.00" routeLength="920.83" waitingTime="167.00" waitingCount="12" stopTime="0.00" timeLoss="231.12" rerouteNo="0" devices="tripinfo_f_0_2.9" vType="type1" speedFactor="0.88" vaporized=""/>
    <tripinfo id="f_0_2.10" depart="82.00" departLane="np2_nt2_0" departPos="54.12" departSpeed="0.00" departDelay="0.18" arrival="396.00" arrivalLane="nt15_np10_0" arrivalPos="75.00" arrivalSpeed="9.88" duration="314.00" routeLength="896.96" waitingTime="164.00" waitingCount="11" stopTime="0.00" timeLoss="233.09" rerouteNo="0" devices="tripinfo_f_0_2.10" vType="type1" speedFactor="0.94" vaporized=""/>
    <tripinfo id="f_0_1.4" depart="55.00" departLane="np16_nt1_0" departPos="8.41" departSpeed="0.00" departDelay="0.46" arrival="423.00" arrivalLane="nt16_np8_0" arrivalPos="75.00" arrivalSpeed="24.00" duration="368.00" routeLength="1339.47" waitingTime="203.00" waitingCount="13" stopTime="0.00" timeLoss="290.98" rerouteNo="0" devices="tripinfo_f_0_1.4" vType="type1" speedFactor="1.20" vaporized=""/>
    <tripinfo id="f_0_3.10" depart="82.00" departLane="np3_nt3_0" departPos="1.41" departSpeed="0.00" departDelay="0.18" arrival="424.00" arrivalLane="nt14_np11_0" arrivalPos="75.00" arrivalSpeed="9.06" duration="342.00" routeLength="949.68" waitingTime="194.00" waitingCount="10" stopTime="0.00" timeLoss="250.25" rerouteNo="0" devices="tripinfo_f_0_3.10" vType="type1" speedFactor="0.88" vaporized=""/>
    <tripinfo id="f_0_3.11" depart="90.00" departLane="np3_nt3_0" departPos="3.49" departSpeed="0.00" departDelay="0.00" arrival="425.00" arrivalLane="nt14_np11_0" arrivalPos="75.00" arrivalSpeed="10.48" duration="335.00" routeLength="947.60" waitingTime="186.00" waitingCount="9" stopTime="0.00" timeLoss="260.64" rerouteNo="0" devices="tripinfo_f_0_3.11" vType="type1" speedFactor="1.07" vaporized=""/>
    <tripinfo id="f_0_2.11" depart="90.00" departLane="np2_nt2_0" departPos="12.94" departSpeed="0.00" departDelay="0.00" arrival="442.00" arrivalLane="nt15_np10_0" arrivalPos="75.00" arrivalSpeed="10.73" duration="352.00" routeLength="938.14" waitingTime="191.00" waitingCount="12" stopTime="0.00" timeLoss="274.86" rerouteNo="0" devices="tripinfo_f_0_2.11" vType="type1" speedFactor="1.02" vaporized=""/>
    <tripinfo id="f_0_3.12" depart="99.00" departLane="np3_nt3_0" departPos="26.64" departSpeed="0.00" departDelay="0.82" arrival="442.00" arrivalLane="nt14_np11_0" arrivalPos="75.00" arrivalSpeed="11.27" duration="343.00" routeLength="924.45" waitingTime="215.00" waitingCount="10" stopTime="0.00" timeLoss="270.79" rerouteNo="0" devices="tripinfo_f_0_3.12" vType="type1" speedFactor="1.08" vaporized=""/>
    <tripinfo id="f_0_3.13" depart="107.00" departLane="np3_nt3_0" departPos="1.40" departSpeed="0.00" departDelay="0.63" arrival="445.00" arrivalLane="nt14_np11_0" arrivalPos="75.00" arrivalSpeed="9.29" duration="338.00" routeLength="949.69" waitingTime="200.00" waitingCount="10" stopTime="0.00" timeLoss="257.17" rerouteNo="0" devices="tripinfo_f_0_3.13" vType="type1" speedFactor="0.99" vaporized=""/>
    <tripinfo id="f_0_3.14" depart="115.00" departLane="np3_nt3_0" departPos="13.70" departSpeed="0.00" departDelay="0.45" arrival="447.00" arrivalLane="nt14_np11_0" arrivalPos="75.00" arrivalSpeed="9.78" duration="332.00" routeLength="937.39" waitingTime="203.00" waitingCount="10" stopTime="0.00" timeLoss="259.09" rerouteNo="0" devices="tripinfo_f_0_3.14" vType="type1" speedFactor="1.08" vaporized=""/>
    <tripinfo id="f_0_0.8" depart="110.00" departLane="np13_nt13_0" departPos="53.67" departSpeed="0.00" departDelay="0.91" arrival="457.00" arrivalLane="nt4_np5_0" arrivalPos="75.00" arrivalSpeed="16.23" duration="347.00" routeLength="1294.22" waitingTime="210.00" waitingCount="8" stopTime="0.00" timeLoss="247.92" rerouteNo="0" devices="tripinfo_f_0_0.8" vType="type1" speedFactor="0.91" vaporized=""/>
    <tripinfo id="f_0_1.5" depart="69.00" departLane="np16_nt1_0" departPos="57.37" departSpeed="0.00" departDelay="0.82" arrival="458.00" arrivalLane="nt16_np8_0" arrivalPos="75.00" arrivalSpeed="21.13" duration="389.00" routeLength="1290.51" waitingTime="214.00" waitingCount="14" stopTime="0.00" timeLoss="307.09" rerouteNo="0" devices="tripinfo_f_0_1.5" vType="type1" speedFactor="1.11" vaporized=""/>
    <tripinfo id="f_0_1.6" depart="82.00" departLane="np16_nt1_0" departPos="12.04" departSpeed="0.00" departDelay="0.18" arrival="460.00" arrivalLane="nt16_np8_0" arrivalPos="75.00" arrivalSpeed="19.61" duration="378.00" routeLength="1335.84" waitingTime="182.00" waitingCount="14" stopTime="0.00" timeLoss="285.74" rerouteNo="0" devices="tripinfo_f_0_1.6" vType="type1" speedFactor="1.01" vaporized=""/>
    <tripinfo id="f_0_0.9" depart="123.00" departLane="np13_nt13_0" departPos="14.35" departSpeed="0.00" departDelay="0.28" arrival="460.00" arrivalLane="nt4_np5_0" arrivalPos="75.00" arrivalSpeed="15.63" duration="337.00" routeLength="1333.54" waitingTime="183.00" waitingCount="9" stopTime="0.00" timeLoss="232.21" rerouteNo="0" devices="tripinfo_f_0_0.9" vType="type1" speedFactor="0.89" vaporized=""/>
    <tripinfo id="f_0_2.12" depart="99.00" departLane="np2_nt2_0" departPos="13.61" departSpeed="0.00" departDelay="0.82" arrival="470.00" arrivalLane="nt15_np10_0" arrivalPos="75.00" arrivalSpeed="7.73" duration="371.00" routeLength="937.47" waitingTime="176.00" waitingCount="15" stopTime="0.00" timeLoss="271.03" rerouteNo="0" devices="tripinfo_f_0_2.12" vType="type1" speedFactor="0.79" vaporized=""/>
    <tripinfo id="f_0_0.10" depart="137.00" departLane="np13_nt13_0" departPos="53.16" departSpeed="0.00" departDelay="0.64" arrival="473.00" arrivalLane="nt4_np5_0" arrivalPos="75.00" arrivalSpeed="18.59" duration="336.00" routeLength="1294.73" waitingTime="185.00" waitingCount="10" stopTime="0.00" timeLoss="247.74" rerouteNo="0" devices="tripinfo_f_0_0.10" vType="type1" speedFactor="1.02" vaporized=""/>
    <tripinfo id="f_0_3.15" depart="123.00" departLane="np3_nt3_0" departPos="0.00" departSpeed="0.00" departDelay="0.27" arrival="479.00" arrivalLane="nt14_np11_0" arrivalPos="75.00" arrivalSpeed="8.47" duration="356.00" routeLength="951.09" waitingTime="210.00" waitingCount="10" stopTime="0.00" timeLoss="262.38" rerouteNo="0" devices="tripinfo_f_0_3.15" vType="type1" speedFactor="0.86" vaporized=""/>
    <tripinfo id="f_0_3.16" depart="131.00" departLane="np3_nt3_0" departPos="0.00" departSpeed="0.00" departDelay="0.09" arrival="480.00" arrivalLane="nt14_np11_0" arrivalPos="75.00" arrivalSpeed="11.15" duration="349.00" routeLength="951.09" waitingTime="216.00" waitingCount="11" stopTime="0.00" timeLoss="279.40" rerouteNo="0" devices="tripinfo_f_0_3.16" vType="type1" speedFactor="1.14" vaporized=""/>
    <tripinfo id="f_0_2.13" depart="107.00" departLane="np2_nt2_0" departPos="25.95" departSpeed="0.00" departDelay="0.63" arrival="496.00" arrivalLane="nt15_np10_0" arrivalPos="75.00" arrivalSpeed="11.11" duration="389.00" routeLength="925.13" waitingTime="185.00" waitingCount="15" stopTime="0.00" timeLoss="324.41" rerouteNo="0" devices="tripinfo_f_0_2.13" vType="type1" speedFactor="1.21" vaporized=""/>
    <tripinfo id="f_0_3.17" depart="148.00" departLane="np3_nt3_0" departPos="0.00" departSpeed="0.00" departDelay="8.91" arrival="496.00" arrivalLane="nt14_np11_0" arrivalPos="75.00" arrivalSpeed="10.22" duration="348.00" routeLength="951.09" waitingTime="211.00" waitingCount="12" stopTime="0.00" timeLoss="276.26" rerouteNo="0" devices="tripinfo_f_0_3.17" vType="type1" speedFactor="1.11" vaporized=""/>
    <tripinfo id="f_0_2.14" depart="115.00" departLane="np2_nt2_0" departPos="61.46" departSpeed="0.00" departDelay="0.45" arrival="507.00" arrivalLane="nt15_np10_0" arrivalPos="75.00" arrivalSpeed="10.48" duration="392.00" routeLength="889.62" waitingTime="181.00" waitingCount="16" stopTime="0.00" timeLoss="315.78" rerouteNo="0" devices="tripinfo_f_0_2.14" vType="type1" speedFactor="0.98" vaporized=""/>
    <tripinfo id="f_0_0.11" depart="150.00" departLane="np13_nt13_0" departPos="54.62" departSpeed="0.00" departDelay="0.00" arrival="509.00" arrivalLane="nt4_np5_0" arrivalPos="75.00" arrivalSpeed="17.84" duration="359.00" routeLength="1293.27" waitingTime="203.00" waitingCount="10" stopTime="0.00" timeLoss="259.47" rerouteNo="0" devices="tripinfo_f_0_0.11" vType="type1" speedFactor="0.91" vaporized=""/>
    <tripinfo id="f_0_2.15" depart="123.00" departLane="np2_nt2_0" departPos="60.34" departSpeed="0.00" departDelay="0.27" arrival="521.00" arrivalLane="nt15_np10_0" arrivalPos="75.00" arrivalSpeed="10.42" duration="398.00" routeLength="890.74" waitingTime="183.00" waitingCount="20" stopTime="0.00" timeLoss="332.00" rerouteNo="0" devices="tripinfo_f_0_2.15" vType="type1" speedFactor="1.13" vaporized=""/>
    <tripinfo id="f_0_1.7" depart="96.00" departLane="np16_nt1_0" departPos="65.97" departSpeed="0.00" departDelay="0.55" arrival="523.00" arrivalLane="nt16_np8_0" arrivalPos="75.00" arrivalSpeed="19.11" duration="427.00" routeLength="1281.91" waitingTime="188.00" waitingCount="20" stopTime="0.00" timeLoss="339.53" rerouteNo="0" devices="tripinfo_f_0_1.7" vType="type1" speedFactor="1.03" vaporized=""/>
    <tripinfo id="f_0_0.12" depart="164.00" departLane="np13_nt13_0" departPos="6.08" departSpeed="0.00" departDelay="0.37" arrival="528.00" arrivalLane="nt4_np5_0" arrivalPos="75.00" arrivalSpeed="23.05" duration="364.00" routeLength="1341.81" waitingTime="203.00" waitingCount="11" stopTime="0.00" timeLoss="286.83" rerouteNo="0" devices="tripinfo_f_0_0.12" vType="type1" speedFactor="1.20" vaporized=""/>
    <tripinfo id="f_0_1.8" depart="110.00" departLane="np16_nt1_0" departPos="31.00" departSpeed="0.00" departDelay="0.91" arrival="538.00" arrivalLane="nt16_np8_0" arrivalPos="75.00" arrivalSpeed="17.53" duration="428.00" routeLength="1316.88" waitingTime="216.00" waitingCount="14" stopTime="0.00" timeLoss="335.36" rerouteNo="0" devices="tripinfo_f_0_1.8" vType="type1" speedFactor="0.99" vaporized=""/>
    <tripinfo id="f_0_0.13" depart="178.00" departLane="np13_nt13_0" departPos="16.30" departSpeed="0.00" departDelay="0.73" arrival="548.00" arrivalLane="nt4_np5_0" arrivalPos="75.00" arrivalSpeed="18.09" duration="370.00" routeLength="1331.59" waitingTime="194.00" waitingCount="12" stopTime="0.00" timeLoss="270.69" rerouteNo="0" devices="tripinfo_f_0_0.13" vType="type1" speedFactor="0.93" vaporized=""/>
    <tripinfo id="f_0_0.14" depart="191.00" departLane="np13_nt13_0" departPos="37.63" departSpeed="0.00" departDelay="0.10" arrival="550.00" arrivalLane="nt4_np5_0" arrivalPos="75.00" arrivalSpeed="18.81" duration="359.00" routeLength="1310.26" waitingTime="186.00" waitingCount="11" stopTime="0.00" timeLoss="272.36" rerouteNo="0" devices="tripinfo_f_0_0.14" vType="type1" speedFactor="1.06" vaporized=""/>
    <tripinfo id="f_0_0.15" depart="205.00" departLane="np13_nt13_0" departPos="18.53" departSpeed="0.00" departDelay="0.46" arrival="563.00" arrivalLane="nt4_np5_0" arrivalPos="75.00" arrivalSpeed="18.09" duration="358.00" routeLength="1329.36" waitingTime="197.00" waitingCount="12" stopTime="0.00" timeLoss="268.44" rerouteNo="0" devices="tripinfo_f_0_0.15" vType="type1" speedFactor="1.03" vaporized=""/>
    <tripinfo id="f_0_0.16" depart="219.00" departLane="np13_nt13_0" departPos="27.70" departSpeed="0.00" departDelay="0.82" arrival="565.00" arrivalLane="nt4_np5_0" arrivalPos="75.00" arrivalSpeed="18.22" duration="346.00" routeLength="1320.19" waitingTime="189.00" waitingCount="10" stopTime="0.00" timeLoss="252.45" rerouteNo="0" devices="tripinfo_f_0_0.16" vType="type1" speedFactor="0.98" vaporized=""/>
    <tripinfo id="f_0_0.17" depart="232.00" departLane="np13_nt13_0" departPos="57.15" departSpeed="0.00" departDelay="0.19" arrival="567.00" arrivalLane="nt4_np5_0" arrivalPos="75.00" arrivalSpeed="16.63" duration="335.00" routeLength="1290.74" waitingTime="166.00" waitingCount="12" stopTime="0.00" timeLoss="239.29" rerouteNo="0" devices="tripinfo_f_0_0.17" vType="type1" speedFactor="0.94" vaporized=""/>
    <tripinfo id="f_0_0.18" depart="246.00" departLane="np13_nt13_0" departPos="39.87" departSpeed="0.00" departDelay="0.55" arrival="571.00" arrivalLane="nt4_np5_0" arrivalPos="75.00" arrivalSpeed="18.18" duration="325.00" routeLength="1308.02" waitingTime="159.00" waitingCount="11" stopTime="0.00" timeLoss="232.97" rerouteNo="0" devices="tripinfo_f_0_0.18" vType="type1" speedFactor="0.99" vaporized=""/>
    <tripinfo id="f_0_0.19" depart="260.00" departLane="np13_nt13_0" departPos="12.24" departSpeed="0.00" departDelay="0.92" arrival="586.00" arrivalLane="nt4_np5_0" arrivalPos="75.00" arrivalSpeed="17.80" duration="326.00" routeLength="1335.65" waitingTime="174.00" waitingCount="11" stopTime="0.00" timeLoss="228.84" rerouteNo="0" devices="tripinfo_f_0_0.19" vType="type1" speedFactor="0.95" vaporized=""/>
    <tripinfo id="f_0_1.9" depart="123.00" departLane="np16_nt1_0" departPos="13.41" departSpeed="0.00" departDelay="0.28" arrival="589.00" arrivalLane="nt16_np8_0" arrivalPos="75.00" arrivalSpeed="16.84" duration="466.00" routeLength="1334.47" waitingTime="263.00" waitingCount="11" stopTime="0.00" timeLoss="365.90" rerouteNo="0" devices="tripinfo_f_0_1.9" vType="type1" speedFactor="0.93" vaporized=""/>
    <tripinfo id="f_0_2.16" depart="131.00" departLane="np2_nt2_0" departPos="4.62" departSpeed="0.00" departDelay="0.09" arrival="598.00" arrivalLane="nt15_np10_0" arrivalPos="75.00" arrivalSpeed="12.33" duration="467.00" routeLength="946.46" waitingTime="287.00" waitingCount="12" stopTime="0.00" timeLoss="398.98" rerouteNo="0" devices="tripinfo_f_0_2.16" vType="type1" speedFactor="1.17" vaporized=""/>
    <tripinfo id="f_0_0.20" depart="273.00" departLane="np13_nt13_0" departPos="58.89" departSpeed="0.00" departDelay="0.28" arrival="621.00" arrivalLane="nt4_np5_0" arrivalPos="75.00" arrivalSpeed="19.05" duration="348.00" routeLength="1289.00" waitingTime="184.00" waitingCount="13" stopTime="0.00" timeLoss="256.09" rerouteNo="0" devices="tripinfo_f_0_0.20" vType="type1" speedFactor="0.99" vaporized=""/>
    <tripinfo id="f_0_3.18" depart="187.00" departLane="np3_nt3_0" departPos="0.00" departSpeed="0.00" departDelay="39.72" arrival="622.00" arrivalLane="nt14_np11_0" arrivalPos="75.00" arrivalSpeed="9.15" duration="435.00" routeLength="951.09" waitingTime="295.00" waitingCount="11" stopTime="0.00" timeLoss="357.75" rerouteNo="0" devices="tripinfo_f_0_3.18" vType="type1" speedFactor="1.03" vaporized=""/>
    <tripinfo id="f_0_3.19" depart="190.00" departLane="np3_nt3_0" departPos="0.00" departSpeed="0.00" departDelay="34.54" arrival="624.00" arrivalLane="nt14_np11_0" arrivalPos="75.00" arrivalSpeed="9.68" duration="434.00" routeLength="951.09" waitingTime="286.00" waitingCount="11" stopTime="0.00" timeLoss="360.48" rerouteNo="0" devices="tripinfo_f_0_3.19" vType="type1" speedFactor="1.09" vaporized=""/>
    <tripinfo id="f_0_3.27" depart="440.00" departLane="np3_nt3_0" departPos="64.38" departSpeed="0.00" departDelay="219.09" arrival="626.00" arrivalLane="nt14_np11_0" arrivalPos="75.00" arrivalSpeed="9.04" duration="186.00" routeLength="886.71" waitingTime="83.00" waitingCount="4" stopTime="0.00" timeLoss="112.55" rerouteNo="0" devices="tripinfo_f_0_3.27" vType="type1" speedFactor="1.01" vaporized=""/>
    <tripinfo id="f_0_3.20" depart="194.00" departLane="np3_nt3_0" departPos="0.00" departSpeed="0.00" departDelay="30.36" arrival="630.00" arrivalLane="nt14_np11_0" arrivalPos="75.00" arrivalSpeed="8.38" duration="436.00" routeLength="951.09" waitingTime="271.00" waitingCount="13" stopTime="0.00" timeLoss="347.52" rerouteNo="0" devices="tripinfo_f_0_3.20" vType="type1" speedFactor="0.90" vaporized=""/>
    <tripinfo id="f_0_2.17" depart="140.00" departLane="np2_nt2_0" departPos="17.34" departSpeed="0.00" departDelay="0.91" arrival="658.00" arrivalLane="nt15_np10_0" arrivalPos="75.00" arrivalSpeed="8.52" duration="518.00" routeLength="933.74" waitingTime="320.00" waitingCount="15" stopTime="0.00" timeLoss="434.00" rerouteNo="0" devices="tripinfo_f_0_2.17" vType="type1" speedFactor="0.94" vaporized=""/>