<?xml version="1.0" encoding="UTF-8"?>

<!-- generated on 2023-08-30 19:42:30 by Eclipse SUMO libsumo Version 1.18.0
<configuration xmlns:xsi="http://www.w3.org/2001/XMLSchema-instance" xsi:noNamespaceSchemaLocation="http://sumo.dlr.de/xsd/libsumoConfiguration.xsd">

    <input>
        <net-file value="/home/stefan/RESCO/./environments/arterial4x4/arterial4x4.net.xml"/>
        <route-files value="/home/stefan/RESCO/./environments/arterial4x4/arterial4x4_93.rou.xml"/>
    </input>

    <output>
        <tripinfo-output value="/home/stefan/results/RAINBOW-tr0-arterial4x4-0-drq_norm-wait_norm/tripinfo_93.xml"/>
        <tripinfo-output.write-unfinished value="true"/>
    </output>

    <processing>
        <time-to-teleport value="-1"/>
    </processing>

    <report>
        <no-warnings value="True"/>
        <no-step-log value="True"/>
    </report>

    <random_number>
        <random value="true"/>
    </random_number>

</configuration>
-->

<tripinfos xmlns:xsi="http://www.w3.org/2001/XMLSchema-instance" xsi:noNamespaceSchemaLocation="http://sumo.dlr.de/xsd/tripinfo_file.xsd">
    <tripinfo id="f_0_2.0" depart="0.00" departLane="np2_nt2_0" departPos="51.22" departSpeed="0.00" departDelay="0.00" arrival="2712.00" arrivalLane="nt15_np10_0" arrivalPos="75.00" arrivalSpeed="10.04" duration="2712.00" routeLength="899.86" waitingTime="2618.00" waitingCount="5" stopTime="0.00" timeLoss="2642.88" rerouteNo="0" devices="tripinfo_f_0_2.0" vType="type1" speedFactor="1.09" vaporized=""/>
    <tripinfo id="f_0_2.1" depart="9.00" departLane="np2_nt2_0" departPos="51.67" departSpeed="0.00" departDelay="0.82" arrival="2714.00" arrivalLane="nt15_np10_0" arrivalPos="75.00" arrivalSpeed="11.70" duration="2705.00" routeLength="899.41" waitingTime="2608.00" waitingCount="5" stopTime="0.00" timeLoss="2636.47" rerouteNo="0" devices="tripinfo_f_0_2.1" vType="type1" speedFactor="1.10" vaporized=""/>
    <tripinfo id="f_0_2.2" depart="17.00" departLane="np2_nt2_0" departPos="8.42" departSpeed="0.00" departDelay="0.64" arrival="2773.00" arrivalLane="nt15_np10_0" arrivalPos="75.00" arrivalSpeed="8.89" duration="2756.00" routeLength="942.66" waitingTime="2633.00" waitingCount="6" stopTime="0.00" timeLoss="2666.61" rerouteNo="0" devices="tripinfo_f_0_2.2" vType="type1" speedFactor="0.89" vaporized=""/>
    <tripinfo id="f_0_2.3" depart="25.00" departLane="np2_nt2_0" departPos="9.30" departSpeed="0.00" departDelay="0.45" arrival="2775.00" arrivalLane="nt15_np10_0" arrivalPos="75.00" arrivalSpeed="10.65" duration="2750.00" routeLength="941.78" waitingTime="2628.00" waitingCount="7" stopTime="0.00" timeLoss="2671.67" rerouteNo="0" devices="tripinfo_f_0_2.3" vType="type1" speedFactor="1.01" vaporized=""/>
    <tripinfo id="f_0_1.6" depart="82.00" departLane="np16_nt1_0" departPos="15.35" departSpeed="0.00" departDelay="0.18" arrival="2785.00" arrivalLane="nt16_np8_0" arrivalPos="75.00" arrivalSpeed="18.26" duration="2703.00" routeLength="1332.53" waitingTime="2558.00" waitingCount="7" stopTime="0.00" timeLoss="2607.79" rerouteNo="0" devices="tripinfo_f_0_1.6" vType="type1" speedFactor="0.98" vaporized=""/>
    <tripinfo id="f_0_1.7" depart="96.00" departLane="np16_nt1_0" departPos="59.89" departSpeed="0.00" departDelay="0.55" arrival="3069.00" arrivalLane="nt16_np8_0" arrivalPos="75.00" arrivalSpeed="18.22" duration="2973.00" routeLength="1287.99" waitingTime="2821.00" waitingCount="8" stopTime="0.00" timeLoss="2878.45" rerouteNo="0" devices="tripinfo_f_0_1.7" vType="type1" speedFactor="0.96" vaporized=""/>
    <tripinfo id="f_0_2.4" depart="33.00" departLane="np2_nt2_0" departPos="21.95" departSpeed="0.00" departDelay="0.27" arrival="3112.00" arrivalLane="nt15_np10_0" arrivalPos="75.00" arrivalSpeed="8.42" duration="3079.00" routeLength="929.13" waitingTime="2944.00" waitingCount="8" stopTime="0.00" timeLoss="2993.39" rerouteNo="0" devices="tripinfo_f_0_2.4" vType="type1" speedFactor="0.91" vaporized=""/>
    <tripinfo id="f_0_2.5" depart="41.00" departLane="np2_nt2_0" departPos="9.77" departSpeed="0.00" departDelay="0.09" arrival="3114.00" arrivalLane="nt15_np10_0" arrivalPos="75.00" arrivalSpeed="9.72" duration="3073.00" routeLength="941.31" waitingTime="2934.00" waitingCount="9" stopTime="0.00" timeLoss="2999.10" rerouteNo="0" devices="tripinfo_f_0_2.5" vType="type1" speedFactor="1.08" vaporized=""/>
    <tripinfo id="f_0_0.0" depart="0.00" departLane="np13_nt13_0" departPos="28.74" departSpeed="0.00" departDelay="0.00" arrival="-1.00" arrivalLane="" arrivalPos="-1.00" arrivalSpeed="-1.00" duration="3600.00" routeLength="1011.29" waitingTime="3493.00" waitingCount="5" stopTime="0.00" timeLoss="3521.99" rerouteNo="0" devices="tripinfo_f_0_0.0" vType="type1" speedFactor="0.97" vaporized="end"/>
    <tripinfo id="f_0_1.0" depart="0.00" departLane="np16_nt1_0" departPos="12.68" departSpeed="0.00" departDelay="0.00" arrival="-1.00" arrivalLane="" arrivalPos="-1.00" arrivalSpeed="-1.00" duration="3600.00" routeLength="737.65" waitingTime="3445.00" waitingCount="11" stopTime="0.00" timeLoss="3551.35" rerouteNo="0" devices="tripinfo_f_0_1.0" vType="type1" speedFactor="1.03" vaporized="end"/>
    <tripinfo id="f_0_3.0" depart="0.00" departLane="np3_nt3_0" departPos="8.72" departSpeed="0.00" departDelay="0.00" arrival="-1.00" arrivalLane="" arrivalPos="-1.00" arrivalSpeed="-1.00" duration="3600.00" routeLength="54.88" waitingTime="3590.00" waitingCount="1" stopTime="0.00" timeLoss="3593.54" rerouteNo="0" devices="tripinfo_f_0_3.0" vType="type1" speedFactor="0.91" vaporized="end"/>
    <tripinfo id="f_0_3.1" depart="9.00" departLane="np3_nt3_0" departPos="46.23" departSpeed="0.00" departDelay="0.82" arrival="-1.00" arrivalLane="" arrivalPos="-1.00" arrivalSpeed="-1.00" duration="3591.00" routeLength="9.87" waitingTime="3585.00" waitingCount="1" stopTime="0.00" timeLoss="3589.21" rerouteNo="0" devices="tripinfo_f_0_3.1" vType="type1" speedFactor="1.14" vaporized="end"/>
    <tripinfo id="f_0_0.1" depart="14.00" departLane="np13_nt13_0" departPos="10.39" departSpeed="0.00" departDelay="0.36" arrival="-1.00" arrivalLane="" arrivalPos="-1.00" arrivalSpeed="-1.00" duration="3586.00" routeLength="1022.14" waitingTime="3488.00" waitingCount="6" stopTime="0.00" timeLoss="3518.75" rerouteNo="0" devices="tripinfo_f_0_0.1" vType="type1" speedFactor="1.12" vaporized="end"/>
    <tripinfo id="f_0_1.1" depart="14.00" departLane="np16_nt1_0" departPos="46.51" departSpeed="0.00" departDelay="0.36" arrival="-1.00" arrivalLane="" arrivalPos="-1.00" arrivalSpeed="-1.00" duration="3586.00" routeLength="688.82" waitingTime="3451.00" waitingCount="9" stopTime="0.00" timeLoss="3542.12" rerouteNo="0" devices="tripinfo_f_0_1.1" vType="type1" speedFactor="1.07" vaporized="end"/>
    <tripinfo id="f_0_3.2" depart="17.00" departLane="np3_nt3_0" departPos="45.74" departSpeed="0.00" departDelay="0.64" arrival="-1.00" arrivalLane="" arrivalPos="-1.00" arrivalSpeed="-1.00" duration="3583.00" routeLength="2.86" waitingTime="3580.00" waitingCount="1" stopTime="0.00" timeLoss="3581.70" rerouteNo="0" devices="tripinfo_f_0_3.2" vType="type1" speedFactor="0.87" vaporized="end"/>
    <tripinfo id="f_0_3.3" depart="25.00" departLane="np3_nt3_0" departPos="34.63" departSpeed="0.00" departDelay="0.45" arrival="-1.00" arrivalLane="" arrivalPos="-1.00" arrivalSpeed="-1.00" duration="3575.00" routeLength="6.47" waitingTime="3570.00" waitingCount="1" stopTime="0.00" timeLoss="3573.38" rerouteNo="0" devices="tripinfo_f_0_3.3" vType="type1" speedFactor="0.95" vaporized="end"/>
    <tripinfo id="f_0_0.2" depart="28.00" departLane="np13_nt13_0" departPos="29.56" departSpeed="0.00" departDelay="0.73" arrival="-1.00" arrivalLane="" arrivalPos="-1.00" arrivalSpeed="-1.00" duration="3572.00" routeLength="995.47" waitingTime="3455.00" waitingCount="7" stopTime="0.00" timeLoss="3493.04" rerouteNo="0" devices="tripinfo_f_0_0.2" vType="type1" speedFactor="0.94" vaporized="end"/>
    <tripinfo id="f_0_1.2" depart="28.00" departLane="np16_nt1_0" departPos="44.05" departSpeed="0.00" departDelay="0.73" arrival="-1.00" arrivalLane="" arrivalPos="-1.00" arrivalSpeed="-1.00" duration="3572.00" routeLength="676.28" waitingTime="3445.00" waitingCount="11" stopTime="0.00" timeLoss="3530.75" rerouteNo="0" devices="tripinfo_f_0_1.2" vType="type1" speedFactor="1.11" vaporized="end"/>
    <tripinfo id="f_0_3.4" depart="33.00" departLane="np3_nt3_0" departPos="24.28" departSpeed="0.00" departDelay="0.27" arrival="-1.00" arrivalLane="" arrivalPos="-1.00" arrivalSpeed="-1.00" duration="3567.00" routeLength="9.32" waitingTime="3562.00" waitingCount="1" stopTime="0.00" timeLoss="3565.24" rerouteNo="0" devices="tripinfo_f_0_3.4" vType="type1" speedFactor="1.12" vaporized="end"/>
    <tripinfo id="f_0_0.3" depart="41.00" departLane="np13_nt13_0" departPos="64.75" departSpeed="0.00" departDelay="0.09" arrival="-1.00" arrivalLane="" arrivalPos="-1.00" arrivalSpeed="-1.00" duration="3559.00" routeLength="952.77" waitingTime="3431.00" waitingCount="9" stopTime="0.00" timeLoss="3476.11" rerouteNo="0" devices="tripinfo_f_0_0.3" vType="type1" speedFactor="0.86" vaporized="end"/>
    <tripinfo id="f_0_1.3" depart="41.00" departLane="np16_nt1_0" departPos="66.60" departSpeed="0.00" departDelay="0.09" arrival="-1.00" arrivalLane="" arrivalPos="-1.00" arrivalSpeed="-1.00" duration="3559.00" routeLength="638.72" waitingTime="3444.00" waitingCount="9" stopTime="0.00" timeLoss="3513.13" rerouteNo="0" devices="tripinfo_f_0_1.3" vType="type1" speedFactor="0.94" vaporized="end"/>
    <tripinfo id="f_0_3.5" depart="41.00" departLane="np3_nt3_0" departPos="12.71" departSpeed="0.00" departDelay="0.09" arrival="-1.00" arrivalLane="" arrivalPos="-1.00" arrivalSpeed="-1.00" duration="3559.00" routeLength="13.38" waitingTime="3555.00" waitingCount="1" stopTime="0.00" timeLoss="3556.57" rerouteNo="0" devices="tripinfo_f_0_3.5" vType="type1" speedFactor="0.85" vaporized="end"/>
    <tripinfo id="f_0_2.6" depart="50.00" departLane="np2_nt2_0" departPos="22.91" departSpeed="0.00" departDelay="0.91" arrival="-1.00" arrivalLane="" arrivalPos="-1.00" arrivalSpeed="-1.00" duration="3550.00" routeLength="623.87" waitingTime="3432.00" waitingCount="11" stopTime="0.00" timeLoss="3498.17" rerouteNo="0" devices="tripinfo_f_0_2.6" vType="type1" speedFactor="0.99" vaporized="end"/>
    <tripinfo id="f_0_3.6" depart="50.00" departLane="np3_nt3_0" departPos="18.11" departSpeed="0.00" departDelay="0.91" arrival="-1.00" arrivalLane="" arrivalPos="-1.00" arrivalSpeed="-1.00" duration="3550.00" routeLength="0.48" waitingTime="3548.00" waitingCount="1" stopTime="0.00" timeLoss="3548.96" rerouteNo="0" devices="tripinfo_f_0_3.6" vType="type1" speedFactor="0.98" vaporized="end"/>
    <tripinfo id="f_0_0.4" depart="55.00" departLane="np13_nt13_0" departPos="23.31" departSpeed="0.00" departDelay="0.46" arrival="-1.00" arrivalLane="" arrivalPos="-1.00" arrivalSpeed="-1.00" duration="3545.00" routeLength="986.71" waitingTime="3411.00" waitingCount="8" stopTime="0.00" timeLoss="3469.30" rerouteNo="0" devices="tripinfo_f_0_0.4" vType="type1" speedFactor="0.97" vaporized="end"/>
    <tripinfo id="f_0_1.4" depart="55.00" departLane="np16_nt1_0" departPos="41.34" departSpeed="0.00" departDelay="0.46" arrival="-1.00" arrivalLane="" arrivalPos="-1.00" arrivalSpeed="-1.00" duration="3545.00" routeLength="648.99" waitingTime="3428.00" waitingCount="10" stopTime="0.00" timeLoss="3508.24" rerouteNo="0" devices="tripinfo_f_0_1.4" vType="type1" speedFactor="1.17" vaporized="end"/>
    <tripinfo id="f_0_2.7" depart="58.00" departLane="np2_nt2_0" departPos="3.62" departSpeed="0.00" departDelay="0.73" arrival="-1.00" arrivalLane="" arrivalPos="-1.00" arrivalSpeed="-1.00" duration="3542.00" routeLength="635.66" waitingTime="3421.00" waitingCount="10" stopTime="0.00" timeLoss="3493.06" rerouteNo="0" devices="tripinfo_f_0_2.7" vType="type1" speedFactor="1.06" vaporized="end"/>
    <tripinfo id="f_0_3.7" depart="58.00" departLane="np3_nt3_0" departPos="3.18" departSpeed="0.00" departDelay="0.73" arrival="-1.00" arrivalLane="" arrivalPos="-1.00" arrivalSpeed="-1.00" duration="3542.00" routeLength="7.91" waitingTime="3536.00" waitingCount="1" stopTime="0.00" timeLoss="3540.34" rerouteNo="0" devices="tripinfo_f_0_3.7" vType="type1" speedFactor="1.10" vaporized="end"/>
    <tripinfo id="f_0_2.8" depart="66.00" departLane="np2_nt2_0" departPos="29.72" departSpeed="0.00" departDelay="0.54" arrival="-1.00" arrivalLane="" arrivalPos="-1.00" arrivalSpeed="-1.00" duration="3534.00" routeLength="594.56" waitingTime="3419.00" waitingCount="8" stopTime="0.00" timeLoss="3488.90" rerouteNo="0" devices="tripinfo_f_0_2.8" vType="type1" speedFactor="1.08" vaporized="end"/>
    <tripinfo id="f_0_3.8" depart="66.00" departLane="np3_nt3_0" departPos="1.75" departSpeed="0.00" departDelay="0.54" arrival="-1.00" arrivalLane="" arrivalPos="-1.00" arrivalSpeed="-1.00" duration="3534.00" routeLength="1.84" waitingTime="3530.00" waitingCount="1" stopTime="0.00" timeLoss="3532.82" rerouteNo="0" devices="tripinfo_f_0_3.8" vType="type1" speedFactor="0.95" vaporized="end"/>
    <tripinfo id="f_0_0.5" depart="69.00" departLane="np13_nt13_0" departPos="49.55" departSpeed="0.00" departDelay="0.82" arrival="-1.00" arrivalLane="" arrivalPos="-1.00" arrivalSpeed="-1.00" duration="3531.00" routeLength="605.47" waitingTime="3436.00" waitingCount="7" stopTime="0.00" timeLoss="3496.42" rerouteNo="0" devices="tripinfo_f_0_0.5" vType="type1" speedFactor="1.14" vaporized="end"/>
    <tripinfo id="f_0_1.5" depart="69.00" departLane="np16_nt1_0" departPos="45.52" departSpeed="0.00" departDelay="0.82" arrival="-1.00" arrivalLane="" arrivalPos="-1.00" arrivalSpeed="-1.00" duration="3531.00" routeLength="609.80" waitingTime="3413.00" waitingCount="10" stopTime="0.00" timeLoss="3495.27" rerouteNo="0" devices="tripinfo_f_0_1.5" vType="type1" speedFactor="1.11" vaporized="end"/>
    <tripinfo id="f_0_2.9" depart="74.00" departLane="np2_nt2_0" departPos="25.43" departSpeed="0.00" departDelay="0.36" arrival="-1.00" arrivalLane="" arrivalPos="-1.00" arrivalSpeed="-1.00" duration="3526.00" routeLength="583.84" waitingTime="3405.00" waitingCount="11" stopTime="0.00" timeLoss="3485.80" rerouteNo="0" devices="tripinfo_f_0_2.9" vType="type1" speedFactor="1.18" vaporized="end"/>
    <tripinfo id="f_0_0.6" depart="82.00" departLane="np13_nt13_0" departPos="43.57" departSpeed="0.00" departDelay="0.18" arrival="-1.00" arrivalLane="" arrivalPos="-1.00" arrivalSpeed="-1.00" duration="3518.00" routeLength="603.96" waitingTime="3419.00" waitingCount="7" stopTime="0.00" timeLoss="3476.79" rerouteNo="0" devices="tripinfo_f_0_0.6" vType="type1" speedFactor="0.95" vaporized="end"/>
    <tripinfo id="f_0_2.10" depart="82.00" departLane="np2_nt2_0" departPos="7.32" departSpeed="0.00" departDelay="0.18" arrival="-1.00" arrivalLane="" arrivalPos="-1.00" arrivalSpeed="-1.00" duration="3518.00" routeLength="579.45" waitingTime="3382.00" waitingCount="10" stopTime="0.00" timeLoss="3471.17" rerouteNo="0" devices="tripinfo_f_0_2.10" vType="type1" speedFactor="1.00" vaporized="end"/>
    <tripinfo id="f_0_2.11" depart="90.00" departLane="np2_nt2_0" departPos="22.28" departSpeed="0.00" departDelay="0.00" arrival="-1.00" arrivalLane="" arrivalPos="-1.00" arrivalSpeed="-1.00" duration="3510.00" routeLength="549.48" waitingTime="3369.00" waitingCount="10" stopTime="0.00" timeLoss="3469.84" rerouteNo="0" devices="tripinfo_f_0_2.11" vType="type1" speedFactor="1.10" vaporized="end"/>
    <tripinfo id="f_0_0.7" depart="96.00" departLane="np13_nt13_0" departPos="2.38" departSpeed="0.00" departDelay="0.55" arrival="-1.00" arrivalLane="" arrivalPos="-1.00" arrivalSpeed="-1.00" duration="3504.00" routeLength="637.64" waitingTime="3397.00" waitingCount="7" stopTime="0.00" timeLoss="3471.38" rerouteNo="0" devices="tripinfo_f_0_0.7" vType="type1" speedFactor="1.26" vaporized="end"/>
    <tripinfo id="f_0_2.12" depart="99.00" departLane="np2_nt2_0" departPos="9.52" departSpeed="0.00" departDelay="0.82" arrival="-1.00" arrivalLane="" arrivalPos="-1.00" arrivalSpeed="-1.00" duration="3501.00" routeLength="554.75" waitingTime="3355.00" waitingCount="10" stopTime="0.00" timeLoss="3464.14" rerouteNo="0" devices="tripinfo_f_0_2.12" vType="type1" speedFactor="1.21" vaporized="end"/>
    <tripinfo id="f_0_2.13" depart="107.00" departLane="np2_nt2_0" departPos="13.34" departSpeed="0.00" departDelay="0.63" arrival="-1.00" arrivalLane="" arrivalPos="-1.00" arrivalSpeed="-1.00" duration="3493.00" routeLength="535.93" waitingTime="3344.00" waitingCount="10" stopTime="0.00" timeLoss="3448.59" rerouteNo="0" devices="tripinfo_f_0_2.13" vType="type1" speedFactor="0.96" vaporized="end"/>
    <tripinfo id="f_0_0.8" depart="110.00" departLane="np13_nt13_0" departPos="8.84" departSpeed="0.00" departDelay="0.91" arrival="-1.00" arrivalLane="" arrivalPos="-1.00" arrivalSpeed="-1.00" duration="3490.00" routeLength="623.68" waitingTime="3379.00" waitingCount="7" stopTime="0.00" timeLoss="3449.71" rerouteNo="0" devices="tripinfo_f_0_0.8" vType="type1" speedFactor="0.98" vaporized="end"/>
    <tripinfo id="f_0_1.8" depart="110.00" departLane="np16_nt1_0" departPos="11.01" departSpeed="0.00" departDelay="0.91" arrival="-1.00" arrivalLane="" arrivalPos="-1.00" arrivalSpeed="-1.00" duration="3490.00" routeLength="628.74" waitingTime="3366.00" waitingCount="11" stopTime="0.00" timeLoss="3447.89" rerouteNo="0" devices="tripinfo_f_0_1.8" vType="type1" speedFactor="0.95" vaporized="end"/>
    <tripinfo id="f_0_2.14" depart="115.00" departLane="np2_nt2_0" departPos="25.53" departSpeed="0.00" departDelay="0.45" arrival="-1.00" arrivalLane="" arrivalPos="-1.00" arrivalSpeed="-1.00" duration="3485.00" routeLength="368.74" waitingTime="3365.00" waitingCount="12" stopTime="0.00" timeLoss="3453.78" rerouteNo="0" devices="tripinfo_f_0_2.14" vType="type1" speedFactor="0.89" vaporized="end"/>
    <tripinfo id="f_0_0.9" depart="123.00" departLane="np13_nt13_0" departPos="18.64" departSpeed="0.00" departDelay="0.28" arrival="-1.00" arrivalLane="" arrivalPos="-1.00" arrivalSpeed="-1.00" duration="3477.00" routeLength="606.39" waitingTime="3364.00" waitingCount="7" stopTime="0.00" timeLoss="3436.99" rerouteNo="0" devices="tripinfo_f_0_0.9" vType="type1" speedFactor="0.96" vaporized="end"/>
    <tripinfo id="f_0_1.9" depart="123.00" departLane="np16_nt1_0" departPos="63.86" departSpeed="0.00" departDelay="0.28" arrival="-1.00" arrivalLane="" arrivalPos="-1.00" arrivalSpeed="-1.00" duration="3477.00" routeLength="798.98" waitingTime="3361.00" waitingCount="9" stopTime="0.00" timeLoss="3420.46" rerouteNo="0" devices="tripinfo_f_0_1.9" vType="type1" speedFactor="1.02" vaporized="end"/>
    <tripinfo id="f_0_2.15" depart="123.00" departLane="np2_nt2_0" departPos="54.12" departSpeed="0.00" departDelay="0.27" arrival="-1.00" arrivalLane="" arrivalPos="-1.00" arrivalSpeed="-1.00" duration="3477.00" routeLength="332.65" waitingTime="3351.00" waitingCount="11" stopTime="0.00" timeLoss="3452.42" rerouteNo="0" devices="tripinfo_f_0_2.15" vType="type1" speedFactor="1.00" vaporized="end"/>
    <tripinfo id="f_0_2.16" depart="131.00" departLane="np2_nt2_0" departPos="1.86" departSpeed="0.00" departDelay="0.09" arrival="-1.00" arrivalLane="" arrivalPos="-1.00" arrivalSpeed="-1.00" duration="3469.00" routeLength="354.90" waitingTime="3328.00" waitingCount="11" stopTime="0.00" timeLoss="3442.13" rerouteNo="0" devices="tripinfo_f_0_2.16" vType="type1" speedFactor="0.99" vaporized="end"/>
    <tripinfo id="f_0_0.10" depart="137.00" departLane="np13_nt13_0" departPos="52.13" departSpeed="0.00" departDelay="0.64" arrival="-1.00" arrivalLane="" arrivalPos="-1.00" arrivalSpeed="-1.00" duration="3463.00" routeLength="565.40" waitingTime="3352.00" waitingCount="7" stopTime="0.00" timeLoss="3426.02" rerouteNo="0" devices="tripinfo_f_0_0.10" vType="type1" speedFactor="0.97" vaporized="end"/>
    <tripinfo id="f_0_1.10" depart="137.00" departLane="np16_nt1_0" departPos="21.25" departSpeed="0.00" departDelay="0.64" arrival="-1.00" arrivalLane="" arrivalPos="-1.00" arrivalSpeed="-1.00" duration="3463.00" routeLength="819.10" waitingTime="3339.00" waitingCount="8" stopTime="0.00" timeLoss="3413.17" rerouteNo="0" devices="tripinfo_f_0_1.10" vType="type1" speedFactor="1.16" vaporized="end"/>
    <tripinfo id="f_0_2.17" depart="140.00" departLane="np2_nt2_0" departPos="38.92" departSpeed="0.00" departDelay="0.91" arrival="-1.00" arrivalLane="" arrivalPos="-1.00" arrivalSpeed="-1.00" duration="3460.00" routeLength="562.85" waitingTime="3330.00" waitingCount="11" stopTime="0.00" timeLoss="3413.10" rerouteNo="0" devices="tripinfo_f_0_2.17" vType="type1" speedFactor="0.97" vaporized="end"/>
    <tripinfo id="f_0_2.18" depart="148.00" departLane="np2_nt2_0" departPos="17.45" departSpeed="0.00" departDelay="0.72" arrival="-1.00" arrivalLane="" arrivalPos="-1.00" arrivalSpeed="-1.00" duration="3452.00" routeLength="576.82" waitingTime="3318.00" waitingCount="9" stopTime="0.00" timeLoss="3405.35" rerouteNo="0" devices="tripinfo_f_0_2.18" vType="type1" speedFactor="0.99" vaporized="end"/>
    <tripinfo id="f_0_0.11" depart="150.00" departLane="np13_nt13_0" departPos="6.67" departSpeed="0.00" departDelay="0.00" arrival="-1.00" arrivalLane="" arrivalPos="-1.00" arrivalSpeed="-1.00" duration="3450.00" routeLength="603.36" waitingTime="3331.00" waitingCount="7" stopTime="0.00" timeLoss="3412.21" rerouteNo="0" devices="tripinfo_f_0_0.11" vType="type1" speedFactor="0.99" vaporized="end"/>
    <tripinfo id="f_0_1.11" depart="150.00" departLane="np16_nt1_0" departPos="6.80" departSpeed="0.00" departDelay="0.00" arrival="-1.00" arrivalLane="" arrivalPos="-1.00" arrivalSpeed="-1.00" duration="3450.00" routeLength="818.54" waitingTime="3326.00" waitingCount="8" stopTime="0.00" timeLoss="3394.98" rerouteNo="0" devices="tripinfo_f_0_1.11" vType="type1" speedFactor="1.04" vaporized="end"/>
    <tripinfo id="f_0_2.19" depart="156.00" departLane="np2_nt2_0" departPos="1.18" departSpeed="0.00" departDelay="0.54" arrival="-1.00" arrivalLane="" arrivalPos="-1.00" arrivalSpeed="-1.00" duration="3444.00" routeLength="578.09" waitingTime="3297.00" waitingCount="10" stopTime="0.00" timeLoss="3398.31" rerouteNo="0" devices="tripinfo_f_0_2.19" vType="type1" speedFactor="1.04" vaporized="end"/>
    <tripinfo id="f_0_0.12" depart="164.00" departLane="np13_nt13_0" departPos="5.35" departSpeed="0.00" departDelay="0.37" arrival="-1.00" arrivalLane="" arrivalPos="-1.00" arrivalSpeed="-1.00" duration="3436.00" routeLength="597.17" waitingTime="3316.00" waitingCount="7" stopTime="0.00" timeLoss="3404.42" rerouteNo="0" devices="tripinfo_f_0_0.12" vType="type1" speedFactor="1.17" vaporized="end"/>
    <tripinfo id="f_0_1.12" depart="164.00" departLane="np16_nt1_0" departPos="8.33" departSpeed="0.00" departDelay="0.37" arrival="-1.00" arrivalLane="" arrivalPos="-1.00" arrivalSpeed="-1.00" duration="3436.00" routeLength="734.50" waitingTime="3306.00" waitingCount="10" stopTime="0.00" timeLoss="3389.28" rerouteNo="0" devices="tripinfo_f_0_1.12" vType="type1" speedFactor="1.06" vaporized="end"/>
    <tripinfo id="f_0_2.20" depart="164.00" departLane="np2_nt2_0" departPos="23.42" departSpeed="0.00" departDelay="0.36" arrival="-1.00" arrivalLane="" arrivalPos="-1.00" arrivalSpeed="-1.00" duration="3436.00" routeLength="533.34" waitingTime="3287.00" waitingCount="13" stopTime="0.00" timeLoss="3388.69" rerouteNo="0" devices="tripinfo_f_0_2.20" vType="type1" speedFactor="0.90" vaporized="end"/>
    <tripinfo id="f_0_2.21" depart="172.00" departLane="np2_nt2_0" departPos="2.39" departSpeed="0.00" departDelay="0.18" arrival="-1.00" arrivalLane="" arrivalPos="-1.00" arrivalSpeed="-1.00" duration="3428.00" routeLength="486.87" waitingTime="3320.00" waitingCount="9" stopTime="0.00" timeLoss="3385.17" rerouteNo="0" devices="tripinfo_f_0_2.21" vType="type1" speedFactor="0.89" vaporized="end"/>
    <tripinfo id="f_0_0.13" depart="178.00" departLane="np13_nt13_0" departPos="33.51" departSpeed="0.00" departDelay="0.73" arrival="-1.00" arrivalLane="" arrivalPos="-1.00" arrivalSpeed="-1.00" duration="3422.00" routeLength="561.51" waitingTime="3303.00" waitingCount="7" stopTime="0.00" timeLoss="3387.24" rerouteNo="0" devices="tripinfo_f_0_0.13" vType="type1" speedFactor="1.00" vaporized="end"/>
    <tripinfo id="f_0_1.13" depart="178.00" departLane="np16_nt1_0" departPos="24.27" departSpeed="0.00" departDelay="0.73" arrival="-1.00" arrivalLane="" arrivalPos="-1.00" arrivalSpeed="-1.00" duration="3422.00" routeLength="703.56" waitingTime="3301.00" waitingCount="10" stopTime="0.00" timeLoss="3375.14" rerouteNo="0" devices="tripinfo_f_0_1.13" vType="type1" speedFactor="1.01" vaporized="end"/>
    <tripinfo id="f_0_2.22" depart="180.00" departLane="np2_nt2_0" departPos="7.24" departSpeed="0.00" departDelay="0.00" arrival="-1.00" arrivalLane="" arrivalPos="-1.00" arrivalSpeed="-1.00" duration="3420.00" routeLength="447.04" waitingTime="3309.00" waitingCount="10" stopTime="0.00" timeLoss="3381.91" rerouteNo="0" devices="tripinfo_f_0_2.22" vType="type1" speedFactor="0.93" vaporized="end"/>
    <tripinfo id="f_0_2.23" depart="189.00" departLane="np2_nt2_0" departPos="0.95" departSpeed="0.00" departDelay="0.81" arrival="-1.00" arrivalLane="" arrivalPos="-1.00" arrivalSpeed="-1.00" duration="3411.00" routeLength="438.17" waitingTime="3303.00" waitingCount="9" stopTime="0.00" timeLoss="3380.57" rerouteNo="0" devices="tripinfo_f_0_2.23" vType="type1" speedFactor="1.11" vaporized="end"/>
    <tripinfo id="f_0_0.14" depart="191.00" departLane="np13_nt13_0" departPos="25.22" departSpeed="0.00" departDelay="0.10" arrival="-1.00" arrivalLane="" arrivalPos="-1.00" arrivalSpeed="-1.00" duration="3409.00" routeLength="562.30" waitingTime="3285.00" waitingCount="7" stopTime="0.00" timeLoss="3373.10" rerouteNo="0" devices="tripinfo_f_0_0.14" vType="type1" speedFactor="0.97" vaporized="end"/>
    <tripinfo id="f_0_1.14" depart="191.00" departLane="np16_nt1_0" departPos="58.08" departSpeed="0.00" departDelay="0.10" arrival="-1.00" arrivalLane="" arrivalPos="-1.00" arrivalSpeed="-1.00" duration="3409.00" routeLength="654.75" waitingTime="3297.00" waitingCount="8" stopTime="0.00" timeLoss="3368.42" rerouteNo="0" devices="tripinfo_f_0_1.14" vType="type1" speedFactor="1.10" vaporized="end"/>
    <tripinfo id="f_0_2.24" depart="197.00" departLane="np2_nt2_0" departPos="14.96" departSpeed="0.00" departDelay="0.63" arrival="-1.00" arrivalLane="" arrivalPos="-1.00" arrivalSpeed="-1.00" duration="3403.00" routeLength="334.31" waitingTime="3274.00" waitingCount="13" stopTime="0.00" timeLoss="3380.92" rerouteNo="0" devices="tripinfo_f_0_2.24" vType="type1" speedFactor="1.10" vaporized="end"/>
    <tripinfo id="f_0_0.15" depart="205.00" departLane="np13_nt13_0" departPos="28.80" departSpeed="0.00" departDelay="0.46" arrival="-1.00" arrivalLane="" arrivalPos="-1.00" arrivalSpeed="-1.00" duration="3395.00" routeLength="551.22" waitingTime="3266.00" waitingCount="7" stopTime="0.00" timeLoss="3355.70" rerouteNo="0" devices="tripinfo_f_0_0.15" vType="type1" speedFactor="0.85" vaporized="end"/>
    <tripinfo id="f_0_1.15" depart="205.00" departLane="np16_nt1_0" departPos="2.32" departSpeed="0.00" departDelay="0.46" arrival="-1.00" arrivalLane="" arrivalPos="-1.00" arrivalSpeed="-1.00" duration="3395.00" routeLength="608.51" waitingTime="3288.00" waitingCount="8" stopTime="0.00" timeLoss="3360.40" rerouteNo="0" devices="tripinfo_f_0_1.15" vType="type1" speedFactor="1.09" vaporized="end"/>
    <tripinfo id="f_0_2.25" depart="205.00" departLane="np2_nt2_0" departPos="33.05" departSpeed="0.00" departDelay="0.45" arrival="-1.00" arrivalLane="" arrivalPos="-1.00" arrivalSpeed="-1.00" duration="3395.00" routeLength="388.99" waitingTime="3284.00" waitingCount="10" stopTime="0.00" timeLoss="3364.29" rerouteNo="0" devices="tripinfo_f_0_2.25" vType="type1" speedFactor="0.97" vaporized="end"/>
    <tripinfo id="f_0_2.26" depart="213.00" departLane="np2_nt2_0" departPos="2.20" departSpeed="0.00" departDelay="0.27" arrival="-1.00" arrivalLane="" arrivalPos="-1.00" arrivalSpeed="-1.00" duration="3387.00" routeLength="377.07" waitingTime="3258.00" waitingCount="10" stopTime="0.00" timeLoss="3357.86" rerouteNo="0" devices="tripinfo_f_0_2.26" vType="type1" speedFactor="0.98" vaporized="end"/>
    <tripinfo id="f_0_0.16" depart="219.00" departLane="np13_nt13_0" departPos="46.52" departSpeed="0.00" departDelay="0.82" arrival="-1.00" arrivalLane="" arrivalPos="-1.00" arrivalSpeed="-1.00" duration="3381.00" routeLength="518.50" waitingTime="3253.00" waitingCount="9" stopTime="0.00" timeLoss="3348.92" rerouteNo="0" devices="tripinfo_f_0_0.16" vType="type1" speedFactor="0.97" vaporized="end"/>
    <tripinfo id="f_0_1.16" depart="219.00" departLane="np16_nt1_0" departPos="46.57" departSpeed="0.00" departDelay="0.82" arrival="-1.00" arrivalLane="" arrivalPos="-1.00" arrivalSpeed="-1.00" duration="3381.00" routeLength="526.27" waitingTime="3263.00" waitingCount="7" stopTime="0.00" timeLoss="3349.89" rerouteNo="0" devices="tripinfo_f_0_1.16" vType="type1" speedFactor="1.04" vaporized="end"/>
    <tripinfo id="f_0_2.27" depart="221.00" departLane="np2_nt2_0" departPos="15.57" departSpeed="0.00" departDelay="0.09" arrival="-1.00" arrivalLane="" arrivalPos="-1.00" arrivalSpeed="-1.00" duration="3379.00" routeLength="395.70" waitingTime="3264.00" waitingCount="8" stopTime="0.00" timeLoss="3351.72" rerouteNo="0" devices="tripinfo_f_0_2.27" vType="type1" speedFactor="1.13" vaporized="end"/>
    <tripinfo id="f_0_2.28" depart="230.00" departLane="np2_nt2_0" departPos="19.84" departSpeed="0.00" departDelay="0.90" arrival="-1.00" arrivalLane="" arrivalPos="-1.00" arrivalSpeed="-1.00" duration="3370.00" routeLength="314.42" waitingTime="3237.00" waitingCount="7" stopTime="0.00" timeLoss="3341.23" rerouteNo="0" devices="tripinfo_f_0_2.28" vType="type1" speedFactor="0.78" vaporized="end"/>