<?xml version="1.0" encoding="UTF-8"?>

<!-- generated on 2023-08-30 19:47:16 by Eclipse SUMO libsumo Version 1.18.0
<configuration xmlns:xsi="http://www.w3.org/2001/XMLSchema-instance" xsi:noNamespaceSchemaLocation="http://sumo.dlr.de/xsd/libsumoConfiguration.xsd">

    <input>
        <net-file value="/home/stefan/RESCO/./environments/arterial4x4/arterial4x4.net.xml"/>
        <route-files value="/home/stefan/RESCO/./environments/arterial4x4/arterial4x4_97.rou.xml"/>
    </input>

    <output>
        <tripinfo-output value="/home/stefan/results/RAINBOW-tr0-arterial4x4-0-drq_norm-wait_norm/tripinfo_97.xml"/>
        <tripinfo-output.write-unfinished value="true"/>
    </output>

    <processing>
        <time-to-teleport value="-1"/>
    </processing>

    <report>
        <no-warnings value="True"/>
        <no-step-log value="True"/>
    </report>

    <random_number>
        <random value="true"/>
    </random_number>

</configuration>
-->

<tripinfos xmlns:xsi="http://www.w3.org/2001/XMLSchema-instance" xsi:noNamespaceSchemaLocation="http://sumo.dlr.de/xsd/tripinfo_file.xsd">
    <tripinfo id="f_0_0.0" depart="0.00" departLane="np13_nt13_0" departPos="47.78" departSpeed="0.00" departDelay="0.00" arrival="-1.00" arrivalLane="" arrivalPos="-1.00" arrivalSpeed="-1.00" duration="3600.00" routeLength="607.25" waitingTime="3540.00" waitingCount="3" stopTime="0.00" timeLoss="3561.08" rerouteNo="0" devices="tripinfo_f_0_0.0" vType="type1" speedFactor="1.02" vaporized="end"/>
    <tripinfo id="f_0_1.0" depart="0.00" departLane="np16_nt1_0" departPos="67.05" departSpeed="0.00" departDelay="0.00" arrival="-1.00" arrivalLane="" arrivalPos="-1.00" arrivalSpeed="-1.00" duration="3600.00" routeLength="264.64" waitingTime="3578.00" waitingCount="3" stopTime="0.00" timeLoss="3586.94" rerouteNo="0" devices="tripinfo_f_0_1.0" vType="type1" speedFactor="1.10" vaporized="end"/>
    <tripinfo id="f_0_2.0" depart="0.00" departLane="np2_nt2_0" departPos="33.79" departSpeed="0.00" departDelay="0.00" arrival="-1.00" arrivalLane="" arrivalPos="-1.00" arrivalSpeed="-1.00" duration="3600.00" routeLength="620.49" waitingTime="3533.00" waitingCount="3" stopTime="0.00" timeLoss="3550.64" rerouteNo="0" devices="tripinfo_f_0_2.0" vType="type1" speedFactor="1.03" vaporized="end"/>
    <tripinfo id="f_0_3.0" depart="0.00" departLane="np3_nt3_0" departPos="47.04" departSpeed="0.00" departDelay="0.00" arrival="-1.00" arrivalLane="" arrivalPos="-1.00" arrivalSpeed="-1.00" duration="3600.00" routeLength="16.56" waitingTime="3593.00" waitingCount="1" stopTime="0.00" timeLoss="3597.46" rerouteNo="0" devices="tripinfo_f_0_3.0" vType="type1" speedFactor="0.98" vaporized="end"/>
    <tripinfo id="f_0_2.1" depart="9.00" departLane="np2_nt2_0" departPos="57.21" departSpeed="0.00" departDelay="0.82" arrival="-1.00" arrivalLane="" arrivalPos="-1.00" arrivalSpeed="-1.00" duration="3591.00" routeLength="589.57" waitingTime="3528.00" waitingCount="3" stopTime="0.00" timeLoss="3541.60" rerouteNo="0" devices="tripinfo_f_0_2.1" vType="type1" speedFactor="0.96" vaporized="end"/>
    <tripinfo id="f_0_3.1" depart="9.00" departLane="np3_nt3_0" departPos="37.04" departSpeed="0.00" departDelay="0.82" arrival="-1.00" arrivalLane="" arrivalPos="-1.00" arrivalSpeed="-1.00" duration="3591.00" routeLength="19.05" waitingTime="3584.00" waitingCount="1" stopTime="0.00" timeLoss="3588.36" rerouteNo="0" devices="tripinfo_f_0_3.1" vType="type1" speedFactor="1.06" vaporized="end"/>
    <tripinfo id="f_0_0.1" depart="14.00" departLane="np13_nt13_0" departPos="46.13" departSpeed="0.00" departDelay="0.36" arrival="-1.00" arrivalLane="" arrivalPos="-1.00" arrivalSpeed="-1.00" duration="3586.00" routeLength="601.39" waitingTime="3531.00" waitingCount="3" stopTime="0.00" timeLoss="3552.90" rerouteNo="0" devices="tripinfo_f_0_0.1" vType="type1" speedFactor="1.17" vaporized="end"/>
    <tripinfo id="f_0_1.1" depart="14.00" departLane="np16_nt1_0" departPos="67.39" departSpeed="0.00" departDelay="0.36" arrival="-1.00" arrivalLane="" arrivalPos="-1.00" arrivalSpeed="-1.00" duration="3586.00" routeLength="256.78" waitingTime="3564.00" waitingCount="2" stopTime="0.00" timeLoss="3571.95" rerouteNo="0" devices="tripinfo_f_0_1.1" vType="type1" speedFactor="0.98" vaporized="end"/>
    <tripinfo id="f_0_2.2" depart="17.00" departLane="np2_nt2_0" departPos="38.06" departSpeed="0.00" departDelay="0.64" arrival="-1.00" arrivalLane="" arrivalPos="-1.00" arrivalSpeed="-1.00" duration="3583.00" routeLength="601.22" waitingTime="3513.00" waitingCount="3" stopTime="0.00" timeLoss="3531.79" rerouteNo="0" devices="tripinfo_f_0_2.2" vType="type1" speedFactor="0.95" vaporized="end"/>
    <tripinfo id="f_0_3.2" depart="17.00" departLane="np3_nt3_0" departPos="2.87" departSpeed="0.00" departDelay="0.64" arrival="-1.00" arrivalLane="" arrivalPos="-1.00" arrivalSpeed="-1.00" duration="3583.00" routeLength="45.73" waitingTime="3575.00" waitingCount="1" stopTime="0.00" timeLoss="3577.61" rerouteNo="0" devices="tripinfo_f_0_3.2" vType="type1" speedFactor="0.95" vaporized="end"/>
    <tripinfo id="f_0_2.3" depart="25.00" departLane="np2_nt2_0" departPos="20.16" departSpeed="0.00" departDelay="0.45" arrival="-1.00" arrivalLane="" arrivalPos="-1.00" arrivalSpeed="-1.00" duration="3575.00" routeLength="611.61" waitingTime="3501.00" waitingCount="3" stopTime="0.00" timeLoss="3521.16" rerouteNo="0" devices="tripinfo_f_0_2.3" vType="type1" speedFactor="0.93" vaporized="end"/>
    <tripinfo id="f_0_3.3" depart="25.00" departLane="np3_nt3_0" departPos="17.95" departSpeed="0.00" departDelay="0.45" arrival="-1.00" arrivalLane="" arrivalPos="-1.00" arrivalSpeed="-1.00" duration="3575.00" routeLength="23.14" waitingTime="3570.00" waitingCount="1" stopTime="0.00" timeLoss="3571.65" rerouteNo="0" devices="tripinfo_f_0_3.3" vType="type1" speedFactor="0.89" vaporized="end"/>
    <tripinfo id="f_0_0.2" depart="28.00" departLane="np13_nt13_0" departPos="8.63" departSpeed="0.00" departDelay="0.73" arrival="-1.00" arrivalLane="" arrivalPos="-1.00" arrivalSpeed="-1.00" duration="3572.00" routeLength="631.39" waitingTime="3502.00" waitingCount="3" stopTime="0.00" timeLoss="3526.05" rerouteNo="0" devices="tripinfo_f_0_0.2" vType="type1" speedFactor="0.87" vaporized="end"/>
    <tripinfo id="f_0_1.2" depart="28.00" departLane="np16_nt1_0" departPos="40.50" departSpeed="0.00" departDelay="0.73" arrival="-1.00" arrivalLane="" arrivalPos="-1.00" arrivalSpeed="-1.00" duration="3572.00" routeLength="276.06" waitingTime="3544.00" waitingCount="2" stopTime="0.00" timeLoss="3553.50" rerouteNo="0" devices="tripinfo_f_0_1.2" vType="type1" speedFactor="0.79" vaporized="end"/>
    <tripinfo id="f_0_2.4" depart="33.00" departLane="np2_nt2_0" departPos="48.41" departSpeed="0.00" departDelay="0.27" arrival="-1.00" arrivalLane="" arrivalPos="-1.00" arrivalSpeed="-1.00" duration="3567.00" routeLength="575.86" waitingTime="3497.00" waitingCount="3" stopTime="0.00" timeLoss="3517.65" rerouteNo="0" devices="tripinfo_f_0_2.4" vType="type1" speedFactor="0.94" vaporized="end"/>
    <tripinfo id="f_0_3.4" depart="33.00" departLane="np3_nt3_0" departPos="28.84" departSpeed="0.00" departDelay="0.27" arrival="-1.00" arrivalLane="" arrivalPos="-1.00" arrivalSpeed="-1.00" duration="3567.00" routeLength="4.76" waitingTime="3563.00" waitingCount="1" stopTime="0.00" timeLoss="3565.55" rerouteNo="0" devices="tripinfo_f_0_3.4" vType="type1" speedFactor="0.96" vaporized="end"/>
    <tripinfo id="f_0_0.3" depart="41.00" departLane="np13_nt13_0" departPos="31.58" departSpeed="0.00" departDelay="0.09" arrival="-1.00" arrivalLane="" arrivalPos="-1.00" arrivalSpeed="-1.00" duration="3559.00" routeLength="600.95" waitingTime="3487.00" waitingCount="3" stopTime="0.00" timeLoss="3516.37" rerouteNo="0" devices="tripinfo_f_0_0.3" vType="type1" speedFactor="0.90" vaporized="end"/>
    <tripinfo id="f_0_1.3" depart="41.00" departLane="np16_nt1_0" departPos="54.33" departSpeed="0.00" departDelay="0.09" arrival="-1.00" arrivalLane="" arrivalPos="-1.00" arrivalSpeed="-1.00" duration="3559.00" routeLength="254.70" waitingTime="3532.00" waitingCount="2" stopTime="0.00" timeLoss="3543.37" rerouteNo="0" devices="tripinfo_f_0_1.3" vType="type1" speedFactor="0.87" vaporized="end"/>
    <tripinfo id="f_0_2.5" depart="41.00" departLane="np2_nt2_0" departPos="0.04" departSpeed="0.00" departDelay="0.09" arrival="-1.00" arrivalLane="" arrivalPos="-1.00" arrivalSpeed="-1.00" duration="3559.00" routeLength="616.73" waitingTime="3488.00" waitingCount="3" stopTime="0.00" timeLoss="3511.32" rerouteNo="0" devices="tripinfo_f_0_2.5" vType="type1" speedFactor="1.05" vaporized="end"/>
    <tripinfo id="f_0_3.5" depart="41.00" departLane="np3_nt3_0" departPos="17.30" departSpeed="0.00" departDelay="0.09" arrival="-1.00" arrivalLane="" arrivalPos="-1.00" arrivalSpeed="-1.00" duration="3559.00" routeLength="8.79" waitingTime="3554.00" waitingCount="1" stopTime="0.00" timeLoss="3556.97" rerouteNo="0" devices="tripinfo_f_0_3.5" vType="type1" speedFactor="0.78" vaporized="end"/>
    <tripinfo id="f_0_2.6" depart="50.00" departLane="np2_nt2_0" departPos="14.05" departSpeed="0.00" departDelay="0.91" arrival="-1.00" arrivalLane="" arrivalPos="-1.00" arrivalSpeed="-1.00" duration="3550.00" routeLength="595.23" waitingTime="3482.00" waitingCount="3" stopTime="0.00" timeLoss="3507.28" rerouteNo="0" devices="tripinfo_f_0_2.6" vType="type1" speedFactor="1.12" vaporized="end"/>
    <tripinfo id="f_0_3.6" depart="50.00" departLane="np3_nt3_0" departPos="0.52" departSpeed="0.00" departDelay="0.91" arrival="-1.00" arrivalLane="" arrivalPos="-1.00" arrivalSpeed="-1.00" duration="3550.00" routeLength="18.08" waitingTime="3544.00" waitingCount="1" stopTime="0.00" timeLoss="3547.23" rerouteNo="0" devices="tripinfo_f_0_3.6" vType="type1" speedFactor="0.93" vaporized="end"/>
    <tripinfo id="f_0_0.4" depart="55.00" departLane="np13_nt13_0" departPos="15.71" departSpeed="0.00" departDelay="0.46" arrival="-1.00" arrivalLane="" arrivalPos="-1.00" arrivalSpeed="-1.00" duration="3545.00" routeLength="609.32" waitingTime="3483.00" waitingCount="4" stopTime="0.00" timeLoss="3509.15" rerouteNo="0" devices="tripinfo_f_0_0.4" vType="type1" speedFactor="1.07" vaporized="end"/>
    <tripinfo id="f_0_1.4" depart="55.00" departLane="np16_nt1_0" departPos="52.11" departSpeed="0.00" departDelay="0.46" arrival="-1.00" arrivalLane="" arrivalPos="-1.00" arrivalSpeed="-1.00" duration="3545.00" routeLength="249.34" waitingTime="3521.00" waitingCount="2" stopTime="0.00" timeLoss="3533.65" rerouteNo="0" devices="tripinfo_f_0_1.4" vType="type1" speedFactor="1.20" vaporized="end"/>
    <tripinfo id="f_0_2.7" depart="58.00" departLane="np2_nt2_0" departPos="1.65" departSpeed="0.00" departDelay="0.73" arrival="-1.00" arrivalLane="" arrivalPos="-1.00" arrivalSpeed="-1.00" duration="3542.00" routeLength="600.12" waitingTime="3474.00" waitingCount="3" stopTime="0.00" timeLoss="3497.34" rerouteNo="0" devices="tripinfo_f_0_2.7" vType="type1" speedFactor="1.09" vaporized="end"/>
    <tripinfo id="f_0_3.7" depart="58.00" departLane="np3_nt3_0" departPos="0.05" departSpeed="0.00" departDelay="0.73" arrival="-1.00" arrivalLane="" arrivalPos="-1.00" arrivalSpeed="-1.00" duration="3542.00" routeLength="11.04" waitingTime="3537.00" waitingCount="1" stopTime="0.00" timeLoss="3539.90" rerouteNo="0" devices="tripinfo_f_0_3.7" vType="type1" speedFactor="0.91" vaporized="end"/>
    <tripinfo id="f_0_2.8" depart="66.00" departLane="np2_nt2_0" departPos="5.46" departSpeed="0.00" departDelay="0.54" arrival="-1.00" arrivalLane="" arrivalPos="-1.00" arrivalSpeed="-1.00" duration="3534.00" routeLength="588.81" waitingTime="3464.00" waitingCount="3" stopTime="0.00" timeLoss="3487.68" rerouteNo="0" devices="tripinfo_f_0_2.8" vType="type1" speedFactor="1.02" vaporized="end"/>
    <tripinfo id="f_0_3.8" depart="66.00" departLane="np3_nt3_0" departPos="0.00" departSpeed="0.00" departDelay="0.54" arrival="-1.00" arrivalLane="" arrivalPos="-1.00" arrivalSpeed="-1.00" duration="3534.00" routeLength="3.59" waitingTime="3530.00" waitingCount="1" stopTime="0.00" timeLoss="3532.66" rerouteNo="0" devices="tripinfo_f_0_3.8" vType="type1" speedFactor="0.97" vaporized="end"/>
    <tripinfo id="f_0_0.5" depart="69.00" departLane="np13_nt13_0" departPos="28.71" departSpeed="0.00" departDelay="0.82" arrival="-1.00" arrivalLane="" arrivalPos="-1.00" arrivalSpeed="-1.00" duration="3531.00" routeLength="588.82" waitingTime="3467.00" waitingCount="5" stopTime="0.00" timeLoss="3498.82" rerouteNo="0" devices="tripinfo_f_0_0.5" vType="type1" speedFactor="1.15" vaporized="end"/>
    <tripinfo id="f_0_1.5" depart="69.00" departLane="np16_nt1_0" departPos="15.90" departSpeed="0.00" departDelay="0.82" arrival="-1.00" arrivalLane="" arrivalPos="-1.00" arrivalSpeed="-1.00" duration="3531.00" routeLength="278.03" waitingTime="3505.00" waitingCount="2" stopTime="0.00" timeLoss="3516.34" rerouteNo="0" devices="tripinfo_f_0_1.5" vType="type1" speedFactor="1.02" vaporized="end"/>
    <tripinfo id="f_0_2.9" depart="74.00" departLane="np2_nt2_0" departPos="17.96" departSpeed="0.00" departDelay="0.36" arrival="-1.00" arrivalLane="" arrivalPos="-1.00" arrivalSpeed="-1.00" duration="3526.00" routeLength="568.80" waitingTime="3457.00" waitingCount="3" stopTime="0.00" timeLoss="3480.33" rerouteNo="0" devices="tripinfo_f_0_2.9" vType="type1" speedFactor="1.00" vaporized="end"/>
    <tripinfo id="f_0_0.6" depart="82.00" departLane="np13_nt13_0" departPos="5.01" departSpeed="0.00" departDelay="0.18" arrival="-1.00" arrivalLane="" arrivalPos="-1.00" arrivalSpeed="-1.00" duration="3518.00" routeLength="605.02" waitingTime="3449.00" waitingCount="5" stopTime="0.00" timeLoss="3486.81" rerouteNo="0" devices="tripinfo_f_0_0.6" vType="type1" speedFactor="1.20" vaporized="end"/>
    <tripinfo id="f_0_1.6" depart="82.00" departLane="np16_nt1_0" departPos="32.63" departSpeed="0.00" departDelay="0.18" arrival="-1.00" arrivalLane="" arrivalPos="-1.00" arrivalSpeed="-1.00" duration="3518.00" routeLength="234.17" waitingTime="3490.00" waitingCount="2" stopTime="0.00" timeLoss="3502.12" rerouteNo="0" devices="tripinfo_f_0_1.6" vType="type1" speedFactor="0.79" vaporized="end"/>
    <tripinfo id="f_0_2.10" depart="82.00" departLane="np2_nt2_0" departPos="44.97" departSpeed="0.00" departDelay="0.18" arrival="-1.00" arrivalLane="" arrivalPos="-1.00" arrivalSpeed="-1.00" duration="3518.00" routeLength="534.30" waitingTime="3451.00" waitingCount="3" stopTime="0.00" timeLoss="3475.54" rerouteNo="0" devices="tripinfo_f_0_2.10" vType="type1" speedFactor="1.00" vaporized="end"/>
    <tripinfo id="f_0_2.11" depart="90.00" departLane="np2_nt2_0" departPos="11.99" departSpeed="0.00" departDelay="0.00" arrival="-1.00" arrivalLane="" arrivalPos="-1.00" arrivalSpeed="-1.00" duration="3510.00" routeLength="559.78" waitingTime="3439.00" waitingCount="2" stopTime="0.00" timeLoss="3460.82" rerouteNo="0" devices="tripinfo_f_0_2.11" vType="type1" speedFactor="0.92" vaporized="end"/>
    <tripinfo id="f_0_0.7" depart="96.00" departLane="np13_nt13_0" departPos="55.59" departSpeed="0.00" departDelay="0.55" arrival="-1.00" arrivalLane="" arrivalPos="-1.00" arrivalSpeed="-1.00" duration="3504.00" routeLength="546.93" waitingTime="3433.00" waitingCount="4" stopTime="0.00" timeLoss="3474.35" rerouteNo="0" devices="tripinfo_f_0_0.7" vType="type1" speedFactor="1.16" vaporized="end"/>
    <tripinfo id="f_0_1.7" depart="96.00" departLane="np16_nt1_0" departPos="6.37" departSpeed="0.00" departDelay="0.55" arrival="-1.00" arrivalLane="" arrivalPos="-1.00" arrivalSpeed="-1.00" duration="3504.00" routeLength="252.93" waitingTime="3477.00" waitingCount="2" stopTime="0.00" timeLoss="3490.43" rerouteNo="0" devices="tripinfo_f_0_1.7" vType="type1" speedFactor="1.01" vaporized="end"/>
    <tripinfo id="f_0_2.12" depart="99.00" departLane="np2_nt2_0" departPos="51.11" departSpeed="0.00" departDelay="0.82" arrival="-1.00" arrivalLane="" arrivalPos="-1.00" arrivalSpeed="-1.00" duration="3501.00" routeLength="513.15" waitingTime="3437.00" waitingCount="2" stopTime="0.00" timeLoss="3461.31" rerouteNo="0" devices="tripinfo_f_0_2.12" vType="type1" speedFactor="1.04" vaporized="end"/>
    <tripinfo id="f_0_2.13" depart="107.00" departLane="np2_nt2_0" departPos="9.10" departSpeed="0.00" departDelay="0.63" arrival="-1.00" arrivalLane="" arrivalPos="-1.00" arrivalSpeed="-1.00" duration="3493.00" routeLength="547.67" waitingTime="3424.00" waitingCount="2" stopTime="0.00" timeLoss="3445.29" rerouteNo="0" devices="tripinfo_f_0_2.13" vType="type1" speedFactor="0.92" vaporized="end"/>
    <tripinfo id="f_0_0.8" depart="110.00" departLane="np13_nt13_0" departPos="59.59" departSpeed="0.00" departDelay="0.91" arrival="-1.00" arrivalLane="" arrivalPos="-1.00" arrivalSpeed="-1.00" duration="3490.00" routeLength="535.43" waitingTime="3413.00" waitingCount="4" stopTime="0.00" timeLoss="3457.64" rerouteNo="0" devices="tripinfo_f_0_0.8" vType="type1" speedFactor="1.03" vaporized="end"/>
    <tripinfo id="f_0_1.8" depart="110.00" departLane="np16_nt1_0" departPos="31.55" departSpeed="0.00" departDelay="0.91" arrival="-1.00" arrivalLane="" arrivalPos="-1.00" arrivalSpeed="-1.00" duration="3490.00" routeLength="220.24" waitingTime="3466.00" waitingCount="2" stopTime="0.00" timeLoss="3477.63" rerouteNo="0" devices="tripinfo_f_0_1.8" vType="type1" speedFactor="0.97" vaporized="end"/>
    <tripinfo id="f_0_2.14" depart="115.00" departLane="np2_nt2_0" departPos="20.33" departSpeed="0.00" departDelay="0.45" arrival="-1.00" arrivalLane="" arrivalPos="-1.00" arrivalSpeed="-1.00" duration="3485.00" routeLength="528.93" waitingTime="3420.00" waitingCount="2" stopTime="0.00" timeLoss="3445.52" rerouteNo="0" devices="tripinfo_f_0_2.14" vType="type1" speedFactor="1.06" vaporized="end"/>
    <tripinfo id="f_0_0.9" depart="123.00" departLane="np13_nt13_0" departPos="48.81" departSpeed="0.00" departDelay="0.28" arrival="-1.00" arrivalLane="" arrivalPos="-1.00" arrivalSpeed="-1.00" duration="3477.00" routeLength="17.99" waitingTime="3472.00" waitingCount="1" stopTime="0.00" timeLoss="3475.16" rerouteNo="0" devices="tripinfo_f_0_0.9" vType="type1" speedFactor="1.07" vaporized="end"/>
    <tripinfo id="f_0_1.9" depart="123.00" departLane="np16_nt1_0" departPos="36.67" departSpeed="0.00" departDelay="0.28" arrival="-1.00" arrivalLane="" arrivalPos="-1.00" arrivalSpeed="-1.00" duration="3477.00" routeLength="207.62" waitingTime="3452.00" waitingCount="2" stopTime="0.00" timeLoss="3466.82" rerouteNo="0" devices="tripinfo_f_0_1.9" vType="type1" speedFactor="1.13" vaporized="end"/>
    <tripinfo id="f_0_2.15" depart="123.00" departLane="np2_nt2_0" departPos="1.92" departSpeed="0.00" departDelay="0.27" arrival="-1.00" arrivalLane="" arrivalPos="-1.00" arrivalSpeed="-1.00" duration="3477.00" routeLength="539.85" waitingTime="3409.00" waitingCount="3" stopTime="0.00" timeLoss="3433.21" rerouteNo="0" devices="tripinfo_f_0_2.15" vType="type1" speedFactor="0.98" vaporized="end"/>
    <tripinfo id="f_0_2.16" depart="131.00" departLane="np2_nt2_0" departPos="47.57" departSpeed="0.00" departDelay="0.09" arrival="-1.00" arrivalLane="" arrivalPos="-1.00" arrivalSpeed="-1.00" duration="3469.00" routeLength="486.69" waitingTime="3407.00" waitingCount="4" stopTime="0.00" timeLoss="3435.51" rerouteNo="0" devices="tripinfo_f_0_2.16" vType="type1" speedFactor="1.15" vaporized="end"/>
    <tripinfo id="f_0_0.10" depart="137.00" departLane="np13_nt13_0" departPos="58.14" departSpeed="0.00" departDelay="0.64" arrival="-1.00" arrivalLane="" arrivalPos="-1.00" arrivalSpeed="-1.00" duration="3463.00" routeLength="1.16" waitingTime="3460.00" waitingCount="1" stopTime="0.00" timeLoss="3461.94" rerouteNo="0" devices="tripinfo_f_0_0.10" vType="type1" speedFactor="0.89" vaporized="end"/>
    <tripinfo id="f_0_1.10" depart="137.00" departLane="np16_nt1_0" departPos="50.37" departSpeed="0.00" departDelay="0.64" arrival="-1.00" arrivalLane="" arrivalPos="-1.00" arrivalSpeed="-1.00" duration="3463.00" routeLength="186.42" waitingTime="3438.00" waitingCount="2" stopTime="0.00" timeLoss="3453.24" rerouteNo="0" devices="tripinfo_f_0_1.10" vType="type1" speedFactor="1.06" vaporized="end"/>
    <tripinfo id="f_0_2.17" depart="140.00" departLane="np2_nt2_0" departPos="13.82" departSpeed="0.00" departDelay="0.91" arrival="-1.00" arrivalLane="" arrivalPos="-1.00" arrivalSpeed="-1.00" duration="3460.00" routeLength="512.94" waitingTime="3397.00" waitingCount="3" stopTime="0.00" timeLoss="3422.99" rerouteNo="0" devices="tripinfo_f_0_2.17" vType="type1" speedFactor="1.10" vaporized="end"/>
    <tripinfo id="f_0_2.18" depart="148.00" departLane="np2_nt2_0" departPos="37.47" departSpeed="0.00" departDelay="0.72" arrival="-1.00" arrivalLane="" arrivalPos="-1.00" arrivalSpeed="-1.00" duration="3452.00" routeLength="481.79" waitingTime="3389.00" waitingCount="3" stopTime="0.00" timeLoss="3412.99" rerouteNo="0" devices="tripinfo_f_0_2.18" vType="type1" speedFactor="0.97" vaporized="end"/>
    <tripinfo id="f_0_0.11" depart="150.00" departLane="np13_nt13_0" departPos="6.05" departSpeed="0.00" departDelay="0.00" arrival="-1.00" arrivalLane="" arrivalPos="-1.00" arrivalSpeed="-1.00" duration="3450.00" routeLength="45.75" waitingTime="3443.00" waitingCount="1" stopTime="0.00" timeLoss="3446.64" rerouteNo="0" devices="tripinfo_f_0_0.11" vType="type1" speedFactor="0.97" vaporized="end"/>
    <tripinfo id="f_0_1.11" depart="150.00" departLane="np16_nt1_0" departPos="32.51" departSpeed="0.00" departDelay="0.00" arrival="-1.00" arrivalLane="" arrivalPos="-1.00" arrivalSpeed="-1.00" duration="3450.00" routeLength="196.79" waitingTime="3423.00" waitingCount="2" stopTime="0.00" timeLoss="3440.03" rerouteNo="0" devices="tripinfo_f_0_1.11" vType="type1" speedFactor="1.10" vaporized="end"/>
    <tripinfo id="f_0_2.19" depart="156.00" departLane="np2_nt2_0" departPos="39.11" departSpeed="0.00" departDelay="0.54" arrival="-1.00" arrivalLane="" arrivalPos="-1.00" arrivalSpeed="-1.00" duration="3444.00" routeLength="472.65" waitingTime="3379.00" waitingCount="3" stopTime="0.00" timeLoss="3408.02" rerouteNo="0" devices="tripinfo_f_0_2.19" vType="type1" speedFactor="1.02" vaporized="end"/>
    <tripinfo id="f_0_0.12" depart="164.00" departLane="np13_nt13_0" departPos="28.95" departSpeed="0.00" departDelay="0.37" arrival="-1.00" arrivalLane="" arrivalPos="-1.00" arrivalSpeed="-1.00" duration="3436.00" routeLength="15.35" waitingTime="3430.00" waitingCount="1" stopTime="0.00" timeLoss="3434.26" rerouteNo="0" devices="tripinfo_f_0_0.12" vType="type1" speedFactor="1.03" vaporized="end"/>
    <tripinfo id="f_0_1.12" depart="164.00" departLane="np16_nt1_0" departPos="52.18" departSpeed="0.00" departDelay="0.37" arrival="-1.00" arrivalLane="" arrivalPos="-1.00" arrivalSpeed="-1.00" duration="3436.00" routeLength="169.62" waitingTime="3411.00" waitingCount="2" stopTime="0.00" timeLoss="3425.94" rerouteNo="0" devices="tripinfo_f_0_1.12" vType="type1" speedFactor="0.94" vaporized="end"/>
    <tripinfo id="f_0_2.20" depart="164.00" departLane="np2_nt2_0" departPos="19.22" departSpeed="0.00" departDelay="0.36" arrival="-1.00" arrivalLane="" arrivalPos="-1.00" arrivalSpeed="-1.00" duration="3436.00" routeLength="485.04" waitingTime="3374.00" waitingCount="3" stopTime="0.00" timeLoss="3401.76" rerouteNo="0" devices="tripinfo_f_0_2.20" vType="type1" speedFactor="1.12" vaporized="end"/>
    <tripinfo id="f_0_2.21" depart="172.00" departLane="np2_nt2_0" departPos="22.24" departSpeed="0.00" departDelay="0.18" arrival="-1.00" arrivalLane="" arrivalPos="-1.00" arrivalSpeed="-1.00" duration="3428.00" routeLength="474.52" waitingTime="3365.00" waitingCount="2" stopTime="0.00" timeLoss="3391.14" rerouteNo="0" devices="tripinfo_f_0_2.21" vType="type1" speedFactor="1.01" vaporized="end"/>
    <tripinfo id="f_0_0.13" depart="178.00" departLane="np13_nt13_0" departPos="11.54" departSpeed="0.00" departDelay="0.73" arrival="-1.00" arrivalLane="" arrivalPos="-1.00" arrivalSpeed="-1.00" duration="3422.00" routeLength="25.26" waitingTime="3414.00" waitingCount="1" stopTime="0.00" timeLoss="3419.55" rerouteNo="0" devices="tripinfo_f_0_0.13" vType="type1" speedFactor="0.87" vaporized="end"/>
    <tripinfo id="f_0_1.13" depart="178.00" departLane="np16_nt1_0" departPos="59.00" departSpeed="0.00" departDelay="0.73" arrival="-1.00" arrivalLane="" arrivalPos="-1.00" arrivalSpeed="-1.00" duration="3422.00" routeLength="155.30" waitingTime="3398.00" waitingCount="2" stopTime="0.00" timeLoss="3414.29" rerouteNo="0" devices="tripinfo_f_0_1.13" vType="type1" speedFactor="1.16" vaporized="end"/>
    <tripinfo id="f_0_2.22" depart="180.00" departLane="np2_nt2_0" departPos="4.67" departSpeed="0.00" departDelay="0.00" arrival="-1.00" arrivalLane="" arrivalPos="-1.00" arrivalSpeed="-1.00" duration="3420.00" routeLength="484.59" waitingTime="3364.00" waitingCount="2" stopTime="0.00" timeLoss="3390.45" rerouteNo="0" devices="tripinfo_f_0_2.22" vType="type1" speedFactor="1.29" vaporized="end"/>
    <tripinfo id="f_0_2.23" depart="189.00" departLane="np2_nt2_0" departPos="25.58" departSpeed="0.00" departDelay="0.81" arrival="-1.00" arrivalLane="" arrivalPos="-1.00" arrivalSpeed="-1.00" duration="3411.00" routeLength="456.17" waitingTime="3361.00" waitingCount="1" stopTime="0.00" timeLoss="3379.65" rerouteNo="0" devices="tripinfo_f_0_2.23" vType="type1" speedFactor="1.14" vaporized="end"/>
    <tripinfo id="f_0_0.14" depart="191.00" departLane="np13_nt13_0" departPos="25.48" departSpeed="0.00" departDelay="0.10" arrival="-1.00" arrivalLane="" arrivalPos="-1.00" arrivalSpeed="-1.00" duration="3409.00" routeLength="3.81" waitingTime="3406.00" waitingCount="1" stopTime="0.00" timeLoss="3407.81" rerouteNo="0" devices="tripinfo_f_0_0.14" vType="type1" speedFactor="1.02" vaporized="end"/>
    <tripinfo id="f_0_1.14" depart="191.00" departLane="np16_nt1_0" departPos="28.68" departSpeed="0.00" departDelay="0.10" arrival="-1.00" arrivalLane="" arrivalPos="-1.00" arrivalSpeed="-1.00" duration="3409.00" routeLength="178.11" waitingTime="3385.00" waitingCount="2" stopTime="0.00" timeLoss="3398.82" rerouteNo="0" devices="tripinfo_f_0_1.14" vType="type1" speedFactor="0.97" vaporized="end"/>
    <tripinfo id="f_0_2.24" depart="197.00" departLane="np2_nt2_0" departPos="48.74" departSpeed="0.00" departDelay="0.63" arrival="-1.00" arrivalLane="" arrivalPos="-1.00" arrivalSpeed="-1.00" duration="3403.00" routeLength="405.54" waitingTime="3364.00" waitingCount="1" stopTime="0.00" timeLoss="3372.18" rerouteNo="0" devices="tripinfo_f_0_2.24" vType="type1" speedFactor="1.03" vaporized="end"/>
    <tripinfo id="f_0_0.15" depart="205.00" departLane="np13_nt13_0" departPos="8.45" departSpeed="0.00" departDelay="0.46" arrival="-1.00" arrivalLane="" arrivalPos="-1.00" arrivalSpeed="-1.00" duration="3395.00" routeLength="13.34" waitingTime="3389.00" waitingCount="1" stopTime="0.00" timeLoss="3393.33" rerouteNo="0" devices="tripinfo_f_0_0.15" vType="type1" speedFactor="0.99" vaporized="end"/>
    <tripinfo id="f_0_1.15" depart="205.00" departLane="np16_nt1_0" departPos="45.83" departSpeed="0.00" departDelay="0.46" arrival="-1.00" arrivalLane="" arrivalPos="-1.00" arrivalSpeed="-1.00" duration="3395.00" routeLength="153.46" waitingTime="3369.00" waitingCount="2" stopTime="0.00" timeLoss="3387.42" rerouteNo="0" devices="tripinfo_f_0_1.15" vType="type1" speedFactor="1.17" vaporized="end"/>
    <tripinfo id="f_0_2.25" depart="205.00" departLane="np2_nt2_0" departPos="36.17" departSpeed="0.00" departDelay="0.45" arrival="-1.00" arrivalLane="" arrivalPos="-1.00" arrivalSpeed="-1.00" duration="3395.00" routeLength="410.60" waitingTime="3357.00" waitingCount="1" stopTime="0.00" timeLoss="3365.09" rerouteNo="0" devices="tripinfo_f_0_2.25" vType="type1" speedFactor="1.07" vaporized="end"/>
    <tripinfo id="f_0_2.26" depart="213.00" departLane="np2_nt2_0" departPos="30.52" departSpeed="0.00" departDelay="0.27" arrival="-1.00" arrivalLane="" arrivalPos="-1.00" arrivalSpeed="-1.00" duration="3387.00" routeLength="408.76" waitingTime="3341.00" waitingCount="2" stopTime="0.00" timeLoss="3350.79" rerouteNo="0" devices="tripinfo_f_0_2.26" vType="type1" speedFactor="0.86" vaporized="end"/>
    <tripinfo id="f_0_0.16" depart="219.00" departLane="np13_nt13_0" departPos="14.04" departSpeed="0.00" departDelay="0.82" arrival="-1.00" arrivalLane="" arrivalPos="-1.00" arrivalSpeed="-1.00" duration="3381.00" routeLength="0.25" waitingTime="3379.00" waitingCount="1" stopTime="0.00" timeLoss="3379.99" rerouteNo="0" devices="tripinfo_f_0_0.16" vType="type1" speedFactor="0.93" vaporized="end"/>
    <tripinfo id="f_0_1.16" depart="219.00" departLane="np16_nt1_0" departPos="20.13" departSpeed="0.00" departDelay="0.82" arrival="-1.00" arrivalLane="" arrivalPos="-1.00" arrivalSpeed="-1.00" duration="3381.00" routeLength="171.65" waitingTime="3356.00" waitingCount="2" stopTime="0.00" timeLoss="3371.42" rerouteNo="0" devices="tripinfo_f_0_1.16" vType="type1" speedFactor="1.00" vaporized="end"/>
    <tripinfo id="f_0_2.27" depart="221.00" departLane="np2_nt2_0" departPos="51.41" departSpeed="0.00" departDelay="0.09" arrival="-1.00" arrivalLane="" arrivalPos="-1.00" arrivalSpeed="-1.00" duration="3379.00" routeLength="380.36" waitingTime="3335.00" waitingCount="2" stopTime="0.00" timeLoss="3350.64" rerouteNo="0" devices="tripinfo_f_0_2.27" vType="type1" speedFactor="1.03" vaporized="end"/>
    <tripinfo id="f_0_2.28" depart="230.00" departLane="np2_nt2_0" departPos="13.00" departSpeed="0.00" departDelay="0.90" arrival="-1.00" arrivalLane="" arrivalPos="-1.00" arrivalSpeed="-1.00" duration="3370.00" routeLength="411.28" waitingTime="3321.00" waitingCount="2" stopTime="0.00" timeLoss="3336.34" rerouteNo="0" devices="tripinfo_f_0_2.28" vType="type1" speedFactor="0.94" vaporized="end"/>