<?xml version="1.0" encoding="UTF-8"?>

<!-- generated on 2023-08-30 19:03:48 by Eclipse SUMO libsumo Version 1.18.0
<configuration xmlns:xsi="http://www.w3.org/2001/XMLSchema-instance" xsi:noNamespaceSchemaLocation="http://sumo.dlr.de/xsd/libsumoConfiguration.xsd">

    <input>
        <net-file value="/home/stefan/RESCO/./environments/arterial4x4/arterial4x4.net.xml"/>
        <route-files value="/home/stefan/RESCO/./environments/arterial4x4/arterial4x4_60.rou.xml"/>
    </input>

    <output>
        <tripinfo-output value="/home/stefan/results/RAINBOW-tr0-arterial4x4-0-drq_norm-wait_norm/tripinfo_60.xml"/>
        <tripinfo-output.write-unfinished value="true"/>
    </output>

    <processing>
        <time-to-teleport value="-1"/>
    </processing>

    <report>
        <no-warnings value="True"/>
        <no-step-log value="True"/>
    </report>

    <random_number>
        <random value="true"/>
    </random_number>

</configuration>
-->

<tripinfos xmlns:xsi="http://www.w3.org/2001/XMLSchema-instance" xsi:noNamespaceSchemaLocation="http://sumo.dlr.de/xsd/tripinfo_file.xsd">
    <tripinfo id="f_0_3.0" depart="0.00" departLane="np3_nt3_0" departPos="39.56" departSpeed="0.00" departDelay="0.00" arrival="262.00" arrivalLane="nt14_np11_0" arrivalPos="75.00" arrivalSpeed="11.28" duration="262.00" routeLength="911.53" waitingTime="169.00" waitingCount="2" stopTime="0.00" timeLoss="187.78" rerouteNo="0" devices="tripinfo_f_0_3.0" vType="type1" speedFactor="1.03" vaporized=""/>
    <tripinfo id="f_0_3.1" depart="9.00" departLane="np3_nt3_0" departPos="50.52" departSpeed="0.00" departDelay="0.82" arrival="265.00" arrivalLane="nt14_np11_0" arrivalPos="75.00" arrivalSpeed="9.48" duration="256.00" routeLength="900.57" waitingTime="160.00" waitingCount="2" stopTime="0.00" timeLoss="180.32" rerouteNo="0" devices="tripinfo_f_0_3.1" vType="type1" speedFactor="0.99" vaporized=""/>
    <tripinfo id="f_0_3.2" depart="17.00" departLane="np3_nt3_0" departPos="62.03" departSpeed="0.00" departDelay="0.64" arrival="317.00" arrivalLane="nt14_np11_0" arrivalPos="75.00" arrivalSpeed="8.14" duration="300.00" routeLength="889.06" waitingTime="196.00" waitingCount="2" stopTime="0.00" timeLoss="215.86" rerouteNo="0" devices="tripinfo_f_0_3.2" vType="type1" speedFactor="0.89" vaporized=""/>
    <tripinfo id="f_0_3.3" depart="25.00" departLane="np3_nt3_0" departPos="49.41" departSpeed="0.00" departDelay="0.45" arrival="319.00" arrivalLane="nt14_np11_0" arrivalPos="75.00" arrivalSpeed="9.83" duration="294.00" routeLength="901.68" waitingTime="187.00" waitingCount="3" stopTime="0.00" timeLoss="209.69" rerouteNo="0" devices="tripinfo_f_0_3.3" vType="type1" speedFactor="0.90" vaporized=""/>
    <tripinfo id="f_0_3.4" depart="33.00" departLane="np3_nt3_0" departPos="60.02" departSpeed="0.00" departDelay="0.27" arrival="364.00" arrivalLane="nt14_np11_0" arrivalPos="75.00" arrivalSpeed="9.50" duration="331.00" routeLength="891.07" waitingTime="215.00" waitingCount="5" stopTime="0.00" timeLoss="244.85" rerouteNo="0" devices="tripinfo_f_0_3.4" vType="type1" speedFactor="0.87" vaporized=""/>
    <tripinfo id="f_0_0.0" depart="0.00" departLane="np13_nt13_0" departPos="23.64" departSpeed="0.00" departDelay="0.00" arrival="388.00" arrivalLane="nt4_np5_0" arrivalPos="75.00" arrivalSpeed="17.26" duration="388.00" routeLength="1324.25" waitingTime="261.00" waitingCount="4" stopTime="0.00" timeLoss="289.64" rerouteNo="0" devices="tripinfo_f_0_0.0" vType="type1" speedFactor="0.94" vaporized=""/>
    <tripinfo id="f_0_0.1" depart="14.00" departLane="np13_nt13_0" departPos="39.69" departSpeed="0.00" departDelay="0.36" arrival="390.00" arrivalLane="nt4_np5_0" arrivalPos="75.00" arrivalSpeed="19.90" duration="376.00" routeLength="1308.20" waitingTime="252.00" waitingCount="5" stopTime="0.00" timeLoss="285.33" rerouteNo="0" devices="tripinfo_f_0_0.1" vType="type1" speedFactor="1.01" vaporized=""/>
    <tripinfo id="f_0_3.5" depart="41.00" departLane="np3_nt3_0" departPos="34.98" departSpeed="0.00" departDelay="0.09" arrival="402.00" arrivalLane="nt14_np11_0" arrivalPos="75.00" arrivalSpeed="11.21" duration="361.00" routeLength="916.11" waitingTime="253.00" waitingCount="6" stopTime="0.00" timeLoss="290.54" rerouteNo="0" devices="tripinfo_f_0_3.5" vType="type1" speedFactor="1.09" vaporized=""/>
    <tripinfo id="f_0_3.6" depart="50.00" departLane="np3_nt3_0" departPos="29.60" departSpeed="0.00" departDelay="0.91" arrival="405.00" arrivalLane="nt14_np11_0" arrivalPos="75.00" arrivalSpeed="9.80" duration="355.00" routeLength="921.49" waitingTime="234.00" waitingCount="5" stopTime="0.00" timeLoss="269.08" rerouteNo="0" devices="tripinfo_f_0_3.6" vType="type1" speedFactor="0.90" vaporized=""/>
    <tripinfo id="f_0_2.0" depart="0.00" departLane="np2_nt2_0" departPos="62.36" departSpeed="0.00" departDelay="0.00" arrival="407.00" arrivalLane="nt15_np10_0" arrivalPos="75.00" arrivalSpeed="10.90" duration="407.00" routeLength="888.72" waitingTime="313.00" waitingCount="5" stopTime="0.00" timeLoss="335.98" rerouteNo="0" devices="tripinfo_f_0_2.0" vType="type1" speedFactor="1.04" vaporized=""/>
    <tripinfo id="f_0_2.1" depart="9.00" departLane="np2_nt2_0" departPos="38.09" departSpeed="0.00" departDelay="0.82" arrival="409.00" arrivalLane="nt15_np10_0" arrivalPos="75.00" arrivalSpeed="10.28" duration="400.00" routeLength="912.99" waitingTime="298.00" waitingCount="5" stopTime="0.00" timeLoss="324.51" rerouteNo="0" devices="tripinfo_f_0_2.1" vType="type1" speedFactor="1.01" vaporized=""/>
    <tripinfo id="f_0_0.2" depart="28.00" departLane="np13_nt13_0" departPos="31.68" departSpeed="0.00" departDelay="0.73" arrival="529.00" arrivalLane="nt4_np5_0" arrivalPos="75.00" arrivalSpeed="16.09" duration="501.00" routeLength="1316.21" waitingTime="347.00" waitingCount="7" stopTime="0.00" timeLoss="395.07" rerouteNo="0" devices="tripinfo_f_0_0.2" vType="type1" speedFactor="0.86" vaporized=""/>
    <tripinfo id="f_0_3.7" depart="58.00" departLane="np3_nt3_0" departPos="43.45" departSpeed="0.00" departDelay="0.73" arrival="628.00" arrivalLane="nt14_np11_0" arrivalPos="75.00" arrivalSpeed="8.05" duration="570.00" routeLength="907.64" waitingTime="465.00" waitingCount="4" stopTime="0.00" timeLoss="490.59" rerouteNo="0" devices="tripinfo_f_0_3.7" vType="type1" speedFactor="0.96" vaporized=""/>
    <tripinfo id="f_0_2.2" depart="17.00" departLane="np2_nt2_0" departPos="40.61" departSpeed="0.00" departDelay="0.64" arrival="659.00" arrivalLane="nt15_np10_0" arrivalPos="75.00" arrivalSpeed="7.90" duration="642.00" routeLength="910.47" waitingTime="507.00" waitingCount="6" stopTime="0.00" timeLoss="545.92" rerouteNo="0" devices="tripinfo_f_0_2.2" vType="type1" speedFactor="0.79" vaporized=""/>
    <tripinfo id="f_0_1.0" depart="0.00" departLane="np16_nt1_0" departPos="14.83" departSpeed="0.00" departDelay="0.00" arrival="666.00" arrivalLane="nt16_np8_0" arrivalPos="75.00" arrivalSpeed="19.64" duration="666.00" routeLength="1333.05" waitingTime="512.00" waitingCount="7" stopTime="0.00" timeLoss="576.87" rerouteNo="0" devices="tripinfo_f_0_1.0" vType="type1" speedFactor="1.04" vaporized=""/>
    <tripinfo id="f_0_3.8" depart="66.00" departLane="np3_nt3_0" departPos="41.76" departSpeed="0.00" departDelay="0.54" arrival="671.00" arrivalLane="nt14_np11_0" arrivalPos="75.00" arrivalSpeed="10.97" duration="605.00" routeLength="909.33" waitingTime="502.00" waitingCount="6" stopTime="0.00" timeLoss="535.70" rerouteNo="0" devices="tripinfo_f_0_3.8" vType="type1" speedFactor="1.09" vaporized=""/>
    <tripinfo id="f_0_1.1" depart="14.00" departLane="np16_nt1_0" departPos="10.28" departSpeed="0.00" departDelay="0.36" arrival="679.00" arrivalLane="nt16_np8_0" arrivalPos="75.00" arrivalSpeed="17.78" duration="665.00" routeLength="1337.60" waitingTime="512.00" waitingCount="8" stopTime="0.00" timeLoss="564.86" rerouteNo="0" devices="tripinfo_f_0_1.1" vType="type1" speedFactor="0.93" vaporized=""/>
    <tripinfo id="f_0_2.3" depart="25.00" departLane="np2_nt2_0" departPos="0.54" departSpeed="0.00" departDelay="0.45" arrival="683.00" arrivalLane="nt15_np10_0" arrivalPos="75.00" arrivalSpeed="9.46" duration="658.00" routeLength="950.54" waitingTime="515.00" waitingCount="8" stopTime="0.00" timeLoss="574.82" rerouteNo="0" devices="tripinfo_f_0_2.3" vType="type1" speedFactor="0.97" vaporized=""/>
    <tripinfo id="f_0_0.3" depart="41.00" departLane="np13_nt13_0" departPos="3.62" departSpeed="0.00" departDelay="0.09" arrival="688.00" arrivalLane="nt4_np5_0" arrivalPos="75.00" arrivalSpeed="18.58" duration="647.00" routeLength="1344.27" waitingTime="491.00" waitingCount="9" stopTime="0.00" timeLoss="552.95" rerouteNo="0" devices="tripinfo_f_0_0.3" vType="type1" speedFactor="0.99" vaporized=""/>
    <tripinfo id="f_0_0.4" depart="55.00" departLane="np13_nt13_0" departPos="29.27" departSpeed="0.00" departDelay="0.46" arrival="690.00" arrivalLane="nt4_np5_0" arrivalPos="75.00" arrivalSpeed="18.85" duration="635.00" routeLength="1318.62" waitingTime="482.00" waitingCount="11" stopTime="0.00" timeLoss="541.92" rerouteNo="0" devices="tripinfo_f_0_0.4" vType="type1" speedFactor="0.99" vaporized=""/>
    <tripinfo id="f_0_3.9" depart="74.00" departLane="np3_nt3_0" departPos="21.97" departSpeed="0.00" departDelay="0.36" arrival="715.00" arrivalLane="nt14_np11_0" arrivalPos="75.00" arrivalSpeed="9.60" duration="641.00" routeLength="929.12" waitingTime="531.00" waitingCount="5" stopTime="0.00" timeLoss="556.82" rerouteNo="0" devices="tripinfo_f_0_3.9" vType="type1" speedFactor="0.93" vaporized=""/>
    <tripinfo id="f_0_0.5" depart="69.00" departLane="np13_nt13_0" departPos="15.79" departSpeed="0.00" departDelay="0.82" arrival="753.00" arrivalLane="nt4_np5_0" arrivalPos="75.00" arrivalSpeed="19.36" duration="684.00" routeLength="1332.10" waitingTime="520.00" waitingCount="12" stopTime="0.00" timeLoss="593.08" rerouteNo="0" devices="tripinfo_f_0_0.5" vType="type1" speedFactor="1.02" vaporized=""/>
    <tripinfo id="f_0_2.4" depart="33.00" departLane="np2_nt2_0" departPos="37.71" departSpeed="0.00" departDelay="0.27" arrival="794.00" arrivalLane="nt15_np10_0" arrivalPos="75.00" arrivalSpeed="8.68" duration="761.00" routeLength="913.37" waitingTime="621.00" waitingCount="7" stopTime="0.00" timeLoss="674.37" rerouteNo="0" devices="tripinfo_f_0_2.4" vType="type1" speedFactor="0.89" vaporized=""/>
    <tripinfo id="f_0_2.5" depart="41.00" departLane="np2_nt2_0" departPos="22.81" departSpeed="0.00" departDelay="0.09" arrival="796.00" arrivalLane="nt15_np10_0" arrivalPos="75.00" arrivalSpeed="11.67" duration="755.00" routeLength="928.27" waitingTime="617.00" waitingCount="8" stopTime="0.00" timeLoss="684.87" rerouteNo="0" devices="tripinfo_f_0_2.5" vType="type1" speedFactor="1.12" vaporized=""/>
    <tripinfo id="f_0_0.6" depart="82.00" departLane="np13_nt13_0" departPos="47.38" departSpeed="0.00" departDelay="0.18" arrival="814.00" arrivalLane="nt4_np5_0" arrivalPos="75.00" arrivalSpeed="18.36" duration="732.00" routeLength="1300.51" waitingTime="590.00" waitingCount="6" stopTime="0.00" timeLoss="643.94" rerouteNo="0" devices="tripinfo_f_0_0.6" vType="type1" speedFactor="1.04" vaporized=""/>
    <tripinfo id="f_0_3.10" depart="82.00" departLane="np3_nt3_0" departPos="23.97" departSpeed="0.00" departDelay="0.18" arrival="858.00" arrivalLane="nt14_np11_0" arrivalPos="75.00" arrivalSpeed="10.75" duration="776.00" routeLength="927.12" waitingTime="660.00" waitingCount="7" stopTime="0.00" timeLoss="697.57" rerouteNo="0" devices="tripinfo_f_0_3.10" vType="type1" speedFactor="1.00" vaporized=""/>
    <tripinfo id="f_0_3.11" depart="90.00" departLane="np3_nt3_0" departPos="22.29" departSpeed="0.00" departDelay="0.00" arrival="898.00" arrivalLane="nt14_np11_0" arrivalPos="75.00" arrivalSpeed="8.72" duration="808.00" routeLength="928.80" waitingTime="678.00" waitingCount="9" stopTime="0.00" timeLoss="725.25" rerouteNo="0" devices="tripinfo_f_0_3.11" vType="type1" speedFactor="0.94" vaporized=""/>
    <tripinfo id="f_0_3.12" depart="99.00" departLane="np3_nt3_0" departPos="6.14" departSpeed="0.00" departDelay="0.82" arrival="900.00" arrivalLane="nt14_np11_0" arrivalPos="75.00" arrivalSpeed="9.97" duration="801.00" routeLength="944.95" waitingTime="663.00" waitingCount="9" stopTime="0.00" timeLoss="720.35" rerouteNo="0" devices="tripinfo_f_0_3.12" vType="type1" speedFactor="0.99" vaporized=""/>
    <tripinfo id="f_0_0.7" depart="96.00" departLane="np13_nt13_0" departPos="52.60" departSpeed="0.00" departDelay="0.55" arrival="1022.00" arrivalLane="nt4_np5_0" arrivalPos="75.00" arrivalSpeed="16.86" duration="926.00" routeLength="1295.29" waitingTime="767.00" waitingCount="8" stopTime="0.00" timeLoss="828.30" rerouteNo="0" devices="tripinfo_f_0_0.7" vType="type1" speedFactor="0.93" vaporized=""/>
    <tripinfo id="f_0_2.6" depart="50.00" departLane="np2_nt2_0" departPos="9.11" departSpeed="0.00" departDelay="0.91" arrival="1032.00" arrivalLane="nt15_np10_0" arrivalPos="75.00" arrivalSpeed="9.00" duration="982.00" routeLength="941.97" waitingTime="835.00" waitingCount="10" stopTime="0.00" timeLoss="899.61" rerouteNo="0" devices="tripinfo_f_0_2.6" vType="type1" speedFactor="0.96" vaporized=""/>
    <tripinfo id="f_0_2.7" depart="58.00" departLane="np2_nt2_0" departPos="24.84" departSpeed="0.00" departDelay="0.73" arrival="1062.00" arrivalLane="nt15_np10_0" arrivalPos="75.00" arrivalSpeed="9.04" duration="1004.00" routeLength="926.24" waitingTime="855.00" waitingCount="10" stopTime="0.00" timeLoss="926.69" rerouteNo="0" devices="tripinfo_f_0_2.7" vType="type1" speedFactor="1.01" vaporized=""/>
    <tripinfo id="f_0_2.8" depart="66.00" departLane="np2_nt2_0" departPos="63.54" departSpeed="0.00" departDelay="0.54" arrival="1094.00" arrivalLane="nt15_np10_0" arrivalPos="75.00" arrivalSpeed="8.85" duration="1028.00" routeLength="887.54" waitingTime="868.00" waitingCount="12" stopTime="0.00" timeLoss="936.15" rerouteNo="0" devices="tripinfo_f_0_2.8" vType="type1" speedFactor="0.81" vaporized=""/>
    <tripinfo id="f_0_0.8" depart="110.00" departLane="np13_nt13_0" departPos="21.25" departSpeed="0.00" departDelay="0.91" arrival="1106.00" arrivalLane="nt4_np5_0" arrivalPos="75.00" arrivalSpeed="20.23" duration="996.00" routeLength="1326.64" waitingTime="842.00" waitingCount="9" stopTime="0.00" timeLoss="911.99" rerouteNo="0" devices="tripinfo_f_0_0.8" vType="type1" speedFactor="1.10" vaporized=""/>
    <tripinfo id="f_0_0.9" depart="123.00" departLane="np13_nt13_0" departPos="31.66" departSpeed="0.00" departDelay="0.28" arrival="1110.00" arrivalLane="nt4_np5_0" arrivalPos="75.00" arrivalSpeed="17.93" duration="987.00" routeLength="1316.23" waitingTime="830.00" waitingCount="9" stopTime="0.00" timeLoss="894.35" rerouteNo="0" devices="tripinfo_f_0_0.9" vType="type1" speedFactor="0.99" vaporized=""/>
    <tripinfo id="f_0_0.10" depart="137.00" departLane="np13_nt13_0" departPos="65.63" departSpeed="0.00" departDelay="0.64" arrival="1112.00" arrivalLane="nt4_np5_0" arrivalPos="75.00" arrivalSpeed="20.29" duration="975.00" routeLength="1282.26" waitingTime="817.00" waitingCount="9" stopTime="0.00" timeLoss="890.78" rerouteNo="0" devices="tripinfo_f_0_0.10" vType="type1" speedFactor="1.08" vaporized=""/>
    <tripinfo id="f_3_6.0" depart="900.00" departLane="np10_nt15_0" departPos="29.77" departSpeed="0.00" departDelay="0.00" arrival="1151.00" arrivalLane="nt2_np2_0" arrivalPos="64.60" arrivalSpeed="10.11" duration="251.00" routeLength="921.31" waitingTime="153.00" waitingCount="4" stopTime="0.00" timeLoss="177.67" rerouteNo="0" devices="tripinfo_f_3_6.0" vType="type1" speedFactor="1.05" vaporized=""/>
    <tripinfo id="f_0_3.13" depart="107.00" departLane="np3_nt3_0" departPos="7.50" departSpeed="0.00" departDelay="0.63" arrival="1181.00" arrivalLane="nt14_np11_0" arrivalPos="75.00" arrivalSpeed="11.48" duration="1074.00" routeLength="943.59" waitingTime="941.00" waitingCount="9" stopTime="0.00" timeLoss="1002.91" rerouteNo="0" devices="tripinfo_f_0_3.13" vType="type1" speedFactor="1.12" vaporized=""/>
    <tripinfo id="f_0_3.14" depart="115.00" departLane="np3_nt3_0" departPos="7.57" departSpeed="0.00" departDelay="0.45" arrival="1184.00" arrivalLane="nt14_np11_0" arrivalPos="75.00" arrivalSpeed="10.41" duration="1069.00" routeLength="943.52" waitingTime="930.00" waitingCount="9" stopTime="0.00" timeLoss="991.92" rerouteNo="0" devices="tripinfo_f_0_3.14" vType="type1" speedFactor="1.03" vaporized=""/>
    <tripinfo id="f_0_2.9" depart="74.00" departLane="np2_nt2_0" departPos="0.48" departSpeed="0.00" departDelay="0.36" arrival="1207.00" arrivalLane="nt15_np10_0" arrivalPos="75.00" arrivalSpeed="11.76" duration="1133.00" routeLength="950.60" waitingTime="968.00" waitingCount="12" stopTime="0.00" timeLoss="1058.54" rerouteNo="0" devices="tripinfo_f_0_2.9" vType="type1" speedFactor="1.09" vaporized=""/>
    <tripinfo id="f_0_1.2" depart="28.00" departLane="np16_nt1_0" departPos="63.39" departSpeed="0.00" departDelay="0.73" arrival="1213.00" arrivalLane="nt16_np8_0" arrivalPos="75.00" arrivalSpeed="20.14" duration="1185.00" routeLength="1284.49" waitingTime="1003.00" waitingCount="14" stopTime="0.00" timeLoss="1098.22" rerouteNo="0" devices="tripinfo_f_0_1.2" vType="type1" speedFactor="1.05" vaporized=""/>
    <tripinfo id="f_0_0.11" depart="150.00" departLane="np13_nt13_0" departPos="60.05" departSpeed="0.00" departDelay="0.00" arrival="1249.00" arrivalLane="nt4_np5_0" arrivalPos="75.00" arrivalSpeed="17.60" duration="1099.00" routeLength="1287.84" waitingTime="926.00" waitingCount="11" stopTime="0.00" timeLoss="1000.78" rerouteNo="0" devices="tripinfo_f_0_0.11" vType="type1" speedFactor="0.92" vaporized=""/>
    <tripinfo id="f_3_5.0" depart="900.00" departLane="np8_nt16_0" departPos="46.67" departSpeed="0.00" departDelay="0.00" arrival="1337.00" arrivalLane="nt1_np16_0" arrivalPos="67.80" arrivalSpeed="17.09" duration="437.00" routeLength="1301.21" waitingTime="312.00" waitingCount="3" stopTime="0.00" timeLoss="337.60" rerouteNo="0" devices="tripinfo_f_3_5.0" vType="type1" speedFactor="0.91" vaporized=""/>
    <tripinfo id="f_3_6.1" depart="913.00" departLane="np10_nt15_0" departPos="18.37" departSpeed="0.00" departDelay="0.00" arrival="1346.00" arrivalLane="nt2_np2_0" arrivalPos="64.60" arrivalSpeed="8.91" duration="433.00" routeLength="932.71" waitingTime="329.00" waitingCount="5" stopTime="0.00" timeLoss="356.09" rerouteNo="0" devices="tripinfo_f_3_6.1" vType="type1" speedFactor="1.02" vaporized=""/>
    <tripinfo id="f_0_3.15" depart="123.00" departLane="np3_nt3_0" departPos="0.00" departSpeed="0.00" departDelay="0.27" arrival="1347.00" arrivalLane="nt14_np11_0" arrivalPos="75.00" arrivalSpeed="9.87" duration="1224.00" routeLength="951.09" waitingTime="1069.00" waitingCount="12" stopTime="0.00" timeLoss="1138.53" rerouteNo="0" devices="tripinfo_f_0_3.15" vType="type1" speedFactor="0.93" vaporized=""/>
    <tripinfo id="f_3_5.1" depart="922.00" departLane="np8_nt16_0" departPos="44.20" departSpeed="0.00" departDelay="0.31" arrival="1348.00" arrivalLane="nt1_np16_0" arrivalPos="67.80" arrivalSpeed="16.70" duration="426.00" routeLength="1303.68" waitingTime="295.00" waitingCount="4" stopTime="0.00" timeLoss="321.80" rerouteNo="0" devices="tripinfo_f_3_5.1" vType="type1" speedFactor="0.88" vaporized=""/>
    <tripinfo id="f_0_3.16" depart="188.00" departLane="np3_nt3_0" departPos="0.00" departSpeed="0.00" departDelay="57.09" arrival="1350.00" arrivalLane="nt14_np11_0" arrivalPos="75.00" arrivalSpeed="8.51" duration="1162.00" routeLength="951.09" waitingTime="1005.00" waitingCount="9" stopTime="0.00" timeLoss="1074.85" rerouteNo="0" devices="tripinfo_f_0_3.16" vType="type1" speedFactor="0.92" vaporized=""/>
    <tripinfo id="f_3_5.2" depart="944.00" departLane="np8_nt16_0" departPos="13.74" departSpeed="0.00" departDelay="0.63" arrival="1350.00" arrivalLane="nt1_np16_0" arrivalPos="67.80" arrivalSpeed="18.68" duration="406.00" routeLength="1334.14" waitingTime="274.00" waitingCount="6" stopTime="0.00" timeLoss="311.38" rerouteNo="0" devices="tripinfo_f_3_5.2" vType="type1" speedFactor="0.97" vaporized=""/>
    <tripinfo id="f_3_5.3" depart="966.00" departLane="np8_nt16_0" departPos="31.89" departSpeed="0.00" departDelay="0.94" arrival="1407.00" arrivalLane="nt1_np16_0" arrivalPos="67.80" arrivalSpeed="17.49" duration="441.00" routeLength="1315.99" waitingTime="293.00" waitingCount="8" stopTime="0.00" timeLoss="341.48" rerouteNo="0" devices="tripinfo_f_3_5.3" vType="type1" speedFactor="0.92" vaporized=""/>
    <tripinfo id="f_0_1.3" depart="41.00" departLane="np16_nt1_0" departPos="32.49" departSpeed="0.00" departDelay="0.09" arrival="1415.00" arrivalLane="nt16_np8_0" arrivalPos="75.00" arrivalSpeed="16.58" duration="1374.00" routeLength="1315.39" waitingTime="1171.00" waitingCount="17" stopTime="0.00" timeLoss="1270.50" rerouteNo="0" devices="tripinfo_f_0_1.3" vType="type1" speedFactor="0.89" vaporized=""/>
    <tripinfo id="f_0_3.17" depart="267.00" departLane="np3_nt3_0" departPos="0.00" departSpeed="0.00" departDelay="127.91" arrival="1441.00" arrivalLane="nt14_np11_0" arrivalPos="75.00" arrivalSpeed="11.11" duration="1174.00" routeLength="951.09" waitingTime="1029.00" waitingCount="10" stopTime="0.00" timeLoss="1102.43" rerouteNo="0" devices="tripinfo_f_0_3.17" vType="type1" speedFactor="1.11" vaporized=""/>
    <tripinfo id="f_0_3.18" depart="270.00" departLane="np3_nt3_0" departPos="0.00" departSpeed="0.00" departDelay="122.72" arrival="1444.00" arrivalLane="nt14_np11_0" arrivalPos="75.00" arrivalSpeed="10.78" duration="1174.00" routeLength="951.09" waitingTime="1023.00" waitingCount="13" stopTime="0.00" timeLoss="1092.62" rerouteNo="0" devices="tripinfo_f_0_3.18" vType="type1" speedFactor="0.98" vaporized=""/>
    <tripinfo id="f_3_6.2" depart="926.00" departLane="np10_nt15_0" departPos="61.52" departSpeed="0.00" departDelay="0.01" arrival="1477.00" arrivalLane="nt2_np2_0" arrivalPos="64.60" arrivalSpeed="9.30" duration="551.00" routeLength="889.56" waitingTime="441.00" waitingCount="7" stopTime="0.00" timeLoss="471.26" rerouteNo="0" devices="tripinfo_f_3_6.2" vType="type1" speedFactor="0.93" vaporized=""/>
    <tripinfo id="f_3_6.3" depart="939.00" departLane="np10_nt15_0" departPos="31.41" departSpeed="0.00" departDelay="0.01" arrival="1479.00" arrivalLane="nt2_np2_0" arrivalPos="64.60" arrivalSpeed="10.01" duration="540.00" routeLength="919.67" waitingTime="426.00" waitingCount="7" stopTime="0.00" timeLoss="462.56" rerouteNo="0" devices="tripinfo_f_3_6.3" vType="type1" speedFactor="1.00" vaporized=""/>
    <tripinfo id="f_0_1.4" depart="55.00" departLane="np16_nt1_0" departPos="53.15" departSpeed="0.00" departDelay="0.46" arrival="1480.00" arrivalLane="nt16_np8_0" arrivalPos="75.00" arrivalSpeed="21.11" duration="1425.00" routeLength="1294.73" waitingTime="1224.00" waitingCount="20" stopTime="0.00" timeLoss="1342.34" rerouteNo="0" devices="tripinfo_f_0_1.4" vType="type1" speedFactor="1.09" vaporized=""/>
    <tripinfo id="f_3_6.4" depart="952.00" departLane="np10_nt15_0" departPos="46.36" departSpeed="0.00" departDelay="0.02" arrival="1481.00" arrivalLane="nt2_np2_0" arrivalPos="64.60" arrivalSpeed="9.68" duration="529.00" routeLength="904.72" waitingTime="412.00" waitingCount="7" stopTime="0.00" timeLoss="455.76" rerouteNo="0" devices="tripinfo_f_3_6.4" vType="type1" speedFactor="1.04" vaporized=""/>
    <tripinfo id="f_0_0.12" depart="164.00" departLane="np13_nt13_0" departPos="47.63" departSpeed="0.00" departDelay="0.37" arrival="1494.00" arrivalLane="nt4_np5_0" arrivalPos="75.00" arrivalSpeed="20.33" duration="1330.00" routeLength="1300.26" waitingTime="1179.00" waitingCount="12" stopTime="0.00" timeLoss="1248.37" rerouteNo="0" devices="tripinfo_f_0_0.12" vType="type1" speedFactor="1.11" vaporized=""/>
    <tripinfo id="f_3_5.4" depart="987.00" departLane="np8_nt16_0" departPos="23.88" departSpeed="0.00" departDelay="0.25" arrival="1499.00" arrivalLane="nt1_np16_0" arrivalPos="67.80" arrivalSpeed="15.08" duration="512.00" routeLength="1324.00" waitingTime="356.00" waitingCount="9" stopTime="0.00" timeLoss="404.91" rerouteNo="0" devices="tripinfo_f_3_5.4" vType="type1" speedFactor="0.86" vaporized=""/>
    <tripinfo id="f_0_2.10" depart="82.00" departLane="np2_nt2_0" departPos="27.45" departSpeed="0.00" departDelay="0.18" arrival="1534.00" arrivalLane="nt15_np10_0" arrivalPos="75.00" arrivalSpeed="7.92" duration="1452.00" routeLength="923.63" waitingTime="1250.00" waitingCount="18" stopTime="0.00" timeLoss="1368.28" rerouteNo="0" devices="tripinfo_f_0_2.10" vType="type1" speedFactor="0.93" vaporized=""/>
    <tripinfo id="f_0_0.13" depart="178.00" departLane="np13_nt13_0" departPos="51.08" departSpeed="0.00" departDelay="0.73" arrival="1537.00" arrivalLane="nt4_np5_0" arrivalPos="75.00" arrivalSpeed="17.27" duration="1359.00" routeLength="1296.81" waitingTime="1179.00" waitingCount="12" stopTime="0.00" timeLoss="1255.75" rerouteNo="0" devices="tripinfo_f_0_0.13" vType="type1" speedFactor="0.88" vaporized=""/>
    <tripinfo id="f_0_0.14" depart="191.00" departLane="np13_nt13_0" departPos="12.03" departSpeed="0.00" departDelay="0.10" arrival="1539.00" arrivalLane="nt4_np5_0" arrivalPos="75.00" arrivalSpeed="20.01" duration="1348.00" routeLength="1335.86" waitingTime="1174.00" waitingCount="13" stopTime="0.00" timeLoss="1264.13" rerouteNo="0" devices="tripinfo_f_0_0.14" vType="type1" speedFactor="1.11" vaporized=""/>
    <tripinfo id="f_0_0.15" depart="205.00" departLane="np13_nt13_0" departPos="14.28" departSpeed="0.00" departDelay="0.46" arrival="1545.00" arrivalLane="nt4_np5_0" arrivalPos="75.00" arrivalSpeed="18.55" duration="1340.00" routeLength="1333.61" waitingTime="1151.00" waitingCount="12" stopTime="0.00" timeLoss="1243.87" rerouteNo="0" devices="tripinfo_f_0_0.15" vType="type1" speedFactor="0.96" vaporized=""/>
    <tripinfo id="f_3_6.5" depart="965.00" departLane="np10_nt15_0" departPos="50.26" departSpeed="0.00" departDelay="0.02" arrival="1561.00" arrivalLane="nt2_np2_0" arrivalPos="64.60" arrivalSpeed="9.70" duration="596.00" routeLength="900.82" waitingTime="468.00" waitingCount="7" stopTime="0.00" timeLoss="511.28" rerouteNo="0" devices="tripinfo_f_3_6.5" vType="type1" speedFactor="0.89" vaporized=""/>
    <tripinfo id="f_3_5.5" depart="1009.00" departLane="np8_nt16_0" departPos="16.78" departSpeed="0.00" departDelay="0.56" arrival="1568.00" arrivalLane="nt1_np16_0" arrivalPos="67.80" arrivalSpeed="20.74" duration="559.00" routeLength="1331.10" waitingTime="407.00" waitingCount="11" stopTime="0.00" timeLoss="473.36" rerouteNo="0" devices="tripinfo_f_3_5.5" vType="type1" speedFactor="1.09" vaporized=""/>
    <tripinfo id="f_3_5.6" depart="1031.00" departLane="np8_nt16_0" departPos="45.02" departSpeed="0.00" departDelay="0.88" arrival="1573.00" arrivalLane="nt1_np16_0" arrivalPos="67.80" arrivalSpeed="16.85" duration="542.00" routeLength="1302.86" waitingTime="377.00" waitingCount="11" stopTime="0.00" timeLoss="446.38" rerouteNo="0" devices="tripinfo_f_3_5.6" vType="type1" speedFactor="0.96" vaporized=""/>
    <tripinfo id="f_3_6.6" depart="978.00" departLane="np10_nt15_0" departPos="25.34" departSpeed="0.00" departDelay="0.02" arrival="1602.00" arrivalLane="nt2_np2_0" arrivalPos="64.60" arrivalSpeed="7.78" duration="624.00" routeLength="925.74" waitingTime="489.00" waitingCount="8" stopTime="0.00" timeLoss="534.76" rerouteNo="0" devices="tripinfo_f_3_6.6" vType="type1" speedFactor="0.87" vaporized=""/>
    <tripinfo id="f_3_6.7" depart="991.00" departLane="np10_nt15_0" departPos="8.05" departSpeed="0.00" departDelay="0.03" arrival="1723.00" arrivalLane="nt2_np2_0" arrivalPos="64.60" arrivalSpeed="7.49" duration="732.00" routeLength="943.03" waitingTime="587.00" waitingCount="9" stopTime="0.00" timeLoss="641.21" rerouteNo="0" devices="tripinfo_f_3_6.7" vType="type1" speedFactor="0.87" vaporized=""/>
    <tripinfo id="f_3_6.8" depart="1004.00" departLane="np10_nt15_0" departPos="35.13" departSpeed="0.00" departDelay="0.03" arrival="1725.00" arrivalLane="nt2_np2_0" arrivalPos="64.60" arrivalSpeed="7.53" duration="721.00" routeLength="915.95" waitingTime="572.00" waitingCount="9" stopTime="0.00" timeLoss="636.78" rerouteNo="0" devices="tripinfo_f_3_6.8" vType="type1" speedFactor="0.91" vaporized=""/>
    <tripinfo id="f_3_5.7" depart="1052.00" departLane="np8_nt16_0" departPos="61.58" departSpeed="0.00" departDelay="0.19" arrival="1736.00" arrivalLane="nt1_np16_0" arrivalPos="67.80" arrivalSpeed="17.70" duration="684.00" routeLength="1286.30" waitingTime="568.00" waitingCount="5" stopTime="0.00" timeLoss="593.77" rerouteNo="0" devices="tripinfo_f_3_5.7" vType="type1" speedFactor="1.00" vaporized=""/>
    <tripinfo id="f_0_2.11" depart="90.00" departLane="np2_nt2_0" departPos="21.45" departSpeed="0.00" departDelay="0.00" arrival="1737.00" arrivalLane="nt15_np10_0" arrivalPos="75.00" arrivalSpeed="9.58" duration="1647.00" routeLength="929.63" waitingTime="1441.00" waitingCount="19" stopTime="0.00" timeLoss="1571.98" rerouteNo="0" devices="tripinfo_f_0_2.11" vType="type1" speedFactor="1.04" vaporized=""/>
    <tripinfo id="f_3_5.8" depart="1074.00" departLane="np8_nt16_0" departPos="55.96" departSpeed="0.00" departDelay="0.50" arrival="1740.00" arrivalLane="nt1_np16_0" arrivalPos="67.80" arrivalSpeed="16.60" duration="666.00" routeLength="1291.92" waitingTime="534.00" waitingCount="4" stopTime="0.00" timeLoss="567.58" rerouteNo="0" devices="tripinfo_f_3_5.8" vType="type1" speedFactor="0.92" vaporized=""/>
    <tripinfo id="f_0_0.16" depart="219.00" departLane="np13_nt13_0" departPos="5.77" departSpeed="0.00" departDelay="0.82" arrival="1777.00" arrivalLane="nt4_np5_0" arrivalPos="75.00" arrivalSpeed="17.03" duration="1558.00" routeLength="1342.12" waitingTime="1380.00" waitingCount="11" stopTime="0.00" timeLoss="1455.74" rerouteNo="0" devices="tripinfo_f_0_0.16" vType="type1" speedFactor="0.90" vaporized=""/>