<?xml version="1.0" encoding="UTF-8"?>

<!-- generated on 2023-08-30 17:57:44 by Eclipse SUMO libsumo Version 1.18.0
<configuration xmlns:xsi="http://www.w3.org/2001/XMLSchema-instance" xsi:noNamespaceSchemaLocation="http://sumo.dlr.de/xsd/libsumoConfiguration.xsd">

    <input>
        <net-file value="/home/stefan/RESCO/./environments/arterial4x4/arterial4x4.net.xml"/>
        <route-files value="/home/stefan/RESCO/./environments/arterial4x4/arterial4x4_8.rou.xml"/>
    </input>

    <output>
        <tripinfo-output value="/home/stefan/results/RAINBOW-tr0-arterial4x4-0-drq_norm-wait_norm/tripinfo_8.xml"/>
        <tripinfo-output.write-unfinished value="true"/>
    </output>

    <processing>
        <time-to-teleport value="-1"/>
    </processing>

    <report>
        <no-warnings value="True"/>
        <no-step-log value="True"/>
    </report>

    <random_number>
        <random value="true"/>
    </random_number>

</configuration>
-->

<tripinfos xmlns:xsi="http://www.w3.org/2001/XMLSchema-instance" xsi:noNamespaceSchemaLocation="http://sumo.dlr.de/xsd/tripinfo_file.xsd">
    <tripinfo id="f_0_2.0" depart="0.00" departLane="np2_nt2_0" departPos="4.12" departSpeed="0.00" departDelay="0.00" arrival="112.00" arrivalLane="nt15_np10_0" arrivalPos="75.00" arrivalSpeed="9.31" duration="112.00" routeLength="946.96" waitingTime="14.00" waitingCount="4" stopTime="0.00" timeLoss="37.43" rerouteNo="0" devices="tripinfo_f_0_2.0" vType="type1" speedFactor="1.07" vaporized=""/>
    <tripinfo id="f_0_2.1" depart="9.00" departLane="np2_nt2_0" departPos="46.24" departSpeed="0.00" departDelay="0.82" arrival="122.00" arrivalLane="nt15_np10_0" arrivalPos="75.00" arrivalSpeed="10.78" duration="113.00" routeLength="904.84" waitingTime="15.00" waitingCount="4" stopTime="0.00" timeLoss="38.80" rerouteNo="0" devices="tripinfo_f_0_2.1" vType="type1" speedFactor="1.02" vaporized=""/>
    <tripinfo id="f_0_3.0" depart="0.00" departLane="np3_nt3_0" departPos="3.32" departSpeed="0.00" departDelay="0.00" arrival="133.00" arrivalLane="nt14_np11_0" arrivalPos="75.00" arrivalSpeed="9.34" duration="133.00" routeLength="947.77" waitingTime="26.00" waitingCount="3" stopTime="0.00" timeLoss="46.99" rerouteNo="0" devices="tripinfo_f_0_3.0" vType="type1" speedFactor="0.93" vaporized=""/>
    <tripinfo id="f_0_3.1" depart="9.00" departLane="np3_nt3_0" departPos="13.28" departSpeed="0.00" departDelay="0.82" arrival="141.00" arrivalLane="nt14_np11_0" arrivalPos="75.00" arrivalSpeed="9.14" duration="132.00" routeLength="937.81" waitingTime="37.00" waitingCount="3" stopTime="0.00" timeLoss="57.68" rerouteNo="0" devices="tripinfo_f_0_3.1" vType="type1" speedFactor="1.05" vaporized=""/>
    <tripinfo id="f_0_2.2" depart="17.00" departLane="np2_nt2_0" departPos="45.51" departSpeed="0.00" departDelay="0.64" arrival="159.00" arrivalLane="nt15_np10_0" arrivalPos="75.00" arrivalSpeed="7.32" duration="142.00" routeLength="905.57" waitingTime="30.00" waitingCount="4" stopTime="0.00" timeLoss="56.08" rerouteNo="0" devices="tripinfo_f_0_2.2" vType="type1" speedFactor="0.89" vaporized=""/>
    <tripinfo id="f_0_2.3" depart="25.00" departLane="np2_nt2_0" departPos="28.32" departSpeed="0.00" departDelay="0.45" arrival="161.00" arrivalLane="nt15_np10_0" arrivalPos="75.00" arrivalSpeed="9.87" duration="136.00" routeLength="922.76" waitingTime="22.00" waitingCount="4" stopTime="0.00" timeLoss="48.84" rerouteNo="0" devices="tripinfo_f_0_2.3" vType="type1" speedFactor="0.90" vaporized=""/>
    <tripinfo id="f_0_2.4" depart="33.00" departLane="np2_nt2_0" departPos="58.58" departSpeed="0.00" departDelay="0.27" arrival="163.00" arrivalLane="nt15_np10_0" arrivalPos="75.00" arrivalSpeed="11.11" duration="130.00" routeLength="892.50" waitingTime="15.00" waitingCount="5" stopTime="0.00" timeLoss="57.09" rerouteNo="0" devices="tripinfo_f_0_2.4" vType="type1" speedFactor="1.03" vaporized=""/>
    <tripinfo id="f_0_2.5" depart="41.00" departLane="np2_nt2_0" departPos="32.11" departSpeed="0.00" departDelay="0.09" arrival="165.00" arrivalLane="nt15_np10_0" arrivalPos="75.00" arrivalSpeed="9.34" duration="124.00" routeLength="918.97" waitingTime="10.00" waitingCount="3" stopTime="0.00" timeLoss="40.37" rerouteNo="0" devices="tripinfo_f_0_2.5" vType="type1" speedFactor="0.93" vaporized=""/>
    <tripinfo id="f_0_1.0" depart="0.00" departLane="np16_nt1_0" departPos="10.37" departSpeed="0.00" departDelay="0.00" arrival="214.00" arrivalLane="nt16_np8_0" arrivalPos="75.00" arrivalSpeed="19.81" duration="214.00" routeLength="1337.51" waitingTime="77.00" waitingCount="6" stopTime="0.00" timeLoss="126.67" rerouteNo="0" devices="tripinfo_f_0_1.0" vType="type1" speedFactor="1.07" vaporized=""/>
    <tripinfo id="f_0_3.2" depart="17.00" departLane="np3_nt3_0" departPos="53.01" departSpeed="0.00" departDelay="0.64" arrival="229.00" arrivalLane="nt14_np11_0" arrivalPos="75.00" arrivalSpeed="8.14" duration="212.00" routeLength="898.08" waitingTime="96.00" waitingCount="5" stopTime="0.00" timeLoss="127.78" rerouteNo="0" devices="tripinfo_f_0_3.2" vType="type1" speedFactor="0.89" vaporized=""/>
    <tripinfo id="f_0_3.3" depart="25.00" departLane="np3_nt3_0" departPos="43.32" departSpeed="0.00" departDelay="0.45" arrival="230.00" arrivalLane="nt14_np11_0" arrivalPos="75.00" arrivalSpeed="10.33" duration="205.00" routeLength="907.77" waitingTime="87.00" waitingCount="5" stopTime="0.00" timeLoss="128.39" rerouteNo="0" devices="tripinfo_f_0_3.3" vType="type1" speedFactor="0.99" vaporized=""/>
    <tripinfo id="f_0_3.4" depart="33.00" departLane="np3_nt3_0" departPos="39.25" departSpeed="0.00" departDelay="0.27" arrival="257.00" arrivalLane="nt14_np11_0" arrivalPos="75.00" arrivalSpeed="8.73" duration="224.00" routeLength="911.84" waitingTime="105.00" waitingCount="7" stopTime="0.00" timeLoss="146.28" rerouteNo="0" devices="tripinfo_f_0_3.4" vType="type1" speedFactor="0.98" vaporized=""/>
    <tripinfo id="f_0_0.0" depart="0.00" departLane="np13_nt13_0" departPos="35.99" departSpeed="0.00" departDelay="0.00" arrival="258.00" arrivalLane="nt4_np5_0" arrivalPos="75.00" arrivalSpeed="20.08" duration="258.00" routeLength="1311.90" waitingTime="131.00" waitingCount="6" stopTime="0.00" timeLoss="167.92" rerouteNo="0" devices="tripinfo_f_0_0.0" vType="type1" speedFactor="1.01" vaporized=""/>
    <tripinfo id="f_0_3.5" depart="41.00" departLane="np3_nt3_0" departPos="31.09" departSpeed="0.00" departDelay="0.09" arrival="259.00" arrivalLane="nt14_np11_0" arrivalPos="75.00" arrivalSpeed="11.97" duration="218.00" routeLength="920.00" waitingTime="91.00" waitingCount="8" stopTime="0.00" timeLoss="148.22" rerouteNo="0" devices="tripinfo_f_0_3.5" vType="type1" speedFactor="1.10" vaporized=""/>
    <tripinfo id="f_0_3.6" depart="50.00" departLane="np3_nt3_0" departPos="12.56" departSpeed="0.00" departDelay="0.91" arrival="273.00" arrivalLane="nt14_np11_0" arrivalPos="75.00" arrivalSpeed="8.52" duration="223.00" routeLength="938.53" waitingTime="107.00" waitingCount="6" stopTime="0.00" timeLoss="137.82" rerouteNo="0" devices="tripinfo_f_0_3.6" vType="type1" speedFactor="0.93" vaporized=""/>
    <tripinfo id="f_0_3.7" depart="58.00" departLane="np3_nt3_0" departPos="24.97" departSpeed="0.00" departDelay="0.73" arrival="274.00" arrivalLane="nt14_np11_0" arrivalPos="75.00" arrivalSpeed="10.97" duration="216.00" routeLength="926.12" waitingTime="100.00" waitingCount="8" stopTime="0.00" timeLoss="147.36" rerouteNo="0" devices="tripinfo_f_0_3.7" vType="type1" speedFactor="1.12" vaporized=""/>
    <tripinfo id="f_0_0.1" depart="14.00" departLane="np13_nt13_0" departPos="61.60" departSpeed="0.00" departDelay="0.36" arrival="284.00" arrivalLane="nt4_np5_0" arrivalPos="75.00" arrivalSpeed="15.78" duration="270.00" routeLength="1286.29" waitingTime="129.00" waitingCount="7" stopTime="0.00" timeLoss="167.47" rerouteNo="0" devices="tripinfo_f_0_0.1" vType="type1" speedFactor="0.88" vaporized=""/>
    <tripinfo id="f_0_3.8" depart="66.00" departLane="np3_nt3_0" departPos="30.69" departSpeed="0.00" departDelay="0.54" arrival="284.00" arrivalLane="nt14_np11_0" arrivalPos="75.00" arrivalSpeed="8.36" duration="218.00" routeLength="920.40" waitingTime="78.00" waitingCount="10" stopTime="0.00" timeLoss="124.43" rerouteNo="0" devices="tripinfo_f_0_3.8" vType="type1" speedFactor="0.83" vaporized=""/>
    <tripinfo id="f_0_3.9" depart="74.00" departLane="np3_nt3_0" departPos="4.20" departSpeed="0.00" departDelay="0.36" arrival="297.00" arrivalLane="nt14_np11_0" arrivalPos="75.00" arrivalSpeed="9.69" duration="223.00" routeLength="946.89" waitingTime="83.00" waitingCount="11" stopTime="0.00" timeLoss="146.08" rerouteNo="0" devices="tripinfo_f_0_3.9" vType="type1" speedFactor="1.04" vaporized=""/>
    <tripinfo id="f_0_3.10" depart="82.00" departLane="np3_nt3_0" departPos="17.87" departSpeed="0.00" departDelay="0.18" arrival="300.00" arrivalLane="nt14_np11_0" arrivalPos="75.00" arrivalSpeed="8.93" duration="218.00" routeLength="933.22" waitingTime="69.00" waitingCount="10" stopTime="0.00" timeLoss="135.76" rerouteNo="0" devices="tripinfo_f_0_3.10" vType="type1" speedFactor="0.96" vaporized=""/>
    <tripinfo id="f_0_0.2" depart="28.00" departLane="np13_nt13_0" departPos="66.30" departSpeed="0.00" departDelay="0.73" arrival="303.00" arrivalLane="nt4_np5_0" arrivalPos="75.00" arrivalSpeed="22.82" duration="275.00" routeLength="1281.59" waitingTime="147.00" waitingCount="9" stopTime="0.00" timeLoss="202.35" rerouteNo="0" devices="tripinfo_f_0_0.2" vType="type1" speedFactor="1.23" vaporized=""/>
    <tripinfo id="f_0_2.6" depart="50.00" departLane="np2_nt2_0" departPos="40.13" departSpeed="0.00" departDelay="0.91" arrival="306.00" arrivalLane="nt15_np10_0" arrivalPos="75.00" arrivalSpeed="10.48" duration="256.00" routeLength="910.95" waitingTime="141.00" waitingCount="6" stopTime="0.00" timeLoss="187.10" rerouteNo="0" devices="tripinfo_f_0_2.6" vType="type1" speedFactor="1.10" vaporized=""/>
    <tripinfo id="f_0_1.1" depart="14.00" departLane="np16_nt1_0" departPos="24.58" departSpeed="0.00" departDelay="0.36" arrival="308.00" arrivalLane="nt16_np8_0" arrivalPos="75.00" arrivalSpeed="18.96" duration="294.00" routeLength="1323.30" waitingTime="153.00" waitingCount="9" stopTime="0.00" timeLoss="198.84" rerouteNo="0" devices="tripinfo_f_0_1.1" vType="type1" speedFactor="0.96" vaporized=""/>
    <tripinfo id="f_0_2.7" depart="58.00" departLane="np2_nt2_0" departPos="33.03" departSpeed="0.00" departDelay="0.73" arrival="309.00" arrivalLane="nt15_np10_0" arrivalPos="75.00" arrivalSpeed="10.96" duration="251.00" routeLength="918.05" waitingTime="139.00" waitingCount="9" stopTime="0.00" timeLoss="176.89" rerouteNo="0" devices="tripinfo_f_0_2.7" vType="type1" speedFactor="1.04" vaporized=""/>
    <tripinfo id="f_0_0.3" depart="41.00" departLane="np13_nt13_0" departPos="15.24" departSpeed="0.00" departDelay="0.09" arrival="313.00" arrivalLane="nt4_np5_0" arrivalPos="75.00" arrivalSpeed="15.01" duration="272.00" routeLength="1332.65" waitingTime="118.00" waitingCount="8" stopTime="0.00" timeLoss="165.13" rerouteNo="0" devices="tripinfo_f_0_0.3" vType="type1" speedFactor="0.86" vaporized=""/>
    <tripinfo id="f_0_0.4" depart="55.00" departLane="np13_nt13_0" departPos="24.41" departSpeed="0.00" departDelay="0.46" arrival="316.00" arrivalLane="nt4_np5_0" arrivalPos="75.00" arrivalSpeed="15.63" duration="261.00" routeLength="1323.48" waitingTime="101.00" waitingCount="9" stopTime="0.00" timeLoss="152.02" rerouteNo="0" devices="tripinfo_f_0_0.4" vType="type1" speedFactor="0.84" vaporized=""/>
    <tripinfo id="f_0_3.11" depart="90.00" departLane="np3_nt3_0" departPos="10.03" departSpeed="0.00" departDelay="0.00" arrival="318.00" arrivalLane="nt14_np11_0" arrivalPos="75.00" arrivalSpeed="10.16" duration="228.00" routeLength="941.06" waitingTime="80.00" waitingCount="12" stopTime="0.00" timeLoss="145.96" rerouteNo="0" devices="tripinfo_f_0_3.11" vType="type1" speedFactor="0.97" vaporized=""/>
    <tripinfo id="f_0_0.5" depart="69.00" departLane="np13_nt13_0" departPos="14.39" departSpeed="0.00" departDelay="0.82" arrival="328.00" arrivalLane="nt4_np5_0" arrivalPos="75.00" arrivalSpeed="20.07" duration="259.00" routeLength="1333.50" waitingTime="111.00" waitingCount="11" stopTime="0.00" timeLoss="168.50" rerouteNo="0" devices="tripinfo_f_0_0.5" vType="type1" speedFactor="1.02" vaporized=""/>
    <tripinfo id="f_0_0.6" depart="82.00" departLane="np13_nt13_0" departPos="3.06" departSpeed="0.00" departDelay="0.18" arrival="330.00" arrivalLane="nt4_np5_0" arrivalPos="75.00" arrivalSpeed="18.16" duration="248.00" routeLength="1344.83" waitingTime="92.00" waitingCount="9" stopTime="0.00" timeLoss="154.47" rerouteNo="0" devices="tripinfo_f_0_0.6" vType="type1" speedFactor="0.99" vaporized=""/>
    <tripinfo id="f_0_3.12" depart="99.00" departLane="np3_nt3_0" departPos="5.74" departSpeed="0.00" departDelay="0.82" arrival="341.00" arrivalLane="nt14_np11_0" arrivalPos="75.00" arrivalSpeed="12.12" duration="242.00" routeLength="945.35" waitingTime="86.00" waitingCount="12" stopTime="0.00" timeLoss="172.91" rerouteNo="0" devices="tripinfo_f_0_3.12" vType="type1" speedFactor="1.15" vaporized=""/>
    <tripinfo id="f_0_1.2" depart="28.00" departLane="np16_nt1_0" departPos="52.39" departSpeed="0.00" departDelay="0.73" arrival="342.00" arrivalLane="nt16_np8_0" arrivalPos="75.00" arrivalSpeed="17.90" duration="314.00" routeLength="1295.49" waitingTime="167.00" waitingCount="11" stopTime="0.00" timeLoss="218.91" rerouteNo="0" devices="tripinfo_f_0_1.2" vType="type1" speedFactor="0.95" vaporized=""/>
    <tripinfo id="f_0_3.13" depart="107.00" departLane="np3_nt3_0" departPos="17.45" departSpeed="0.00" departDelay="0.63" arrival="347.00" arrivalLane="nt14_np11_0" arrivalPos="75.00" arrivalSpeed="7.85" duration="240.00" routeLength="933.64" waitingTime="80.00" waitingCount="10" stopTime="0.00" timeLoss="142.13" rerouteNo="0" devices="tripinfo_f_0_3.13" vType="type1" speedFactor="0.80" vaporized=""/>
    <tripinfo id="f_0_3.14" depart="115.00" departLane="np3_nt3_0" departPos="1.90" departSpeed="0.00" departDelay="0.45" arrival="349.00" arrivalLane="nt14_np11_0" arrivalPos="75.00" arrivalSpeed="9.46" duration="234.00" routeLength="949.19" waitingTime="73.00" waitingCount="8" stopTime="0.00" timeLoss="145.71" rerouteNo="0" devices="tripinfo_f_0_3.14" vType="type1" speedFactor="0.91" vaporized=""/>
    <tripinfo id="f_0_3.15" depart="123.00" departLane="np3_nt3_0" departPos="15.25" departSpeed="0.00" departDelay="0.27" arrival="351.00" arrivalLane="nt14_np11_0" arrivalPos="75.00" arrivalSpeed="7.39" duration="228.00" routeLength="935.84" waitingTime="68.00" waitingCount="9" stopTime="0.00" timeLoss="137.77" rerouteNo="0" devices="tripinfo_f_0_3.15" vType="type1" speedFactor="0.87" vaporized=""/>
    <tripinfo id="f_0_2.8" depart="66.00" departLane="np2_nt2_0" departPos="43.52" departSpeed="0.00" departDelay="0.54" arrival="354.00" arrivalLane="nt15_np10_0" arrivalPos="75.00" arrivalSpeed="9.89" duration="288.00" routeLength="907.56" waitingTime="152.00" waitingCount="9" stopTime="0.00" timeLoss="203.00" rerouteNo="0" devices="tripinfo_f_0_2.8" vType="type1" speedFactor="0.90" vaporized=""/>
    <tripinfo id="f_0_3.16" depart="131.00" departLane="np3_nt3_0" departPos="15.46" departSpeed="0.00" departDelay="0.09" arrival="362.00" arrivalLane="nt14_np11_0" arrivalPos="75.00" arrivalSpeed="10.47" duration="231.00" routeLength="935.63" waitingTime="73.00" waitingCount="12" stopTime="0.00" timeLoss="152.15" rerouteNo="0" devices="tripinfo_f_0_3.16" vType="type1" speedFactor="0.99" vaporized=""/>
    <tripinfo id="f_0_2.9" depart="74.00" departLane="np2_nt2_0" departPos="33.02" departSpeed="0.00" departDelay="0.36" arrival="392.00" arrivalLane="nt15_np10_0" arrivalPos="75.00" arrivalSpeed="9.62" duration="318.00" routeLength="918.06" waitingTime="179.00" waitingCount="10" stopTime="0.00" timeLoss="241.99" rerouteNo="0" devices="tripinfo_f_0_2.9" vType="type1" speedFactor="1.02" vaporized=""/>
    <tripinfo id="f_0_0.7" depart="96.00" departLane="np13_nt13_0" departPos="67.40" departSpeed="0.00" departDelay="0.55" arrival="393.00" arrivalLane="nt4_np5_0" arrivalPos="75.00" arrivalSpeed="19.50" duration="297.00" routeLength="1280.49" waitingTime="137.00" waitingCount="12" stopTime="0.00" timeLoss="210.66" rerouteNo="0" devices="tripinfo_f_0_0.7" vType="type1" speedFactor="1.04" vaporized=""/>
    <tripinfo id="f_0_2.10" depart="82.00" departLane="np2_nt2_0" departPos="2.38" departSpeed="0.00" departDelay="0.18" arrival="396.00" arrivalLane="nt15_np10_0" arrivalPos="75.00" arrivalSpeed="11.24" duration="314.00" routeLength="948.70" waitingTime="169.00" waitingCount="12" stopTime="0.00" timeLoss="242.18" rerouteNo="0" devices="tripinfo_f_0_2.10" vType="type1" speedFactor="1.11" vaporized=""/>
    <tripinfo id="f_0_2.11" depart="90.00" departLane="np2_nt2_0" departPos="7.07" departSpeed="0.00" departDelay="0.00" arrival="407.00" arrivalLane="nt15_np10_0" arrivalPos="75.00" arrivalSpeed="8.66" duration="317.00" routeLength="944.01" waitingTime="162.00" waitingCount="12" stopTime="0.00" timeLoss="238.16" rerouteNo="0" devices="tripinfo_f_0_2.11" vType="type1" speedFactor="1.01" vaporized=""/>
    <tripinfo id="f_0_1.3" depart="41.00" departLane="np16_nt1_0" departPos="10.68" departSpeed="0.00" departDelay="0.09" arrival="408.00" arrivalLane="nt16_np8_0" arrivalPos="75.00" arrivalSpeed="18.72" duration="367.00" routeLength="1337.20" waitingTime="197.00" waitingCount="11" stopTime="0.00" timeLoss="271.36" rerouteNo="0" devices="tripinfo_f_0_1.3" vType="type1" speedFactor="0.97" vaporized=""/>
    <tripinfo id="f_0_2.12" depart="99.00" departLane="np2_nt2_0" departPos="15.92" departSpeed="0.00" departDelay="0.82" arrival="409.00" arrivalLane="nt15_np10_0" arrivalPos="75.00" arrivalSpeed="12.44" duration="310.00" routeLength="935.16" waitingTime="151.00" waitingCount="13" stopTime="0.00" timeLoss="240.51" rerouteNo="0" devices="tripinfo_f_0_2.12" vType="type1" speedFactor="1.13" vaporized=""/>
    <tripinfo id="f_0_2.13" depart="107.00" departLane="np2_nt2_0" departPos="0.02" departSpeed="0.00" departDelay="0.63" arrival="412.00" arrivalLane="nt15_np10_0" arrivalPos="75.00" arrivalSpeed="7.92" duration="305.00" routeLength="951.06" waitingTime="142.00" waitingCount="11" stopTime="0.00" timeLoss="217.96" rerouteNo="0" devices="tripinfo_f_0_2.13" vType="type1" speedFactor="0.92" vaporized=""/>
    <tripinfo id="f_0_0.8" depart="110.00" departLane="np13_nt13_0" departPos="43.15" departSpeed="0.00" departDelay="0.91" arrival="412.00" arrivalLane="nt4_np5_0" arrivalPos="75.00" arrivalSpeed="18.41" duration="302.00" routeLength="1304.74" waitingTime="132.00" waitingCount="10" stopTime="0.00" timeLoss="203.64" rerouteNo="0" devices="tripinfo_f_0_0.8" vType="type1" speedFactor="0.93" vaporized=""/>
    <tripinfo id="f_0_2.14" depart="115.00" departLane="np2_nt2_0" departPos="6.54" departSpeed="0.00" departDelay="0.45" arrival="414.00" arrivalLane="nt15_np10_0" arrivalPos="75.00" arrivalSpeed="9.68" duration="299.00" routeLength="944.54" waitingTime="144.00" waitingCount="11" stopTime="0.00" timeLoss="213.94" rerouteNo="0" devices="tripinfo_f_0_2.14" vType="type1" speedFactor="0.94" vaporized=""/>
    <tripinfo id="f_0_0.9" depart="123.00" departLane="np13_nt13_0" departPos="52.96" departSpeed="0.00" departDelay="0.28" arrival="414.00" arrivalLane="nt4_np5_0" arrivalPos="75.00" arrivalSpeed="19.52" duration="291.00" routeLength="1294.93" waitingTime="130.00" waitingCount="9" stopTime="0.00" timeLoss="207.47" rerouteNo="0" devices="tripinfo_f_0_0.9" vType="type1" speedFactor="1.10" vaporized=""/>
    <tripinfo id="f_0_2.15" depart="123.00" departLane="np2_nt2_0" departPos="15.53" departSpeed="0.00" departDelay="0.27" arrival="418.00" arrivalLane="nt15_np10_0" arrivalPos="75.00" arrivalSpeed="9.96" duration="295.00" routeLength="935.55" waitingTime="145.00" waitingCount="10" stopTime="0.00" timeLoss="215.78" rerouteNo="0" devices="tripinfo_f_0_2.15" vType="type1" speedFactor="0.99" vaporized=""/>
    <tripinfo id="f_0_0.10" depart="137.00" departLane="np13_nt13_0" departPos="30.57" departSpeed="0.00" departDelay="0.64" arrival="444.00" arrivalLane="nt4_np5_0" arrivalPos="75.00" arrivalSpeed="19.17" duration="307.00" routeLength="1317.32" waitingTime="142.00" waitingCount="10" stopTime="0.00" timeLoss="213.65" rerouteNo="0" devices="tripinfo_f_0_0.10" vType="type1" speedFactor="0.99" vaporized=""/>
    <tripinfo id="f_0_0.11" depart="150.00" departLane="np13_nt13_0" departPos="7.43" departSpeed="0.00" departDelay="0.00" arrival="478.00" arrivalLane="nt4_np5_0" arrivalPos="75.00" arrivalSpeed="18.85" duration="328.00" routeLength="1340.46" waitingTime="175.00" waitingCount="9" stopTime="0.00" timeLoss="229.62" rerouteNo="0" devices="tripinfo_f_0_0.11" vType="type1" speedFactor="0.95" vaporized=""/>
    <tripinfo id="f_0_0.12" depart="164.00" departLane="np13_nt13_0" departPos="34.58" departSpeed="0.00" departDelay="0.37" arrival="479.00" arrivalLane="nt4_np5_0" arrivalPos="75.00" arrivalSpeed="19.14" duration="315.00" routeLength="1313.31" waitingTime="157.00" waitingCount="10" stopTime="0.00" timeLoss="222.30" rerouteNo="0" devices="tripinfo_f_0_0.12" vType="type1" speedFactor="0.99" vaporized=""/>
    <tripinfo id="f_0_0.13" depart="178.00" departLane="np13_nt13_0" departPos="64.75" departSpeed="0.00" departDelay="0.73" arrival="481.00" arrivalLane="nt4_np5_0" arrivalPos="75.00" arrivalSpeed="20.56" duration="303.00" routeLength="1283.14" waitingTime="158.00" waitingCount="9" stopTime="0.00" timeLoss="220.46" rerouteNo="0" devices="tripinfo_f_0_0.13" vType="type1" speedFactor="1.10" vaporized=""/>
    <tripinfo id="f_0_1.4" depart="55.00" departLane="np16_nt1_0" departPos="8.41" departSpeed="0.00" departDelay="0.46" arrival="483.00" arrivalLane="nt16_np8_0" arrivalPos="75.00" arrivalSpeed="17.68" duration="428.00" routeLength="1339.47" waitingTime="247.00" waitingCount="13" stopTime="0.00" timeLoss="326.41" rerouteNo="0" devices="tripinfo_f_0_1.4" vType="type1" speedFactor="0.91" vaporized=""/>
    <tripinfo id="f_0_1.5" depart="69.00" departLane="np16_nt1_0" departPos="42.71" departSpeed="0.00" departDelay="0.82" arrival="485.00" arrivalLane="nt16_np8_0" arrivalPos="75.00" arrivalSpeed="20.58" duration="416.00" routeLength="1305.17" waitingTime="234.00" waitingCount="13" stopTime="0.00" timeLoss="332.23" rerouteNo="0" devices="tripinfo_f_0_1.5" vType="type1" speedFactor="1.10" vaporized=""/>
    <tripinfo id="f_0_3.17" depart="140.00" departLane="np3_nt3_0" departPos="18.69" departSpeed="0.00" departDelay="0.91" arrival="486.00" arrivalLane="nt14_np11_0" arrivalPos="75.00" arrivalSpeed="12.02" duration="346.00" routeLength="932.40" waitingTime="199.00" waitingCount="12" stopTime="0.00" timeLoss="274.55" rerouteNo="0" devices="tripinfo_f_0_3.17" vType="type1" speedFactor="1.10" vaporized=""/>
    <tripinfo id="f_0_0.14" depart="191.00" departLane="np13_nt13_0" departPos="35.95" departSpeed="0.00" departDelay="0.10" arrival="497.00" arrivalLane="nt4_np5_0" arrivalPos="75.00" arrivalSpeed="21.03" duration="306.00" routeLength="1311.94" waitingTime="153.00" waitingCount="9" stopTime="0.00" timeLoss="221.15" rerouteNo="0" devices="tripinfo_f_0_0.14" vType="type1" speedFactor="1.08" vaporized=""/>
    <tripinfo id="f_0_1.14" depart="191.00" departLane="np16_nt1_0" departPos="4.32" departSpeed="0.00" departDelay="0.10" arrival="499.00" arrivalLane="nt16_np8_0" arrivalPos="75.00" arrivalSpeed="15.68" duration="308.00" routeLength="1343.56" waitingTime="150.00" waitingCount="10" stopTime="0.00" timeLoss="200.41" rerouteNo="0" devices="tripinfo_f_0_1.14" vType="type1" speedFactor="0.87" vaporized=""/>
    <tripinfo id="f_0_1.11" depart="150.00" departLane="np16_nt1_0" departPos="29.69" departSpeed="0.00" departDelay="0.00" arrival="500.00" arrivalLane="nt16_np8_0" arrivalPos="75.00" arrivalSpeed="19.72" duration="350.00" routeLength="1318.19" waitingTime="193.00" waitingCount="11" stopTime="0.00" timeLoss="259.89" rerouteNo="0" devices="tripinfo_f_0_1.11" vType="type1" speedFactor="1.02" vaporized=""/>
    <tripinfo id="f_0_3.18" depart="148.00" departLane="np3_nt3_0" departPos="22.32" departSpeed="0.00" departDelay="0.72" arrival="507.00" arrivalLane="nt14_np11_0" arrivalPos="75.00" arrivalSpeed="10.12" duration="359.00" routeLength="928.77" waitingTime="214.00" waitingCount="9" stopTime="0.00" timeLoss="280.81" rerouteNo="0" devices="tripinfo_f_0_3.18" vType="type1" speedFactor="1.00" vaporized=""/>
    <tripinfo id="f_0_3.19" depart="156.00" departLane="np3_nt3_0" departPos="34.71" departSpeed="0.00" departDelay="0.54" arrival="510.00" arrivalLane="nt14_np11_0" arrivalPos="75.00" arrivalSpeed="8.45" duration="354.00" routeLength="916.38" waitingTime="198.00" waitingCount="10" stopTime="0.00" timeLoss="268.00" rerouteNo="0" devices="tripinfo_f_0_3.19" vType="type1" speedFactor="0.89" vaporized=""/>
    <tripinfo id="f_0_0.15" depart="205.00" departLane="np13_nt13_0" departPos="24.29" departSpeed="0.00" departDelay="0.46" arrival="514.00" arrivalLane="nt4_np5_0" arrivalPos="75.00" arrivalSpeed="20.71" duration="309.00" routeLength="1323.60" waitingTime="156.00" waitingCount="10" stopTime="0.00" timeLoss="223.06" rerouteNo="0" devices="tripinfo_f_0_0.15" vType="type1" speedFactor="1.07" vaporized=""/>
    <tripinfo id="f_0_0.16" depart="219.00" departLane="np13_nt13_0" departPos="45.46" departSpeed="0.00" departDelay="0.82" arrival="516.00" arrivalLane="nt4_np5_0" arrivalPos="75.00" arrivalSpeed="19.99" duration="297.00" routeLength="1302.43" waitingTime="146.00" waitingCount="9" stopTime="0.00" timeLoss="213.74" rerouteNo="0" devices="tripinfo_f_0_0.16" vType="type1" speedFactor="1.10" vaporized=""/>
    <tripinfo id="f_0_2.16" depart="131.00" departLane="np2_nt2_0" departPos="14.38" departSpeed="0.00" departDelay="0.09" arrival="518.00" arrivalLane="nt15_np10_0" arrivalPos="75.00" arrivalSpeed="9.17" duration="387.00" routeLength="936.70" waitingTime="217.00" waitingCount="15" stopTime="0.00" timeLoss="302.27" rerouteNo="0" devices="tripinfo_f_0_2.16" vType="type1" speedFactor="0.93" vaporized=""/>
    <tripinfo id="f_0_3.20" depart="164.00" departLane="np3_nt3_0" departPos="5.06" departSpeed="0.00" departDelay="0.36" arrival="532.00" arrivalLane="nt14_np11_0" arrivalPos="75.00" arrivalSpeed="10.88" duration="368.00" routeLength="946.03" waitingTime="214.00" waitingCount="12" stopTime="0.00" timeLoss="291.47" rerouteNo="0" devices="tripinfo_f_0_3.20" vType="type1" speedFactor="1.05" vaporized=""/>
    <tripinfo id="f_0_3.21" depart="172.00" departLane="np3_nt3_0" departPos="28.43" departSpeed="0.00" departDelay="0.18" arrival="543.00" arrivalLane="nt14_np11_0" arrivalPos="75.00" arrivalSpeed="8.22" duration="371.00" routeLength="922.66" waitingTime="208.00" waitingCount="14" stopTime="0.00" timeLoss="285.78" rerouteNo="0" devices="tripinfo_f_0_3.21" vType="type1" speedFactor="0.91" vaporized=""/>
    <tripinfo id="f_0_3.22" depart="180.00" departLane="np3_nt3_0" departPos="23.88" departSpeed="0.00" departDelay="0.00" arrival="545.00" arrivalLane="nt14_np11_0" arrivalPos="75.00" arrivalSpeed="8.13" duration="365.00" routeLength="927.21" waitingTime="198.00" waitingCount="13" stopTime="0.00" timeLoss="283.35" rerouteNo="0" devices="tripinfo_f_0_3.22" vType="type1" speedFactor="0.95" vaporized=""/>
    <tripinfo id="f_0_1.15" depart="205.00" departLane="np16_nt1_0" departPos="47.98" departSpeed="0.00" departDelay="0.46" arrival="553.00" arrivalLane="nt16_np8_0" arrivalPos="75.00" arrivalSpeed="19.12" duration="348.00" routeLength="1299.90" waitingTime="176.00" waitingCount="14" stopTime="0.00" timeLoss="255.94" rerouteNo="0" devices="tripinfo_f_0_1.15" vType="type1" speedFactor="0.99" vaporized=""/>
    <tripinfo id="f_0_2.17" depart="140.00" departLane="np2_nt2_0" departPos="43.07" departSpeed="0.00" departDelay="0.91" arrival="572.00" arrivalLane="nt15_np10_0" arrivalPos="75.00" arrivalSpeed="9.74" duration="432.00" routeLength="908.01" waitingTime="267.00" waitingCount="14" stopTime="0.00" timeLoss="355.14" rerouteNo="0" devices="tripinfo_f_0_2.17" vType="type1" speedFactor="0.99" vaporized=""/>
    <tripinfo id="f_0_3.23" depart="189.00" departLane="np3_nt3_0" departPos="12.78" departSpeed="0.00" departDelay="0.81" arrival="572.00" arrivalLane="nt14_np11_0" arrivalPos="75.00" arrivalSpeed="9.55" duration="383.00" routeLength="938.31" waitingTime="218.00" waitingCount="15" stopTime="0.00" timeLoss="301.59" rerouteNo="0" devices="tripinfo_f_0_3.23" vType="type1" speedFactor="0.97" vaporized=""/>
    <tripinfo id="f_0_3.24" depart="197.00" departLane="np3_nt3_0" departPos="0.78" departSpeed="0.00" departDelay="0.63" arrival="574.00" arrivalLane="nt14_np11_0" arrivalPos="75.00" arrivalSpeed="10.01" duration="377.00" routeLength="950.31" waitingTime="212.00" waitingCount="15" stopTime="0.00" timeLoss="302.03" rerouteNo="0" devices="tripinfo_f_0_3.24" vType="type1" speedFactor="1.06" vaporized=""/>
    <tripinfo id="f_0_3.25" depart="205.00" departLane="np3_nt3_0" departPos="14.34" departSpeed="0.00" departDelay="0.45" arrival="576.00" arrivalLane="nt14_np11_0" arrivalPos="75.00" arrivalSpeed="9.09" duration="371.00" routeLength="936.75" waitingTime="203.00" waitingCount="15" stopTime="0.00" timeLoss="290.02" rerouteNo="0" devices="tripinfo_f_0_3.25" vType="type1" speedFactor="0.96" vaporized=""/>
    <tripinfo id="f_0_2.27" depart="221.00" departLane="np2_nt2_0" departPos="23.04" departSpeed="0.00" departDelay="0.09" arrival="576.00" arrivalLane="nt15_np10_0" arrivalPos="75.00" arrivalSpeed="8.87" duration="355.00" routeLength="928.04" waitingTime="210.00" waitingCount="12" stopTime="0.00" timeLoss="264.59" rerouteNo="0" devices="tripinfo_f_0_2.27" vType="type1" speedFactor="0.87" vaporized=""/>