<?xml version="1.0" encoding="UTF-8"?>

<!-- generated on 2023-08-30 19:37:48 by Eclipse SUMO libsumo Version 1.18.0
<configuration xmlns:xsi="http://www.w3.org/2001/XMLSchema-instance" xsi:noNamespaceSchemaLocation="http://sumo.dlr.de/xsd/libsumoConfiguration.xsd">

    <input>
        <net-file value="/home/stefan/RESCO/./environments/arterial4x4/arterial4x4.net.xml"/>
        <route-files value="/home/stefan/RESCO/./environments/arterial4x4/arterial4x4_89.rou.xml"/>
    </input>

    <output>
        <tripinfo-output value="/home/stefan/results/RAINBOW-tr0-arterial4x4-0-drq_norm-wait_norm/tripinfo_89.xml"/>
        <tripinfo-output.write-unfinished value="true"/>
    </output>

    <processing>
        <time-to-teleport value="-1"/>
    </processing>

    <report>
        <no-warnings value="True"/>
        <no-step-log value="True"/>
    </report>

    <random_number>
        <random value="true"/>
    </random_number>

</configuration>
-->

<tripinfos xmlns:xsi="http://www.w3.org/2001/XMLSchema-instance" xsi:noNamespaceSchemaLocation="http://sumo.dlr.de/xsd/tripinfo_file.xsd">
    <tripinfo id="f_3_7.0" depart="900.00" departLane="np11_nt14_0" departPos="48.84" departSpeed="0.00" departDelay="0.00" arrival="3387.00" arrivalLane="nt3_np3_0" arrivalPos="64.60" arrivalSpeed="7.91" duration="2487.00" routeLength="902.25" waitingTime="2380.00" waitingCount="3" stopTime="0.00" timeLoss="2405.43" rerouteNo="0" devices="tripinfo_f_3_7.0" vType="type1" speedFactor="0.93" vaporized=""/>
    <tripinfo id="f_3_7.1" depart="913.00" departLane="np11_nt14_0" departPos="35.74" departSpeed="0.00" departDelay="0.00" arrival="3389.00" arrivalLane="nt3_np3_0" arrivalPos="64.60" arrivalSpeed="9.92" duration="2476.00" routeLength="915.35" waitingTime="2371.00" waitingCount="3" stopTime="0.00" timeLoss="2400.27" rerouteNo="0" devices="tripinfo_f_3_7.1" vType="type1" speedFactor="1.02" vaporized=""/>
    <tripinfo id="f_0_0.0" depart="0.00" departLane="np13_nt13_0" departPos="20.83" departSpeed="0.00" departDelay="0.00" arrival="-1.00" arrivalLane="" arrivalPos="-1.00" arrivalSpeed="-1.00" duration="3600.00" routeLength="296.85" waitingTime="3554.00" waitingCount="6" stopTime="0.00" timeLoss="3582.05" rerouteNo="0" devices="tripinfo_f_0_0.0" vType="type1" speedFactor="0.88" vaporized="end"/>
    <tripinfo id="f_0_1.0" depart="0.00" departLane="np16_nt1_0" departPos="22.63" departSpeed="0.00" departDelay="0.00" arrival="-1.00" arrivalLane="" arrivalPos="-1.00" arrivalSpeed="-1.00" duration="3600.00" routeLength="395.35" waitingTime="3564.00" waitingCount="5" stopTime="0.00" timeLoss="3577.85" rerouteNo="0" devices="tripinfo_f_0_1.0" vType="type1" speedFactor="0.93" vaporized="end"/>
    <tripinfo id="f_0_2.0" depart="0.00" departLane="np2_nt2_0" departPos="26.32" departSpeed="0.00" departDelay="0.00" arrival="-1.00" arrivalLane="" arrivalPos="-1.00" arrivalSpeed="-1.00" duration="3600.00" routeLength="827.96" waitingTime="3492.00" waitingCount="2" stopTime="0.00" timeLoss="3511.93" rerouteNo="0" devices="tripinfo_f_0_2.0" vType="type1" speedFactor="0.79" vaporized="end"/>
    <tripinfo id="f_0_3.0" depart="0.00" departLane="np3_nt3_0" departPos="46.75" departSpeed="0.00" departDelay="0.00" arrival="-1.00" arrivalLane="" arrivalPos="-1.00" arrivalSpeed="-1.00" duration="3600.00" routeLength="407.54" waitingTime="3554.00" waitingCount="4" stopTime="0.00" timeLoss="3569.02" rerouteNo="0" devices="tripinfo_f_0_3.0" vType="type1" speedFactor="0.99" vaporized="end"/>
    <tripinfo id="f_0_2.1" depart="9.00" departLane="np2_nt2_0" departPos="26.43" departSpeed="0.00" departDelay="0.82" arrival="-1.00" arrivalLane="" arrivalPos="-1.00" arrivalSpeed="-1.00" duration="3591.00" routeLength="820.34" waitingTime="3489.00" waitingCount="2" stopTime="0.00" timeLoss="3520.53" rerouteNo="0" devices="tripinfo_f_0_2.1" vType="type1" speedFactor="0.98" vaporized="end"/>
    <tripinfo id="f_0_3.1" depart="9.00" departLane="np3_nt3_0" departPos="35.88" departSpeed="0.00" departDelay="0.82" arrival="-1.00" arrivalLane="" arrivalPos="-1.00" arrivalSpeed="-1.00" duration="3591.00" routeLength="410.91" waitingTime="3541.00" waitingCount="4" stopTime="0.00" timeLoss="3559.81" rerouteNo="0" devices="tripinfo_f_0_3.1" vType="type1" speedFactor="1.00" vaporized="end"/>
    <tripinfo id="f_0_0.1" depart="14.00" departLane="np13_nt13_0" departPos="56.49" departSpeed="0.00" departDelay="0.36" arrival="-1.00" arrivalLane="" arrivalPos="-1.00" arrivalSpeed="-1.00" duration="3586.00" routeLength="253.69" waitingTime="3544.00" waitingCount="6" stopTime="0.00" timeLoss="3573.86" rerouteNo="0" devices="tripinfo_f_0_0.1" vType="type1" speedFactor="1.14" vaporized="end"/>
    <tripinfo id="f_0_1.1" depart="14.00" departLane="np16_nt1_0" departPos="65.79" departSpeed="0.00" departDelay="0.36" arrival="-1.00" arrivalLane="" arrivalPos="-1.00" arrivalSpeed="-1.00" duration="3586.00" routeLength="201.01" waitingTime="3563.00" waitingCount="3" stopTime="0.00" timeLoss="3576.36" rerouteNo="0" devices="tripinfo_f_0_1.1" vType="type1" speedFactor="1.16" vaporized="end"/>
    <tripinfo id="f_0_2.2" depart="17.00" departLane="np2_nt2_0" departPos="31.76" departSpeed="0.00" departDelay="0.64" arrival="-1.00" arrivalLane="" arrivalPos="-1.00" arrivalSpeed="-1.00" duration="3583.00" routeLength="807.52" waitingTime="3475.00" waitingCount="3" stopTime="0.00" timeLoss="3502.02" rerouteNo="0" devices="tripinfo_f_0_2.2" vType="type1" speedFactor="0.83" vaporized="end"/>
    <tripinfo id="f_0_3.2" depart="17.00" departLane="np3_nt3_0" departPos="16.33" departSpeed="0.00" departDelay="0.64" arrival="-1.00" arrivalLane="" arrivalPos="-1.00" arrivalSpeed="-1.00" duration="3583.00" routeLength="422.95" waitingTime="3525.00" waitingCount="3" stopTime="0.00" timeLoss="3549.05" rerouteNo="0" devices="tripinfo_f_0_3.2" vType="type1" speedFactor="0.96" vaporized="end"/>
    <tripinfo id="f_0_2.3" depart="25.00" departLane="np2_nt2_0" departPos="21.69" departSpeed="0.00" departDelay="0.45" arrival="-1.00" arrivalLane="" arrivalPos="-1.00" arrivalSpeed="-1.00" duration="3575.00" routeLength="810.09" waitingTime="3477.00" waitingCount="5" stopTime="0.00" timeLoss="3511.40" rerouteNo="0" devices="tripinfo_f_0_2.3" vType="type1" speedFactor="1.07" vaporized="end"/>
    <tripinfo id="f_0_3.3" depart="25.00" departLane="np3_nt3_0" departPos="33.06" departSpeed="0.00" departDelay="0.45" arrival="-1.00" arrivalLane="" arrivalPos="-1.00" arrivalSpeed="-1.00" duration="3575.00" routeLength="391.23" waitingTime="3514.00" waitingCount="3" stopTime="0.00" timeLoss="3546.71" rerouteNo="0" devices="tripinfo_f_0_3.3" vType="type1" speedFactor="1.05" vaporized="end"/>
    <tripinfo id="f_0_0.2" depart="28.00" departLane="np13_nt13_0" departPos="35.76" departSpeed="0.00" departDelay="0.73" arrival="-1.00" arrivalLane="" arrivalPos="-1.00" arrivalSpeed="-1.00" duration="3572.00" routeLength="266.91" waitingTime="3528.00" waitingCount="7" stopTime="0.00" timeLoss="3558.70" rerouteNo="0" devices="tripinfo_f_0_0.2" vType="type1" speedFactor="1.08" vaporized="end"/>
    <tripinfo id="f_0_1.2" depart="28.00" departLane="np16_nt1_0" departPos="40.76" departSpeed="0.00" departDelay="0.73" arrival="-1.00" arrivalLane="" arrivalPos="-1.00" arrivalSpeed="-1.00" duration="3572.00" routeLength="218.54" waitingTime="3542.00" waitingCount="3" stopTime="0.00" timeLoss="3558.90" rerouteNo="0" devices="tripinfo_f_0_1.2" vType="type1" speedFactor="0.90" vaporized="end"/>
    <tripinfo id="f_0_2.4" depart="33.00" departLane="np2_nt2_0" departPos="38.52" departSpeed="0.00" departDelay="0.27" arrival="-1.00" arrivalLane="" arrivalPos="-1.00" arrivalSpeed="-1.00" duration="3567.00" routeLength="615.75" waitingTime="3496.00" waitingCount="5" stopTime="0.00" timeLoss="3527.28" rerouteNo="0" devices="tripinfo_f_0_2.4" vType="type1" speedFactor="1.28" vaporized="end"/>
    <tripinfo id="f_0_3.4" depart="33.00" departLane="np3_nt3_0" departPos="16.16" departSpeed="0.00" departDelay="0.27" arrival="-1.00" arrivalLane="" arrivalPos="-1.00" arrivalSpeed="-1.00" duration="3567.00" routeLength="400.62" waitingTime="3500.00" waitingCount="3" stopTime="0.00" timeLoss="3537.39" rerouteNo="0" devices="tripinfo_f_0_3.4" vType="type1" speedFactor="1.03" vaporized="end"/>
    <tripinfo id="f_0_0.3" depart="41.00" departLane="np13_nt13_0" departPos="32.55" departSpeed="0.00" departDelay="0.09" arrival="-1.00" arrivalLane="" arrivalPos="-1.00" arrivalSpeed="-1.00" duration="3559.00" routeLength="262.62" waitingTime="3511.00" waitingCount="7" stopTime="0.00" timeLoss="3544.36" rerouteNo="0" devices="tripinfo_f_0_0.3" vType="type1" speedFactor="0.96" vaporized="end"/>
    <tripinfo id="f_0_1.3" depart="41.00" departLane="np16_nt1_0" departPos="1.80" departSpeed="0.00" departDelay="0.09" arrival="-1.00" arrivalLane="" arrivalPos="-1.00" arrivalSpeed="-1.00" duration="3559.00" routeLength="250.00" waitingTime="3528.00" waitingCount="3" stopTime="0.00" timeLoss="3544.26" rerouteNo="0" devices="tripinfo_f_0_1.3" vType="type1" speedFactor="0.91" vaporized="end"/>
    <tripinfo id="f_0_2.5" depart="41.00" departLane="np2_nt2_0" departPos="36.13" departSpeed="0.00" departDelay="0.09" arrival="-1.00" arrivalLane="" arrivalPos="-1.00" arrivalSpeed="-1.00" duration="3559.00" routeLength="610.65" waitingTime="3471.00" waitingCount="5" stopTime="0.00" timeLoss="3502.91" rerouteNo="0" devices="tripinfo_f_0_2.5" vType="type1" speedFactor="0.88" vaporized="end"/>
    <tripinfo id="f_0_3.5" depart="41.00" departLane="np3_nt3_0" departPos="21.89" departSpeed="0.00" departDelay="0.09" arrival="-1.00" arrivalLane="" arrivalPos="-1.00" arrivalSpeed="-1.00" duration="3559.00" routeLength="387.39" waitingTime="3491.00" waitingCount="3" stopTime="0.00" timeLoss="3529.10" rerouteNo="0" devices="tripinfo_f_0_3.5" vType="type1" speedFactor="0.98" vaporized="end"/>
    <tripinfo id="f_0_2.6" depart="50.00" departLane="np2_nt2_0" departPos="55.58" departSpeed="0.00" departDelay="0.91" arrival="-1.00" arrivalLane="" arrivalPos="-1.00" arrivalSpeed="-1.00" duration="3550.00" routeLength="583.70" waitingTime="3463.00" waitingCount="5" stopTime="0.00" timeLoss="3496.63" rerouteNo="0" devices="tripinfo_f_0_2.6" vType="type1" speedFactor="0.89" vaporized="end"/>
    <tripinfo id="f_0_3.6" depart="50.00" departLane="np3_nt3_0" departPos="14.47" departSpeed="0.00" departDelay="0.91" arrival="-1.00" arrivalLane="" arrivalPos="-1.00" arrivalSpeed="-1.00" duration="3550.00" routeLength="387.31" waitingTime="3476.00" waitingCount="3" stopTime="0.00" timeLoss="3517.73" rerouteNo="0" devices="tripinfo_f_0_3.6" vType="type1" speedFactor="0.91" vaporized="end"/>
    <tripinfo id="f_0_0.4" depart="55.00" departLane="np13_nt13_0" departPos="14.85" departSpeed="0.00" departDelay="0.46" arrival="-1.00" arrivalLane="" arrivalPos="-1.00" arrivalSpeed="-1.00" duration="3545.00" routeLength="251.95" waitingTime="3507.00" waitingCount="5" stopTime="0.00" timeLoss="3532.02" rerouteNo="0" devices="tripinfo_f_0_0.4" vType="type1" speedFactor="1.05" vaporized="end"/>
    <tripinfo id="f_0_1.4" depart="55.00" departLane="np16_nt1_0" departPos="19.99" departSpeed="0.00" departDelay="0.46" arrival="-1.00" arrivalLane="" arrivalPos="-1.00" arrivalSpeed="-1.00" duration="3545.00" routeLength="224.30" waitingTime="3516.00" waitingCount="3" stopTime="0.00" timeLoss="3534.02" rerouteNo="0" devices="tripinfo_f_0_1.4" vType="type1" speedFactor="1.12" vaporized="end"/>
    <tripinfo id="f_0_2.7" depart="58.00" departLane="np2_nt2_0" departPos="36.85" departSpeed="0.00" departDelay="0.73" arrival="-1.00" arrivalLane="" arrivalPos="-1.00" arrivalSpeed="-1.00" duration="3542.00" routeLength="594.92" waitingTime="3454.00" waitingCount="5" stopTime="0.00" timeLoss="3501.13" rerouteNo="0" devices="tripinfo_f_0_2.7" vType="type1" speedFactor="1.19" vaporized="end"/>
    <tripinfo id="f_0_3.7" depart="58.00" departLane="np3_nt3_0" departPos="8.90" departSpeed="0.00" departDelay="0.73" arrival="-1.00" arrivalLane="" arrivalPos="-1.00" arrivalSpeed="-1.00" duration="3542.00" routeLength="385.38" waitingTime="3467.00" waitingCount="3" stopTime="0.00" timeLoss="3514.94" rerouteNo="0" devices="tripinfo_f_0_3.7" vType="type1" speedFactor="1.08" vaporized="end"/>
    <tripinfo id="f_0_2.8" depart="66.00" departLane="np2_nt2_0" departPos="44.46" departSpeed="0.00" departDelay="0.54" arrival="-1.00" arrivalLane="" arrivalPos="-1.00" arrivalSpeed="-1.00" duration="3534.00" routeLength="579.82" waitingTime="3437.00" waitingCount="6" stopTime="0.00" timeLoss="3487.25" rerouteNo="0" devices="tripinfo_f_0_2.8" vType="type1" speedFactor="1.01" vaporized="end"/>
    <tripinfo id="f_0_3.8" depart="66.00" departLane="np3_nt3_0" departPos="0.00" departSpeed="0.00" departDelay="0.54" arrival="-1.00" arrivalLane="" arrivalPos="-1.00" arrivalSpeed="-1.00" duration="3534.00" routeLength="63.60" waitingTime="3509.00" waitingCount="2" stopTime="0.00" timeLoss="3527.64" rerouteNo="0" devices="tripinfo_f_0_3.8" vType="type1" speedFactor="1.08" vaporized="end"/>
    <tripinfo id="f_0_0.5" depart="69.00" departLane="np13_nt13_0" departPos="7.20" departSpeed="0.00" departDelay="0.82" arrival="-1.00" arrivalLane="" arrivalPos="-1.00" arrivalSpeed="-1.00" duration="3531.00" routeLength="252.10" waitingTime="3486.00" waitingCount="6" stopTime="0.00" timeLoss="3518.09" rerouteNo="0" devices="tripinfo_f_0_0.5" vType="type1" speedFactor="1.06" vaporized="end"/>
    <tripinfo id="f_0_1.5" depart="69.00" departLane="np16_nt1_0" departPos="12.86" departSpeed="0.00" departDelay="0.82" arrival="-1.00" arrivalLane="" arrivalPos="-1.00" arrivalSpeed="-1.00" duration="3531.00" routeLength="223.94" waitingTime="3503.00" waitingCount="3" stopTime="0.00" timeLoss="3518.56" rerouteNo="0" devices="tripinfo_f_0_1.5" vType="type1" speedFactor="0.98" vaporized="end"/>
    <tripinfo id="f_0_2.9" depart="74.00" departLane="np2_nt2_0" departPos="19.37" departSpeed="0.00" departDelay="0.36" arrival="-1.00" arrivalLane="" arrivalPos="-1.00" arrivalSpeed="-1.00" duration="3526.00" routeLength="597.40" waitingTime="3426.00" waitingCount="6" stopTime="0.00" timeLoss="3471.15" rerouteNo="0" devices="tripinfo_f_0_2.9" vType="type1" speedFactor="0.88" vaporized="end"/>
    <tripinfo id="f_0_3.9" depart="3387.00" departLane="np3_nt3_0" departPos="63.81" departSpeed="0.00" departDelay="3313.36" arrival="-1.00" arrivalLane="" arrivalPos="-1.00" arrivalSpeed="-1.00" duration="213.00" routeLength="367.98" waitingTime="169.00" waitingCount="3" stopTime="0.00" timeLoss="188.52" rerouteNo="0" devices="tripinfo_f_0_3.9" vType="type1" speedFactor="1.12" vaporized="end"/>
    <tripinfo id="f_0_0.6" depart="82.00" departLane="np13_nt13_0" departPos="18.48" departSpeed="0.00" departDelay="0.18" arrival="-1.00" arrivalLane="" arrivalPos="-1.00" arrivalSpeed="-1.00" duration="3518.00" routeLength="233.32" waitingTime="3473.00" waitingCount="6" stopTime="0.00" timeLoss="3505.32" rerouteNo="0" devices="tripinfo_f_0_0.6" vType="type1" speedFactor="1.00" vaporized="end"/>
    <tripinfo id="f_0_1.6" depart="82.00" departLane="np16_nt1_0" departPos="53.38" departSpeed="0.00" departDelay="0.18" arrival="-1.00" arrivalLane="" arrivalPos="-1.00" arrivalSpeed="-1.00" duration="3518.00" routeLength="175.91" waitingTime="3492.00" waitingCount="3" stopTime="0.00" timeLoss="3507.75" rerouteNo="0" devices="tripinfo_f_0_1.6" vType="type1" speedFactor="0.95" vaporized="end"/>
    <tripinfo id="f_0_2.10" depart="82.00" departLane="np2_nt2_0" departPos="6.54" departSpeed="0.00" departDelay="0.18" arrival="-1.00" arrivalLane="" arrivalPos="-1.00" arrivalSpeed="-1.00" duration="3518.00" routeLength="602.74" waitingTime="3413.00" waitingCount="6" stopTime="0.00" timeLoss="3464.34" rerouteNo="0" devices="tripinfo_f_0_2.10" vType="type1" speedFactor="0.92" vaporized="end"/>
    <tripinfo id="f_0_3.10" depart="3389.00" departLane="np3_nt3_0" departPos="0.00" departSpeed="0.00" departDelay="3307.18" arrival="-1.00" arrivalLane="" arrivalPos="-1.00" arrivalSpeed="-1.00" duration="211.00" routeLength="56.10" waitingTime="192.00" waitingCount="1" stopTime="0.00" timeLoss="204.77" rerouteNo="0" devices="tripinfo_f_0_3.10" vType="type1" speedFactor="0.97" vaporized="end"/>
    <tripinfo id="f_0_2.11" depart="90.00" departLane="np2_nt2_0" departPos="4.71" departSpeed="0.00" departDelay="0.00" arrival="-1.00" arrivalLane="" arrivalPos="-1.00" arrivalSpeed="-1.00" duration="3510.00" routeLength="597.06" waitingTime="3404.00" waitingCount="6" stopTime="0.00" timeLoss="3458.24" rerouteNo="0" devices="tripinfo_f_0_2.11" vType="type1" speedFactor="0.94" vaporized="end"/>
    <tripinfo id="f_0_3.11" depart="3395.00" departLane="np3_nt3_0" departPos="0.00" departSpeed="0.00" departDelay="3305.00" arrival="-1.00" arrivalLane="" arrivalPos="-1.00" arrivalSpeed="-1.00" duration="205.00" routeLength="48.60" waitingTime="189.00" waitingCount="1" stopTime="0.00" timeLoss="200.01" rerouteNo="0" devices="tripinfo_f_0_3.11" vType="type1" speedFactor="1.11" vaporized="end"/>
    <tripinfo id="f_0_0.7" depart="96.00" departLane="np13_nt13_0" departPos="13.98" departSpeed="0.00" departDelay="0.55" arrival="-1.00" arrivalLane="" arrivalPos="-1.00" arrivalSpeed="-1.00" duration="3504.00" routeLength="230.32" waitingTime="3454.00" waitingCount="7" stopTime="0.00" timeLoss="3490.65" rerouteNo="0" devices="tripinfo_f_0_0.7" vType="type1" speedFactor="0.93" vaporized="end"/>
    <tripinfo id="f_0_1.7" depart="96.00" departLane="np16_nt1_0" departPos="49.89" departSpeed="0.00" departDelay="0.55" arrival="-1.00" arrivalLane="" arrivalPos="-1.00" arrivalSpeed="-1.00" duration="3504.00" routeLength="171.90" waitingTime="3476.00" waitingCount="3" stopTime="0.00" timeLoss="3494.90" rerouteNo="0" devices="tripinfo_f_0_1.7" vType="type1" speedFactor="1.06" vaporized="end"/>
    <tripinfo id="f_0_2.12" depart="99.00" departLane="np2_nt2_0" departPos="51.53" departSpeed="0.00" departDelay="0.82" arrival="-1.00" arrivalLane="" arrivalPos="-1.00" arrivalSpeed="-1.00" duration="3501.00" routeLength="542.74" waitingTime="3398.00" waitingCount="6" stopTime="0.00" timeLoss="3462.77" rerouteNo="0" devices="tripinfo_f_0_2.12" vType="type1" speedFactor="1.13" vaporized="end"/>
    <tripinfo id="f_0_3.12" depart="3400.00" departLane="np3_nt3_0" departPos="0.00" departSpeed="0.00" departDelay="3301.82" arrival="-1.00" arrivalLane="" arrivalPos="-1.00" arrivalSpeed="-1.00" duration="200.00" routeLength="41.10" waitingTime="188.00" waitingCount="1" stopTime="0.00" timeLoss="195.02" rerouteNo="0" devices="tripinfo_f_0_3.12" vType="type1" speedFactor="0.94" vaporized="end"/>
    <tripinfo id="f_0_2.13" depart="107.00" departLane="np2_nt2_0" departPos="8.25" departSpeed="0.00" departDelay="0.63" arrival="-1.00" arrivalLane="" arrivalPos="-1.00" arrivalSpeed="-1.00" duration="3493.00" routeLength="578.51" waitingTime="3389.00" waitingCount="5" stopTime="0.00" timeLoss="3453.35" rerouteNo="0" devices="tripinfo_f_0_2.13" vType="type1" speedFactor="1.18" vaporized="end"/>
    <tripinfo id="f_0_3.13" depart="3402.00" departLane="np3_nt3_0" departPos="0.00" departSpeed="0.00" departDelay="3295.63" arrival="-1.00" arrivalLane="" arrivalPos="-1.00" arrivalSpeed="-1.00" duration="198.00" routeLength="33.59" waitingTime="185.00" waitingCount="1" stopTime="0.00" timeLoss="193.41" rerouteNo="0" devices="tripinfo_f_0_3.13" vType="type1" speedFactor="0.85" vaporized="end"/>
    <tripinfo id="f_0_0.8" depart="110.00" departLane="np13_nt13_0" departPos="0.00" departSpeed="0.00" departDelay="0.91" arrival="-1.00" arrivalLane="" arrivalPos="-1.00" arrivalSpeed="-1.00" duration="3490.00" routeLength="236.79" waitingTime="3432.00" waitingCount="8" stopTime="0.00" timeLoss="3479.06" rerouteNo="0" devices="tripinfo_f_0_0.8" vType="type1" speedFactor="1.19" vaporized="end"/>
    <tripinfo id="f_0_1.8" depart="110.00" departLane="np16_nt1_0" departPos="40.84" departSpeed="0.00" departDelay="0.91" arrival="-1.00" arrivalLane="" arrivalPos="-1.00" arrivalSpeed="-1.00" duration="3490.00" routeLength="173.46" waitingTime="3463.00" waitingCount="3" stopTime="0.00" timeLoss="3480.41" rerouteNo="0" devices="tripinfo_f_0_1.8" vType="type1" speedFactor="1.01" vaporized="end"/>
    <tripinfo id="f_0_2.14" depart="115.00" departLane="np2_nt2_0" departPos="15.14" departSpeed="0.00" departDelay="0.45" arrival="-1.00" arrivalLane="" arrivalPos="-1.00" arrivalSpeed="-1.00" duration="3485.00" routeLength="564.13" waitingTime="3388.00" waitingCount="5" stopTime="0.00" timeLoss="3434.70" rerouteNo="0" devices="tripinfo_f_0_2.14" vType="type1" speedFactor="0.91" vaporized="end"/>
    <tripinfo id="f_0_3.14" depart="3405.00" departLane="np3_nt3_0" departPos="0.65" departSpeed="0.00" departDelay="3290.45" arrival="-1.00" arrivalLane="" arrivalPos="-1.00" arrivalSpeed="-1.00" duration="195.00" routeLength="25.45" waitingTime="184.00" waitingCount="1" stopTime="0.00" timeLoss="191.39" rerouteNo="0" devices="tripinfo_f_0_3.14" vType="type1" speedFactor="0.89" vaporized="end"/>
    <tripinfo id="f_0_0.9" depart="151.00" departLane="np13_nt13_0" departPos="1.35" departSpeed="0.00" departDelay="28.28" arrival="-1.00" arrivalLane="" arrivalPos="-1.00" arrivalSpeed="-1.00" duration="3449.00" routeLength="227.94" waitingTime="3385.00" waitingCount="8" stopTime="0.00" timeLoss="3436.24" rerouteNo="0" devices="tripinfo_f_0_0.9" vType="type1" speedFactor="0.97" vaporized="end"/>
    <tripinfo id="f_0_1.9" depart="123.00" departLane="np16_nt1_0" departPos="52.84" departSpeed="0.00" departDelay="0.28" arrival="-1.00" arrivalLane="" arrivalPos="-1.00" arrivalSpeed="-1.00" duration="3477.00" routeLength="153.95" waitingTime="3450.00" waitingCount="4" stopTime="0.00" timeLoss="3467.84" rerouteNo="0" devices="tripinfo_f_0_1.9" vType="type1" speedFactor="0.94" vaporized="end"/>
    <tripinfo id="f_0_2.15" depart="123.00" departLane="np2_nt2_0" departPos="7.73" departSpeed="0.00" departDelay="0.27" arrival="-1.00" arrivalLane="" arrivalPos="-1.00" arrivalSpeed="-1.00" duration="3477.00" routeLength="564.03" waitingTime="3384.00" waitingCount="5" stopTime="0.00" timeLoss="3438.79" rerouteNo="0" devices="tripinfo_f_0_2.15" vType="type1" speedFactor="1.19" vaporized="end"/>
    <tripinfo id="f_0_3.15" depart="3407.00" departLane="np3_nt3_0" departPos="0.00" departSpeed="0.00" departDelay="3284.27" arrival="-1.00" arrivalLane="" arrivalPos="-1.00" arrivalSpeed="-1.00" duration="193.00" routeLength="18.59" waitingTime="183.00" waitingCount="1" stopTime="0.00" timeLoss="190.36" rerouteNo="0" devices="tripinfo_f_0_3.15" vType="type1" speedFactor="1.03" vaporized="end"/>
    <tripinfo id="f_0_2.16" depart="131.00" departLane="np2_nt2_0" departPos="4.82" departSpeed="0.00" departDelay="0.09" arrival="-1.00" arrivalLane="" arrivalPos="-1.00" arrivalSpeed="-1.00" duration="3469.00" routeLength="559.45" waitingTime="3381.00" waitingCount="5" stopTime="0.00" timeLoss="3428.17" rerouteNo="0" devices="tripinfo_f_0_2.16" vType="type1" speedFactor="1.11" vaporized="end"/>
    <tripinfo id="f_0_3.16" depart="3410.00" departLane="np3_nt3_0" departPos="0.00" departSpeed="0.00" departDelay="3279.09" arrival="-1.00" arrivalLane="" arrivalPos="-1.00" arrivalSpeed="-1.00" duration="190.00" routeLength="11.09" waitingTime="182.00" waitingCount="1" stopTime="0.00" timeLoss="188.06" rerouteNo="0" devices="tripinfo_f_0_3.16" vType="type1" speedFactor="1.07" vaporized="end"/>
    <tripinfo id="f_0_0.10" depart="155.00" departLane="np13_nt13_0" departPos="0.00" departSpeed="0.00" departDelay="18.64" arrival="-1.00" arrivalLane="" arrivalPos="-1.00" arrivalSpeed="-1.00" duration="3445.00" routeLength="221.79" waitingTime="3378.00" waitingCount="8" stopTime="0.00" timeLoss="3431.43" rerouteNo="0" devices="tripinfo_f_0_0.10" vType="type1" speedFactor="0.88" vaporized="end"/>
    <tripinfo id="f_0_1.10" depart="137.00" departLane="np16_nt1_0" departPos="54.68" departSpeed="0.00" departDelay="0.64" arrival="-1.00" arrivalLane="" arrivalPos="-1.00" arrivalSpeed="-1.00" duration="3463.00" routeLength="144.61" waitingTime="3436.00" waitingCount="3" stopTime="0.00" timeLoss="3455.53" rerouteNo="0" devices="tripinfo_f_0_1.10" vType="type1" speedFactor="1.12" vaporized="end"/>
    <tripinfo id="f_0_2.17" depart="140.00" departLane="np2_nt2_0" departPos="3.69" departSpeed="0.00" departDelay="0.91" arrival="-1.00" arrivalLane="" arrivalPos="-1.00" arrivalSpeed="-1.00" duration="3460.00" routeLength="553.08" waitingTime="3370.00" waitingCount="5" stopTime="0.00" timeLoss="3418.78" rerouteNo="0" devices="tripinfo_f_0_2.17" vType="type1" speedFactor="1.07" vaporized="end"/>
    <tripinfo id="f_0_3.17" depart="3414.00" departLane="np3_nt3_0" departPos="0.00" departSpeed="0.00" departDelay="3274.91" arrival="-1.00" arrivalLane="" arrivalPos="-1.00" arrivalSpeed="-1.00" duration="186.00" routeLength="3.59" waitingTime="180.00" waitingCount="1" stopTime="0.00" timeLoss="184.71" rerouteNo="0" devices="tripinfo_f_0_3.17" vType="type1" speedFactor="1.12" vaporized="end"/>
    <tripinfo id="f_0_2.18" depart="148.00" departLane="np2_nt2_0" departPos="42.11" departSpeed="0.00" departDelay="0.72" arrival="-1.00" arrivalLane="" arrivalPos="-1.00" arrivalSpeed="-1.00" duration="3452.00" routeLength="507.15" waitingTime="3364.00" waitingCount="4" stopTime="0.00" timeLoss="3414.79" rerouteNo="0" devices="tripinfo_f_0_2.18" vType="type1" speedFactor="1.09" vaporized="end"/>
    <tripinfo id="f_0_0.11" depart="171.00" departLane="np13_nt13_0" departPos="0.00" departSpeed="0.00" departDelay="21.00" arrival="-1.00" arrivalLane="" arrivalPos="-1.00" arrivalSpeed="-1.00" duration="3429.00" routeLength="214.29" waitingTime="3366.00" waitingCount="8" stopTime="0.00" timeLoss="3416.95" rerouteNo="0" devices="tripinfo_f_0_0.11" vType="type1" speedFactor="0.97" vaporized="end"/>
    <tripinfo id="f_0_1.11" depart="150.00" departLane="np16_nt1_0" departPos="46.07" departSpeed="0.00" departDelay="0.00" arrival="-1.00" arrivalLane="" arrivalPos="-1.00" arrivalSpeed="-1.00" duration="3450.00" routeLength="145.72" waitingTime="3420.00" waitingCount="3" stopTime="0.00" timeLoss="3441.29" rerouteNo="0" devices="tripinfo_f_0_1.11" vType="type1" speedFactor="0.94" vaporized="end"/>
    <tripinfo id="f_0_2.19" depart="156.00" departLane="np2_nt2_0" departPos="12.68" departSpeed="0.00" departDelay="0.54" arrival="-1.00" arrivalLane="" arrivalPos="-1.00" arrivalSpeed="-1.00" duration="3444.00" routeLength="529.08" waitingTime="3355.00" waitingCount="5" stopTime="0.00" timeLoss="3408.91" rerouteNo="0" devices="tripinfo_f_0_2.19" vType="type1" speedFactor="1.20" vaporized="end"/>
    <tripinfo id="f_0_0.12" depart="175.00" departLane="np13_nt13_0" departPos="0.00" departSpeed="0.00" departDelay="11.37" arrival="-1.00" arrivalLane="" arrivalPos="-1.00" arrivalSpeed="-1.00" duration="3425.00" routeLength="206.79" waitingTime="3360.00" waitingCount="9" stopTime="0.00" timeLoss="3414.79" rerouteNo="0" devices="tripinfo_f_0_0.12" vType="type1" speedFactor="1.12" vaporized="end"/>
    <tripinfo id="f_0_1.12" depart="164.00" departLane="np16_nt1_0" departPos="32.04" departSpeed="0.00" departDelay="0.37" arrival="-1.00" arrivalLane="" arrivalPos="-1.00" arrivalSpeed="-1.00" duration="3436.00" routeLength="152.25" waitingTime="3405.00" waitingCount="3" stopTime="0.00" timeLoss="3425.89" rerouteNo="0" devices="tripinfo_f_0_1.12" vType="type1" speedFactor="0.84" vaporized="end"/>
    <tripinfo id="f_0_2.20" depart="164.00" departLane="np2_nt2_0" departPos="44.90" departSpeed="0.00" departDelay="0.36" arrival="-1.00" arrivalLane="" arrivalPos="-1.00" arrivalSpeed="-1.00" duration="3436.00" routeLength="489.36" waitingTime="3345.00" waitingCount="4" stopTime="0.00" timeLoss="3393.17" rerouteNo="0" devices="tripinfo_f_0_2.20" vType="type1" speedFactor="0.90" vaporized="end"/>
    <tripinfo id="f_0_2.21" depart="172.00" departLane="np2_nt2_0" departPos="3.23" departSpeed="0.00" departDelay="0.18" arrival="-1.00" arrivalLane="" arrivalPos="-1.00" arrivalSpeed="-1.00" duration="3428.00" routeLength="523.53" waitingTime="3335.00" waitingCount="4" stopTime="0.00" timeLoss="3388.62" rerouteNo="0" devices="tripinfo_f_0_2.21" vType="type1" speedFactor="1.05" vaporized="end"/>
    <tripinfo id="f_0_0.13" depart="236.00" departLane="np13_nt13_0" departPos="0.00" departSpeed="0.00" departDelay="58.73" arrival="-1.00" arrivalLane="" arrivalPos="-1.00" arrivalSpeed="-1.00" duration="3364.00" routeLength="199.29" waitingTime="3297.00" waitingCount="9" stopTime="0.00" timeLoss="3352.54" rerouteNo="0" devices="tripinfo_f_0_0.13" vType="type1" speedFactor="0.95" vaporized="end"/>
    <tripinfo id="f_0_1.13" depart="178.00" departLane="np16_nt1_0" departPos="20.56" departSpeed="0.00" departDelay="0.73" arrival="-1.00" arrivalLane="" arrivalPos="-1.00" arrivalSpeed="-1.00" duration="3422.00" routeLength="156.22" waitingTime="3392.00" waitingCount="3" stopTime="0.00" timeLoss="3413.61" rerouteNo="0" devices="tripinfo_f_0_1.13" vType="type1" speedFactor="1.06" vaporized="end"/>
    <tripinfo id="f_0_2.22" depart="180.00" departLane="np2_nt2_0" departPos="50.48" departSpeed="0.00" departDelay="0.00" arrival="-1.00" arrivalLane="" arrivalPos="-1.00" arrivalSpeed="-1.00" duration="3420.00" routeLength="468.78" waitingTime="3333.00" waitingCount="4" stopTime="0.00" timeLoss="3386.49" rerouteNo="0" devices="tripinfo_f_0_2.22" vType="type1" speedFactor="1.11" vaporized="end"/>
    <tripinfo id="f_0_2.23" depart="189.00" departLane="np2_nt2_0" departPos="10.64" departSpeed="0.00" departDelay="0.81" arrival="-1.00" arrivalLane="" arrivalPos="-1.00" arrivalSpeed="-1.00" duration="3411.00" routeLength="501.12" waitingTime="3322.00" waitingCount="4" stopTime="0.00" timeLoss="3376.16" rerouteNo="0" devices="tripinfo_f_0_2.23" vType="type1" speedFactor="1.13" vaporized="end"/>