<?xml version="1.0" encoding="UTF-8"?>

<!-- generated on 2023-08-30 18:45:16 by Eclipse SUMO libsumo Version 1.18.0
<configuration xmlns:xsi="http://www.w3.org/2001/XMLSchema-instance" xsi:noNamespaceSchemaLocation="http://sumo.dlr.de/xsd/libsumoConfiguration.xsd">

    <input>
        <net-file value="/home/stefan/RESCO/./environments/arterial4x4/arterial4x4.net.xml"/>
        <route-files value="/home/stefan/RESCO/./environments/arterial4x4/arterial4x4_45.rou.xml"/>
    </input>

    <output>
        <tripinfo-output value="/home/stefan/results/RAINBOW-tr0-arterial4x4-0-drq_norm-wait_norm/tripinfo_45.xml"/>
        <tripinfo-output.write-unfinished value="true"/>
    </output>

    <processing>
        <time-to-teleport value="-1"/>
    </processing>

    <report>
        <no-warnings value="True"/>
        <no-step-log value="True"/>
    </report>

    <random_number>
        <random value="true"/>
    </random_number>

</configuration>
-->

<tripinfos xmlns:xsi="http://www.w3.org/2001/XMLSchema-instance" xsi:noNamespaceSchemaLocation="http://sumo.dlr.de/xsd/tripinfo_file.xsd">
    <tripinfo id="f_0_3.0" depart="0.00" departLane="np3_nt3_0" departPos="40.12" departSpeed="0.00" departDelay="0.00" arrival="132.00" arrivalLane="nt14_np11_0" arrivalPos="75.00" arrivalSpeed="10.72" duration="132.00" routeLength="910.97" waitingTime="36.00" waitingCount="3" stopTime="0.00" timeLoss="59.41" rerouteNo="0" devices="tripinfo_f_0_3.0" vType="type1" speedFactor="1.05" vaporized=""/>
    <tripinfo id="f_0_3.1" depart="9.00" departLane="np3_nt3_0" departPos="30.33" departSpeed="0.00" departDelay="0.82" arrival="135.00" arrivalLane="nt14_np11_0" arrivalPos="75.00" arrivalSpeed="9.17" duration="126.00" routeLength="920.76" waitingTime="19.00" waitingCount="3" stopTime="0.00" timeLoss="44.16" rerouteNo="0" devices="tripinfo_f_0_3.1" vType="type1" speedFactor="0.95" vaporized=""/>
    <tripinfo id="f_0_3.2" depart="17.00" departLane="np3_nt3_0" departPos="11.38" departSpeed="0.00" departDelay="0.64" arrival="184.00" arrivalLane="nt14_np11_0" arrivalPos="75.00" arrivalSpeed="7.89" duration="167.00" routeLength="939.71" waitingTime="48.00" waitingCount="3" stopTime="0.00" timeLoss="73.93" rerouteNo="0" devices="tripinfo_f_0_3.2" vType="type1" speedFactor="0.85" vaporized=""/>
    <tripinfo id="f_0_3.3" depart="25.00" departLane="np3_nt3_0" departPos="10.87" departSpeed="0.00" departDelay="0.45" arrival="186.00" arrivalLane="nt14_np11_0" arrivalPos="75.00" arrivalSpeed="10.74" duration="161.00" routeLength="940.22" waitingTime="45.00" waitingCount="3" stopTime="0.00" timeLoss="85.81" rerouteNo="0" devices="tripinfo_f_0_3.3" vType="type1" speedFactor="1.05" vaporized=""/>
    <tripinfo id="f_0_0.0" depart="0.00" departLane="np13_nt13_0" departPos="53.10" departSpeed="0.00" departDelay="0.00" arrival="223.00" arrivalLane="nt4_np5_0" arrivalPos="75.00" arrivalSpeed="21.47" duration="223.00" routeLength="1294.79" waitingTime="112.00" waitingCount="4" stopTime="0.00" timeLoss="141.39" rerouteNo="0" devices="tripinfo_f_0_0.0" vType="type1" speedFactor="1.11" vaporized=""/>
    <tripinfo id="f_0_0.1" depart="14.00" departLane="np13_nt13_0" departPos="47.75" departSpeed="0.00" departDelay="0.36" arrival="225.00" arrivalLane="nt4_np5_0" arrivalPos="75.00" arrivalSpeed="18.63" duration="211.00" routeLength="1300.14" waitingTime="80.00" waitingCount="6" stopTime="0.00" timeLoss="115.48" rerouteNo="0" devices="tripinfo_f_0_0.1" vType="type1" speedFactor="0.95" vaporized=""/>
    <tripinfo id="f_0_3.4" depart="33.00" departLane="np3_nt3_0" departPos="19.73" departSpeed="0.00" departDelay="0.27" arrival="237.00" arrivalLane="nt14_np11_0" arrivalPos="75.00" arrivalSpeed="10.37" duration="204.00" routeLength="931.36" waitingTime="94.00" waitingCount="4" stopTime="0.00" timeLoss="126.15" rerouteNo="0" devices="tripinfo_f_0_3.4" vType="type1" speedFactor="1.01" vaporized=""/>
    <tripinfo id="f_0_2.0" depart="0.00" departLane="np2_nt2_0" departPos="51.42" departSpeed="0.00" departDelay="0.00" arrival="255.00" arrivalLane="nt15_np10_0" arrivalPos="75.00" arrivalSpeed="7.59" duration="255.00" routeLength="899.66" waitingTime="136.00" waitingCount="5" stopTime="0.00" timeLoss="163.56" rerouteNo="0" devices="tripinfo_f_0_2.0" vType="type1" speedFactor="0.83" vaporized=""/>
    <tripinfo id="f_0_3.5" depart="41.00" departLane="np3_nt3_0" departPos="61.56" departSpeed="0.00" departDelay="0.09" arrival="292.00" arrivalLane="nt14_np11_0" arrivalPos="75.00" arrivalSpeed="10.16" duration="251.00" routeLength="889.53" waitingTime="142.00" waitingCount="4" stopTime="0.00" timeLoss="178.72" rerouteNo="0" devices="tripinfo_f_0_3.5" vType="type1" speedFactor="1.02" vaporized=""/>
    <tripinfo id="f_0_3.6" depart="50.00" departLane="np3_nt3_0" departPos="39.73" departSpeed="0.00" departDelay="0.91" arrival="294.00" arrivalLane="nt14_np11_0" arrivalPos="75.00" arrivalSpeed="9.23" duration="244.00" routeLength="911.36" waitingTime="142.00" waitingCount="5" stopTime="0.00" timeLoss="172.63" rerouteNo="0" devices="tripinfo_f_0_3.6" vType="type1" speedFactor="1.06" vaporized=""/>
    <tripinfo id="f_0_0.2" depart="28.00" departLane="np13_nt13_0" departPos="19.68" departSpeed="0.00" departDelay="0.73" arrival="296.00" arrivalLane="nt4_np5_0" arrivalPos="75.00" arrivalSpeed="17.15" duration="268.00" routeLength="1328.21" waitingTime="133.00" waitingCount="6" stopTime="0.00" timeLoss="165.01" rerouteNo="0" devices="tripinfo_f_0_0.2" vType="type1" speedFactor="0.89" vaporized=""/>
    <tripinfo id="f_0_0.3" depart="41.00" departLane="np13_nt13_0" departPos="26.49" departSpeed="0.00" departDelay="0.09" arrival="298.00" arrivalLane="nt4_np5_0" arrivalPos="75.00" arrivalSpeed="19.91" duration="257.00" routeLength="1321.40" waitingTime="126.00" waitingCount="5" stopTime="0.00" timeLoss="167.72" rerouteNo="0" devices="tripinfo_f_0_0.3" vType="type1" speedFactor="1.03" vaporized=""/>
    <tripinfo id="f_0_0.4" depart="55.00" departLane="np13_nt13_0" departPos="3.59" departSpeed="0.00" departDelay="0.46" arrival="340.00" arrivalLane="nt4_np5_0" arrivalPos="75.00" arrivalSpeed="18.85" duration="285.00" routeLength="1344.30" waitingTime="158.00" waitingCount="5" stopTime="0.00" timeLoss="196.79" rerouteNo="0" devices="tripinfo_f_0_0.4" vType="type1" speedFactor="1.06" vaporized=""/>
    <tripinfo id="f_0_3.7" depart="58.00" departLane="np3_nt3_0" departPos="21.37" departSpeed="0.00" departDelay="0.73" arrival="342.00" arrivalLane="nt14_np11_0" arrivalPos="75.00" arrivalSpeed="10.03" duration="284.00" routeLength="929.72" waitingTime="169.00" waitingCount="6" stopTime="0.00" timeLoss="207.84" rerouteNo="0" devices="tripinfo_f_0_3.7" vType="type1" speedFactor="1.03" vaporized=""/>
    <tripinfo id="f_0_3.8" depart="66.00" departLane="np3_nt3_0" departPos="12.97" departSpeed="0.00" departDelay="0.54" arrival="345.00" arrivalLane="nt14_np11_0" arrivalPos="75.00" arrivalSpeed="8.60" duration="279.00" routeLength="938.12" waitingTime="159.00" waitingCount="6" stopTime="0.00" timeLoss="196.15" rerouteNo="0" devices="tripinfo_f_0_3.8" vType="type1" speedFactor="0.95" vaporized=""/>
    <tripinfo id="f_0_0.5" depart="69.00" departLane="np13_nt13_0" departPos="31.65" departSpeed="0.00" departDelay="0.82" arrival="358.00" arrivalLane="nt4_np5_0" arrivalPos="75.00" arrivalSpeed="19.04" duration="289.00" routeLength="1316.24" waitingTime="154.00" waitingCount="8" stopTime="0.00" timeLoss="201.99" rerouteNo="0" devices="tripinfo_f_0_0.5" vType="type1" speedFactor="1.06" vaporized=""/>
    <tripinfo id="f_0_2.1" depart="9.00" departLane="np2_nt2_0" departPos="17.54" departSpeed="0.00" departDelay="0.82" arrival="372.00" arrivalLane="nt15_np10_0" arrivalPos="75.00" arrivalSpeed="9.00" duration="363.00" routeLength="933.54" waitingTime="252.00" waitingCount="7" stopTime="0.00" timeLoss="286.14" rerouteNo="0" devices="tripinfo_f_0_2.1" vType="type1" speedFactor="1.02" vaporized=""/>
    <tripinfo id="f_0_3.9" depart="74.00" departLane="np3_nt3_0" departPos="41.88" departSpeed="0.00" departDelay="0.36" arrival="391.00" arrivalLane="nt14_np11_0" arrivalPos="75.00" arrivalSpeed="11.23" duration="317.00" routeLength="909.21" waitingTime="196.00" waitingCount="6" stopTime="0.00" timeLoss="243.50" rerouteNo="0" devices="tripinfo_f_0_3.9" vType="type1" speedFactor="1.03" vaporized=""/>
    <tripinfo id="f_0_3.10" depart="82.00" departLane="np3_nt3_0" departPos="4.55" departSpeed="0.00" departDelay="0.18" arrival="393.00" arrivalLane="nt14_np11_0" arrivalPos="75.00" arrivalSpeed="10.41" duration="311.00" routeLength="946.54" waitingTime="190.00" waitingCount="7" stopTime="0.00" timeLoss="240.83" rerouteNo="0" devices="tripinfo_f_0_3.10" vType="type1" speedFactor="1.13" vaporized=""/>
    <tripinfo id="f_0_1.0" depart="0.00" departLane="np16_nt1_0" departPos="45.97" departSpeed="0.00" departDelay="0.00" arrival="408.00" arrivalLane="nt16_np8_0" arrivalPos="75.00" arrivalSpeed="22.04" duration="408.00" routeLength="1301.91" waitingTime="279.00" waitingCount="9" stopTime="0.00" timeLoss="327.02" rerouteNo="0" devices="tripinfo_f_0_1.0" vType="type1" speedFactor="1.12" vaporized=""/>
    <tripinfo id="f_0_1.1" depart="14.00" departLane="np16_nt1_0" departPos="11.06" departSpeed="0.00" departDelay="0.36" arrival="410.00" arrivalLane="nt16_np8_0" arrivalPos="75.00" arrivalSpeed="19.65" duration="396.00" routeLength="1336.82" waitingTime="251.00" waitingCount="10" stopTime="0.00" timeLoss="304.88" rerouteNo="0" devices="tripinfo_f_0_1.1" vType="type1" speedFactor="1.02" vaporized=""/>
    <tripinfo id="f_0_3.11" depart="90.00" departLane="np3_nt3_0" departPos="9.31" departSpeed="0.00" departDelay="0.00" arrival="422.00" arrivalLane="nt14_np11_0" arrivalPos="75.00" arrivalSpeed="11.07" duration="332.00" routeLength="941.78" waitingTime="208.00" waitingCount="9" stopTime="0.00" timeLoss="254.74" rerouteNo="0" devices="tripinfo_f_0_3.11" vType="type1" speedFactor="1.03" vaporized=""/>
    <tripinfo id="f_0_3.12" depart="99.00" departLane="np3_nt3_0" departPos="51.73" departSpeed="0.00" departDelay="0.82" arrival="425.00" arrivalLane="nt14_np11_0" arrivalPos="75.00" arrivalSpeed="8.71" duration="326.00" routeLength="899.36" waitingTime="192.00" waitingCount="6" stopTime="0.00" timeLoss="246.23" rerouteNo="0" devices="tripinfo_f_0_3.12" vType="type1" speedFactor="0.94" vaporized=""/>
    <tripinfo id="f_0_2.2" depart="17.00" departLane="np2_nt2_0" departPos="36.19" departSpeed="0.00" departDelay="0.64" arrival="438.00" arrivalLane="nt15_np10_0" arrivalPos="75.00" arrivalSpeed="9.02" duration="421.00" routeLength="914.89" waitingTime="282.00" waitingCount="12" stopTime="0.00" timeLoss="342.88" rerouteNo="0" devices="tripinfo_f_0_2.2" vType="type1" speedFactor="0.99" vaporized=""/>
    <tripinfo id="f_0_2.3" depart="25.00" departLane="np2_nt2_0" departPos="21.64" departSpeed="0.00" departDelay="0.45" arrival="440.00" arrivalLane="nt15_np10_0" arrivalPos="75.00" arrivalSpeed="10.66" duration="415.00" routeLength="929.44" waitingTime="265.00" waitingCount="14" stopTime="0.00" timeLoss="343.63" rerouteNo="0" devices="tripinfo_f_0_2.3" vType="type1" speedFactor="1.10" vaporized=""/>
    <tripinfo id="f_0_3.13" depart="107.00" departLane="np3_nt3_0" departPos="52.20" departSpeed="0.00" departDelay="0.63" arrival="457.00" arrivalLane="nt14_np11_0" arrivalPos="75.00" arrivalSpeed="10.72" duration="350.00" routeLength="898.89" waitingTime="221.00" waitingCount="9" stopTime="0.00" timeLoss="277.48" rerouteNo="0" devices="tripinfo_f_0_3.13" vType="type1" speedFactor="1.04" vaporized=""/>
    <tripinfo id="f_0_3.14" depart="115.00" departLane="np3_nt3_0" departPos="8.37" departSpeed="0.00" departDelay="0.45" arrival="460.00" arrivalLane="nt14_np11_0" arrivalPos="75.00" arrivalSpeed="10.78" duration="345.00" routeLength="942.72" waitingTime="214.00" waitingCount="7" stopTime="0.00" timeLoss="264.31" rerouteNo="0" devices="tripinfo_f_0_3.14" vType="type1" speedFactor="0.99" vaporized=""/>
    <tripinfo id="f_0_3.15" depart="123.00" departLane="np3_nt3_0" departPos="63.94" departSpeed="0.00" departDelay="0.27" arrival="462.00" arrivalLane="nt14_np11_0" arrivalPos="75.00" arrivalSpeed="9.17" duration="339.00" routeLength="887.15" waitingTime="204.00" waitingCount="9" stopTime="0.00" timeLoss="266.12" rerouteNo="0" devices="tripinfo_f_0_3.15" vType="type1" speedFactor="1.02" vaporized=""/>
    <tripinfo id="f_0_3.16" depart="131.00" departLane="np3_nt3_0" departPos="45.67" departSpeed="0.00" departDelay="0.09" arrival="465.00" arrivalLane="nt14_np11_0" arrivalPos="75.00" arrivalSpeed="9.19" duration="334.00" routeLength="905.42" waitingTime="190.00" waitingCount="8" stopTime="0.00" timeLoss="250.74" rerouteNo="0" devices="tripinfo_f_0_3.16" vType="type1" speedFactor="0.92" vaporized=""/>
    <tripinfo id="f_0_0.6" depart="82.00" departLane="np13_nt13_0" departPos="22.71" departSpeed="0.00" departDelay="0.18" arrival="483.00" arrivalLane="nt4_np5_0" arrivalPos="75.00" arrivalSpeed="20.93" duration="401.00" routeLength="1325.18" waitingTime="262.00" waitingCount="8" stopTime="0.00" timeLoss="317.64" rerouteNo="0" devices="tripinfo_f_0_0.6" vType="type1" speedFactor="1.10" vaporized=""/>
    <tripinfo id="f_0_0.7" depart="96.00" departLane="np13_nt13_0" departPos="55.75" departSpeed="0.00" departDelay="0.55" arrival="485.00" arrivalLane="nt4_np5_0" arrivalPos="75.00" arrivalSpeed="20.42" duration="389.00" routeLength="1292.14" waitingTime="249.00" waitingCount="8" stopTime="0.00" timeLoss="302.85" rerouteNo="0" devices="tripinfo_f_0_0.7" vType="type1" speedFactor="1.06" vaporized=""/>
    <tripinfo id="f_0_0.8" depart="110.00" departLane="np13_nt13_0" departPos="27.92" departSpeed="0.00" departDelay="0.91" arrival="487.00" arrivalLane="nt4_np5_0" arrivalPos="75.00" arrivalSpeed="19.61" duration="377.00" routeLength="1319.97" waitingTime="242.00" waitingCount="7" stopTime="0.00" timeLoss="283.49" rerouteNo="0" devices="tripinfo_f_0_0.8" vType="type1" speedFactor="0.99" vaporized=""/>
    <tripinfo id="f_0_2.4" depart="33.00" departLane="np2_nt2_0" departPos="33.52" departSpeed="0.00" departDelay="0.27" arrival="514.00" arrivalLane="nt15_np10_0" arrivalPos="75.00" arrivalSpeed="8.86" duration="481.00" routeLength="917.56" waitingTime="308.00" waitingCount="15" stopTime="0.00" timeLoss="391.01" rerouteNo="0" devices="tripinfo_f_0_2.4" vType="type1" speedFactor="0.86" vaporized=""/>
    <tripinfo id="f_0_3.17" depart="140.00" departLane="np3_nt3_0" departPos="43.93" departSpeed="0.00" departDelay="0.91" arrival="515.00" arrivalLane="nt14_np11_0" arrivalPos="75.00" arrivalSpeed="7.02" duration="375.00" routeLength="907.16" waitingTime="218.00" waitingCount="10" stopTime="0.00" timeLoss="281.80" rerouteNo="0" devices="tripinfo_f_0_3.17" vType="type1" speedFactor="0.81" vaporized=""/>
    <tripinfo id="f_0_3.18" depart="148.00" departLane="np3_nt3_0" departPos="16.18" departSpeed="0.00" departDelay="0.72" arrival="517.00" arrivalLane="nt14_np11_0" arrivalPos="75.00" arrivalSpeed="10.02" duration="369.00" routeLength="934.91" waitingTime="205.00" waitingCount="9" stopTime="0.00" timeLoss="295.94" rerouteNo="0" devices="tripinfo_f_0_3.18" vType="type1" speedFactor="1.08" vaporized=""/>
    <tripinfo id="f_0_3.19" depart="156.00" departLane="np3_nt3_0" departPos="3.50" departSpeed="0.00" departDelay="0.54" arrival="519.00" arrivalLane="nt14_np11_0" arrivalPos="75.00" arrivalSpeed="9.57" duration="363.00" routeLength="947.59" waitingTime="203.00" waitingCount="11" stopTime="0.00" timeLoss="287.40" rerouteNo="0" devices="tripinfo_f_0_3.19" vType="type1" speedFactor="1.06" vaporized=""/>
    <tripinfo id="f_0_3.20" depart="164.00" departLane="np3_nt3_0" departPos="39.76" departSpeed="0.00" departDelay="0.36" arrival="521.00" arrivalLane="nt14_np11_0" arrivalPos="75.00" arrivalSpeed="8.98" duration="357.00" routeLength="911.33" waitingTime="192.00" waitingCount="8" stopTime="0.00" timeLoss="270.34" rerouteNo="0" devices="tripinfo_f_0_3.20" vType="type1" speedFactor="0.88" vaporized=""/>
    <tripinfo id="f_0_2.5" depart="41.00" departLane="np2_nt2_0" departPos="47.74" departSpeed="0.00" departDelay="0.09" arrival="564.00" arrivalLane="nt15_np10_0" arrivalPos="75.00" arrivalSpeed="7.52" duration="523.00" routeLength="903.34" waitingTime="343.00" waitingCount="15" stopTime="0.00" timeLoss="437.82" rerouteNo="0" devices="tripinfo_f_0_2.5" vType="type1" speedFactor="0.89" vaporized=""/>
    <tripinfo id="f_0_3.21" depart="172.00" departLane="np3_nt3_0" departPos="53.50" departSpeed="0.00" departDelay="0.18" arrival="571.00" arrivalLane="nt14_np11_0" arrivalPos="75.00" arrivalSpeed="10.14" duration="399.00" routeLength="897.59" waitingTime="242.00" waitingCount="9" stopTime="0.00" timeLoss="331.63" rerouteNo="0" devices="tripinfo_f_0_3.21" vType="type1" speedFactor="1.12" vaporized=""/>
    <tripinfo id="f_0_3.22" depart="180.00" departLane="np3_nt3_0" departPos="3.66" departSpeed="0.00" departDelay="0.00" arrival="583.00" arrivalLane="nt14_np11_0" arrivalPos="75.00" arrivalSpeed="8.71" duration="403.00" routeLength="947.43" waitingTime="243.00" waitingCount="10" stopTime="0.00" timeLoss="321.40" rerouteNo="0" devices="tripinfo_f_0_3.22" vType="type1" speedFactor="0.98" vaporized=""/>
    <tripinfo id="f_0_3.23" depart="189.00" departLane="np3_nt3_0" departPos="38.10" departSpeed="0.00" departDelay="0.81" arrival="585.00" arrivalLane="nt14_np11_0" arrivalPos="75.00" arrivalSpeed="8.58" duration="396.00" routeLength="912.99" waitingTime="236.00" waitingCount="9" stopTime="0.00" timeLoss="317.34" rerouteNo="0" devices="tripinfo_f_0_3.23" vType="type1" speedFactor="0.98" vaporized=""/>
    <tripinfo id="f_0_0.9" depart="123.00" departLane="np13_nt13_0" departPos="11.80" departSpeed="0.00" departDelay="0.28" arrival="586.00" arrivalLane="nt4_np5_0" arrivalPos="75.00" arrivalSpeed="12.97" duration="463.00" routeLength="1336.09" waitingTime="291.00" waitingCount="10" stopTime="0.00" timeLoss="339.60" rerouteNo="0" devices="tripinfo_f_0_0.9" vType="type1" speedFactor="0.75" vaporized=""/>
    <tripinfo id="f_0_0.10" depart="137.00" departLane="np13_nt13_0" departPos="13.54" departSpeed="0.00" departDelay="0.64" arrival="588.00" arrivalLane="nt4_np5_0" arrivalPos="75.00" arrivalSpeed="17.31" duration="451.00" routeLength="1334.35" waitingTime="273.00" waitingCount="10" stopTime="0.00" timeLoss="357.47" rerouteNo="0" devices="tripinfo_f_0_0.10" vType="type1" speedFactor="0.99" vaporized=""/>
    <tripinfo id="f_0_0.11" depart="150.00" departLane="np13_nt13_0" departPos="6.66" departSpeed="0.00" departDelay="0.00" arrival="589.00" arrivalLane="nt4_np5_0" arrivalPos="75.00" arrivalSpeed="18.76" duration="439.00" routeLength="1341.23" waitingTime="260.00" waitingCount="8" stopTime="0.00" timeLoss="342.14" rerouteNo="0" devices="tripinfo_f_0_0.11" vType="type1" speedFactor="0.96" vaporized=""/>
    <tripinfo id="f_0_0.12" depart="164.00" departLane="np13_nt13_0" departPos="11.93" departSpeed="0.00" departDelay="0.37" arrival="594.00" arrivalLane="nt4_np5_0" arrivalPos="75.00" arrivalSpeed="21.18" duration="430.00" routeLength="1335.96" waitingTime="268.00" waitingCount="10" stopTime="0.00" timeLoss="345.74" rerouteNo="0" devices="tripinfo_f_0_0.12" vType="type1" speedFactor="1.10" vaporized=""/>
    <tripinfo id="f_0_0.13" depart="178.00" departLane="np13_nt13_0" departPos="37.96" departSpeed="0.00" departDelay="0.73" arrival="610.00" arrivalLane="nt4_np5_0" arrivalPos="75.00" arrivalSpeed="19.96" duration="432.00" routeLength="1309.93" waitingTime="273.00" waitingCount="10" stopTime="0.00" timeLoss="342.88" rerouteNo="0" devices="tripinfo_f_0_0.13" vType="type1" speedFactor="1.02" vaporized=""/>
    <tripinfo id="f_0_0.14" depart="191.00" departLane="np13_nt13_0" departPos="2.59" departSpeed="0.00" departDelay="0.10" arrival="631.00" arrivalLane="nt4_np5_0" arrivalPos="75.00" arrivalSpeed="13.61" duration="440.00" routeLength="1345.30" waitingTime="249.00" waitingCount="11" stopTime="0.00" timeLoss="322.54" rerouteNo="0" devices="tripinfo_f_0_0.14" vType="type1" speedFactor="0.79" vaporized=""/>
    <tripinfo id="f_0_2.6" depart="50.00" departLane="np2_nt2_0" departPos="19.12" departSpeed="0.00" departDelay="0.91" arrival="654.00" arrivalLane="nt15_np10_0" arrivalPos="75.00" arrivalSpeed="8.70" duration="604.00" routeLength="931.96" waitingTime="412.00" waitingCount="15" stopTime="0.00" timeLoss="513.68" rerouteNo="0" devices="tripinfo_f_0_2.6" vType="type1" speedFactor="0.87" vaporized=""/>
    <tripinfo id="f_0_2.7" depart="58.00" departLane="np2_nt2_0" departPos="38.56" departSpeed="0.00" departDelay="0.73" arrival="663.00" arrivalLane="nt15_np10_0" arrivalPos="75.00" arrivalSpeed="10.42" duration="605.00" routeLength="912.52" waitingTime="412.00" waitingCount="16" stopTime="0.00" timeLoss="526.78" rerouteNo="0" devices="tripinfo_f_0_2.7" vType="type1" speedFactor="0.98" vaporized=""/>
    <tripinfo id="f_0_0.15" depart="205.00" departLane="np13_nt13_0" departPos="38.53" departSpeed="0.00" departDelay="0.46" arrival="676.00" arrivalLane="nt4_np5_0" arrivalPos="75.00" arrivalSpeed="17.41" duration="471.00" routeLength="1309.36" waitingTime="285.00" waitingCount="12" stopTime="0.00" timeLoss="375.43" rerouteNo="0" devices="tripinfo_f_0_0.15" vType="type1" speedFactor="0.95" vaporized=""/>
    <tripinfo id="f_0_3.24" depart="197.00" departLane="np3_nt3_0" departPos="52.88" departSpeed="0.00" departDelay="0.63" arrival="752.00" arrivalLane="nt14_np11_0" arrivalPos="75.00" arrivalSpeed="9.45" duration="555.00" routeLength="898.21" waitingTime="394.00" waitingCount="11" stopTime="0.00" timeLoss="483.04" rerouteNo="0" devices="tripinfo_f_0_3.24" vType="type1" speedFactor="1.05" vaporized=""/>
    <tripinfo id="f_0_3.25" depart="205.00" departLane="np3_nt3_0" departPos="26.88" departSpeed="0.00" departDelay="0.45" arrival="754.00" arrivalLane="nt14_np11_0" arrivalPos="75.00" arrivalSpeed="11.38" duration="549.00" routeLength="924.21" waitingTime="383.00" waitingCount="12" stopTime="0.00" timeLoss="476.38" rerouteNo="0" devices="tripinfo_f_0_3.25" vType="type1" speedFactor="1.07" vaporized=""/>
    <tripinfo id="f_0_0.16" depart="219.00" departLane="np13_nt13_0" departPos="6.50" departSpeed="0.00" departDelay="0.82" arrival="823.00" arrivalLane="nt4_np5_0" arrivalPos="75.00" arrivalSpeed="20.26" duration="604.00" routeLength="1341.39" waitingTime="448.00" waitingCount="11" stopTime="0.00" timeLoss="512.89" rerouteNo="0" devices="tripinfo_f_0_0.16" vType="type1" speedFactor="1.02" vaporized=""/>
    <tripinfo id="f_0_0.17" depart="232.00" departLane="np13_nt13_0" departPos="5.53" departSpeed="0.00" departDelay="0.19" arrival="826.00" arrivalLane="nt4_np5_0" arrivalPos="75.00" arrivalSpeed="16.17" duration="594.00" routeLength="1342.36" waitingTime="414.00" waitingCount="11" stopTime="0.00" timeLoss="488.00" rerouteNo="0" devices="tripinfo_f_0_0.17" vType="type1" speedFactor="0.88" vaporized=""/>
    <tripinfo id="f_0_0.18" depart="246.00" departLane="np13_nt13_0" departPos="25.12" departSpeed="0.00" departDelay="0.55" arrival="827.00" arrivalLane="nt4_np5_0" arrivalPos="75.00" arrivalSpeed="20.99" duration="581.00" routeLength="1322.77" waitingTime="415.00" waitingCount="10" stopTime="0.00" timeLoss="493.76" rerouteNo="0" devices="tripinfo_f_0_0.18" vType="type1" speedFactor="1.06" vaporized=""/>
    <tripinfo id="f_0_0.19" depart="260.00" departLane="np13_nt13_0" departPos="67.72" departSpeed="0.00" departDelay="0.92" arrival="829.00" arrivalLane="nt4_np5_0" arrivalPos="75.00" arrivalSpeed="18.61" duration="569.00" routeLength="1280.17" waitingTime="400.00" waitingCount="9" stopTime="0.00" timeLoss="481.49" rerouteNo="0" devices="tripinfo_f_0_0.19" vType="type1" speedFactor="1.03" vaporized=""/>
    <tripinfo id="f_0_0.20" depart="273.00" departLane="np13_nt13_0" departPos="12.01" departSpeed="0.00" departDelay="0.28" arrival="866.00" arrivalLane="nt4_np5_0" arrivalPos="75.00" arrivalSpeed="16.71" duration="593.00" routeLength="1335.88" waitingTime="429.00" waitingCount="11" stopTime="0.00" timeLoss="494.39" rerouteNo="0" devices="tripinfo_f_0_0.20" vType="type1" speedFactor="0.94" vaporized=""/>
    <tripinfo id="f_0_0.21" depart="287.00" departLane="np13_nt13_0" departPos="53.40" departSpeed="0.00" departDelay="0.64" arrival="908.00" arrivalLane="nt4_np5_0" arrivalPos="75.00" arrivalSpeed="17.31" duration="621.00" routeLength="1294.49" waitingTime="435.00" waitingCount="14" stopTime="0.00" timeLoss="517.54" rerouteNo="0" devices="tripinfo_f_0_0.21" vType="type1" speedFactor="0.87" vaporized=""/>
    <tripinfo id="f_1_0.0" depart="300.00" departLane="np13_nt13_0" departPos="59.50" departSpeed="0.00" departDelay="0.00" arrival="910.00" arrivalLane="nt4_np5_0" arrivalPos="75.00" arrivalSpeed="19.48" duration="610.00" routeLength="1288.39" waitingTime="418.00" waitingCount="16" stopTime="0.00" timeLoss="521.24" rerouteNo="0" devices="tripinfo_f_1_0.0" vType="type1" speedFactor="1.02" vaporized=""/>
    <tripinfo id="f_0_2.8" depart="66.00" departLane="np2_nt2_0" departPos="40.84" departSpeed="0.00" departDelay="0.54" arrival="927.00" arrivalLane="nt15_np10_0" arrivalPos="75.00" arrivalSpeed="10.51" duration="861.00" routeLength="910.24" waitingTime="682.00" waitingCount="16" stopTime="0.00" timeLoss="785.63" rerouteNo="0" devices="tripinfo_f_0_2.8" vType="type1" speedFactor="1.02" vaporized=""/>
    <tripinfo id="f_0_2.9" depart="74.00" departLane="np2_nt2_0" departPos="62.92" departSpeed="0.00" departDelay="0.36" arrival="929.00" arrivalLane="nt15_np10_0" arrivalPos="75.00" arrivalSpeed="10.17" duration="855.00" routeLength="888.16" waitingTime="681.00" waitingCount="16" stopTime="0.00" timeLoss="785.24" rerouteNo="0" devices="tripinfo_f_0_2.9" vType="type1" speedFactor="1.06" vaporized=""/>
    <tripinfo id="f_0_3.26" depart="213.00" departLane="np3_nt3_0" departPos="43.14" departSpeed="0.00" departDelay="0.27" arrival="936.00" arrivalLane="nt14_np11_0" arrivalPos="75.00" arrivalSpeed="11.90" duration="723.00" routeLength="907.95" waitingTime="551.00" waitingCount="14" stopTime="0.00" timeLoss="662.15" rerouteNo="0" devices="tripinfo_f_0_3.26" vType="type1" speedFactor="1.25" vaporized=""/>
    <tripinfo id="f_0_3.27" depart="221.00" departLane="np3_nt3_0" departPos="15.13" departSpeed="0.00" departDelay="0.09" arrival="940.00" arrivalLane="nt14_np11_0" arrivalPos="75.00" arrivalSpeed="8.43" duration="719.00" routeLength="935.96" waitingTime="536.00" waitingCount="12" stopTime="0.00" timeLoss="636.19" rerouteNo="0" devices="tripinfo_f_0_3.27" vType="type1" speedFactor="0.95" vaporized=""/>
    <tripinfo id="f_0_0.22" depart="300.00" departLane="np13_nt13_0" departPos="26.16" departSpeed="0.00" departDelay="0.01" arrival="984.00" arrivalLane="nt4_np5_0" arrivalPos="75.00" arrivalSpeed="19.73" duration="684.00" routeLength="1321.73" waitingTime="476.00" waitingCount="18" stopTime="0.00" timeLoss="592.13" rerouteNo="0" devices="tripinfo_f_0_0.22" vType="type1" speedFactor="1.01" vaporized=""/>
    <tripinfo id="f_1_0.1" depart="308.00" departLane="np13_nt13_0" departPos="21.15" departSpeed="0.00" departDelay="0.19" arrival="985.00" arrivalLane="nt4_np5_0" arrivalPos="75.00" arrivalSpeed="18.06" duration="677.00" routeLength="1326.74" waitingTime="457.00" waitingCount="17" stopTime="0.00" timeLoss="575.32" rerouteNo="0" devices="tripinfo_f_1_0.1" vType="type1" speedFactor="0.90" vaporized=""/>
    <tripinfo id="f_1_0.2" depart="316.00" departLane="np13_nt13_0" departPos="32.41" departSpeed="0.00" departDelay="0.38" arrival="1014.00" arrivalLane="nt4_np5_0" arrivalPos="75.00" arrivalSpeed="15.93" duration="698.00" routeLength="1315.48" waitingTime="473.00" waitingCount="21" stopTime="0.00" timeLoss="595.48" rerouteNo="0" devices="tripinfo_f_1_0.2" vType="type1" speedFactor="0.89" vaporized=""/>
    <tripinfo id="f_0_2.10" depart="82.00" departLane="np2_nt2_0" departPos="34.93" departSpeed="0.00" departDelay="0.18" arrival="1027.00" arrivalLane="nt15_np10_0" arrivalPos="75.00" arrivalSpeed="8.79" duration="945.00" routeLength="916.15" waitingTime="765.00" waitingCount="15" stopTime="0.00" timeLoss="867.69" rerouteNo="0" devices="tripinfo_f_0_2.10" vType="type1" speedFactor="0.99" vaporized=""/>
    <tripinfo id="f_0_1.2" depart="28.00" departLane="np16_nt1_0" departPos="57.32" departSpeed="0.00" departDelay="0.73" arrival="1037.00" arrivalLane="nt16_np8_0" arrivalPos="75.00" arrivalSpeed="18.31" duration="1009.00" routeLength="1290.56" waitingTime="813.00" waitingCount="15" stopTime="0.00" timeLoss="919.66" rerouteNo="0" devices="tripinfo_f_0_1.2" vType="type1" speedFactor="1.02" vaporized=""/>
    <tripinfo id="f_0_3.28" depart="230.00" departLane="np3_nt3_0" departPos="3.97" departSpeed="0.00" departDelay="0.90" arrival="1048.00" arrivalLane="nt14_np11_0" arrivalPos="75.00" arrivalSpeed="10.46" duration="818.00" routeLength="947.12" waitingTime="629.00" waitingCount="15" stopTime="0.00" timeLoss="735.68" rerouteNo="0" devices="tripinfo_f_0_3.28" vType="type1" speedFactor="0.97" vaporized=""/>
    <tripinfo id="f_1_0.3" depart="324.00" departLane="np13_nt13_0" departPos="52.58" departSpeed="0.00" departDelay="0.57" arrival="1048.00" arrivalLane="nt4_np5_0" arrivalPos="75.00" arrivalSpeed="22.69" duration="724.00" routeLength="1295.31" waitingTime="515.00" waitingCount="20" stopTime="0.00" timeLoss="645.14" rerouteNo="0" devices="tripinfo_f_1_0.3" vType="type1" speedFactor="1.14" vaporized=""/>
    <tripinfo id="f_1_0.4" depart="332.00" departLane="np13_nt13_0" departPos="23.16" departSpeed="0.00" departDelay="0.76" arrival="1051.00" arrivalLane="nt4_np5_0" arrivalPos="75.00" arrivalSpeed="17.69" duration="719.00" routeLength="1324.73" waitingTime="499.00" waitingCount="17" stopTime="0.00" timeLoss="620.17" rerouteNo="0" devices="tripinfo_f_1_0.4" vType="type1" speedFactor="0.94" vaporized=""/>