<?xml version="1.0" encoding="UTF-8"?>

<!-- generated on 2023-08-30 19:18:52 by Eclipse SUMO libsumo Version 1.18.0
<configuration xmlns:xsi="http://www.w3.org/2001/XMLSchema-instance" xsi:noNamespaceSchemaLocation="http://sumo.dlr.de/xsd/libsumoConfiguration.xsd">

    <input>
        <net-file value="/home/stefan/RESCO/./environments/arterial4x4/arterial4x4.net.xml"/>
        <route-files value="/home/stefan/RESCO/./environments/arterial4x4/arterial4x4_73.rou.xml"/>
    </input>

    <output>
        <tripinfo-output value="/home/stefan/results/RAINBOW-tr0-arterial4x4-0-drq_norm-wait_norm/tripinfo_73.xml"/>
        <tripinfo-output.write-unfinished value="true"/>
    </output>

    <processing>
        <time-to-teleport value="-1"/>
    </processing>

    <report>
        <no-warnings value="True"/>
        <no-step-log value="True"/>
    </report>

    <random_number>
        <random value="true"/>
    </random_number>

</configuration>
-->

<tripinfos xmlns:xsi="http://www.w3.org/2001/XMLSchema-instance" xsi:noNamespaceSchemaLocation="http://sumo.dlr.de/xsd/tripinfo_file.xsd">
    <tripinfo id="f_0_2.0" depart="0.00" departLane="np2_nt2_0" departPos="14.36" departSpeed="0.00" departDelay="0.00" arrival="713.00" arrivalLane="nt15_np10_0" arrivalPos="75.00" arrivalSpeed="8.31" duration="713.00" routeLength="936.72" waitingTime="602.00" waitingCount="3" stopTime="0.00" timeLoss="624.29" rerouteNo="0" devices="tripinfo_f_0_2.0" vType="type1" speedFactor="0.89" vaporized=""/>
    <tripinfo id="f_0_2.1" depart="9.00" departLane="np2_nt2_0" departPos="23.38" departSpeed="0.00" departDelay="0.82" arrival="715.00" arrivalLane="nt15_np10_0" arrivalPos="75.00" arrivalSpeed="11.01" duration="706.00" routeLength="927.70" waitingTime="602.00" waitingCount="4" stopTime="0.00" timeLoss="628.80" rerouteNo="0" devices="tripinfo_f_0_2.1" vType="type1" speedFactor="1.00" vaporized=""/>
    <tripinfo id="f_0_2.2" depart="17.00" departLane="np2_nt2_0" departPos="46.94" departSpeed="0.00" departDelay="0.64" arrival="827.00" arrivalLane="nt15_np10_0" arrivalPos="75.00" arrivalSpeed="9.17" duration="810.00" routeLength="904.14" waitingTime="708.00" waitingCount="6" stopTime="0.00" timeLoss="736.12" rerouteNo="0" devices="tripinfo_f_0_2.2" vType="type1" speedFactor="1.03" vaporized=""/>
    <tripinfo id="f_0_2.3" depart="25.00" departLane="np2_nt2_0" departPos="3.03" departSpeed="0.00" departDelay="0.45" arrival="833.00" arrivalLane="nt15_np10_0" arrivalPos="75.00" arrivalSpeed="6.31" duration="808.00" routeLength="948.05" waitingTime="667.00" waitingCount="6" stopTime="0.00" timeLoss="703.83" rerouteNo="0" devices="tripinfo_f_0_2.3" vType="type1" speedFactor="0.77" vaporized=""/>
    <tripinfo id="f_0_3.0" depart="0.00" departLane="np3_nt3_0" departPos="57.34" departSpeed="0.00" departDelay="0.00" arrival="952.00" arrivalLane="nt14_np11_0" arrivalPos="75.00" arrivalSpeed="11.54" duration="952.00" routeLength="893.75" waitingTime="860.00" waitingCount="4" stopTime="0.00" timeLoss="881.01" rerouteNo="0" devices="tripinfo_f_0_3.0" vType="type1" speedFactor="1.05" vaporized=""/>
    <tripinfo id="f_0_3.1" depart="9.00" departLane="np3_nt3_0" departPos="21.20" departSpeed="0.00" departDelay="0.82" arrival="1022.00" arrivalLane="nt14_np11_0" arrivalPos="75.00" arrivalSpeed="11.41" duration="1013.00" routeLength="929.89" waitingTime="907.00" waitingCount="6" stopTime="0.00" timeLoss="938.01" rerouteNo="0" devices="tripinfo_f_0_3.1" vType="type1" speedFactor="1.04" vaporized=""/>
    <tripinfo id="f_0_3.2" depart="17.00" departLane="np3_nt3_0" departPos="45.88" departSpeed="0.00" departDelay="0.64" arrival="1025.00" arrivalLane="nt14_np11_0" arrivalPos="75.00" arrivalSpeed="9.27" duration="1008.00" routeLength="905.21" waitingTime="899.00" waitingCount="7" stopTime="0.00" timeLoss="931.34" rerouteNo="0" devices="tripinfo_f_0_3.2" vType="type1" speedFactor="0.99" vaporized=""/>
    <tripinfo id="f_0_3.3" depart="25.00" departLane="np3_nt3_0" departPos="37.23" departSpeed="0.00" departDelay="0.45" arrival="1072.00" arrivalLane="nt14_np11_0" arrivalPos="75.00" arrivalSpeed="9.75" duration="1047.00" routeLength="913.86" waitingTime="928.00" waitingCount="9" stopTime="0.00" timeLoss="971.03" rerouteNo="0" devices="tripinfo_f_0_3.3" vType="type1" speedFactor="1.00" vaporized=""/>
    <tripinfo id="f_0_3.4" depart="33.00" departLane="np3_nt3_0" departPos="7.66" departSpeed="0.00" departDelay="0.27" arrival="1074.00" arrivalLane="nt14_np11_0" arrivalPos="75.00" arrivalSpeed="10.54" duration="1041.00" routeLength="943.43" waitingTime="915.00" waitingCount="9" stopTime="0.00" timeLoss="964.65" rerouteNo="0" devices="tripinfo_f_0_3.4" vType="type1" speedFactor="1.03" vaporized=""/>
    <tripinfo id="f_3_6.0" depart="900.00" departLane="np10_nt15_0" departPos="11.87" departSpeed="0.00" departDelay="0.00" arrival="1116.00" arrivalLane="nt2_np2_0" arrivalPos="64.60" arrivalSpeed="11.90" duration="216.00" routeLength="939.21" waitingTime="119.00" waitingCount="5" stopTime="0.00" timeLoss="142.67" rerouteNo="0" devices="tripinfo_f_3_6.0" vType="type1" speedFactor="1.08" vaporized=""/>
    <tripinfo id="f_0_0.0" depart="0.00" departLane="np13_nt13_0" departPos="46.91" departSpeed="0.00" departDelay="0.00" arrival="1303.00" arrivalLane="nt4_np5_0" arrivalPos="75.00" arrivalSpeed="20.79" duration="1303.00" routeLength="1300.98" waitingTime="1189.00" waitingCount="4" stopTime="0.00" timeLoss="1216.43" rerouteNo="0" devices="tripinfo_f_0_0.0" vType="type1" speedFactor="1.05" vaporized=""/>
    <tripinfo id="f_0_2.4" depart="33.00" departLane="np2_nt2_0" departPos="0.38" departSpeed="0.00" departDelay="0.27" arrival="1418.00" arrivalLane="nt15_np10_0" arrivalPos="75.00" arrivalSpeed="8.51" duration="1385.00" routeLength="950.70" waitingTime="1273.00" waitingCount="5" stopTime="0.00" timeLoss="1302.67" rerouteNo="0" devices="tripinfo_f_0_2.4" vType="type1" speedFactor="0.97" vaporized=""/>
    <tripinfo id="f_0_2.5" depart="41.00" departLane="np2_nt2_0" departPos="42.82" departSpeed="0.00" departDelay="0.09" arrival="1420.00" arrivalLane="nt15_np10_0" arrivalPos="75.00" arrivalSpeed="9.15" duration="1379.00" routeLength="908.26" waitingTime="1267.00" waitingCount="5" stopTime="0.00" timeLoss="1300.15" rerouteNo="0" devices="tripinfo_f_0_2.5" vType="type1" speedFactor="0.97" vaporized=""/>
    <tripinfo id="f_0_0.1" depart="14.00" departLane="np13_nt13_0" departPos="0.86" departSpeed="0.00" departDelay="0.36" arrival="1453.00" arrivalLane="nt4_np5_0" arrivalPos="75.00" arrivalSpeed="20.19" duration="1439.00" routeLength="1347.03" waitingTime="1318.00" waitingCount="6" stopTime="0.00" timeLoss="1348.60" rerouteNo="0" devices="tripinfo_f_0_0.1" vType="type1" speedFactor="1.03" vaporized=""/>
    <tripinfo id="f_0_0.2" depart="28.00" departLane="np13_nt13_0" departPos="54.15" departSpeed="0.00" departDelay="0.73" arrival="1528.00" arrivalLane="nt4_np5_0" arrivalPos="75.00" arrivalSpeed="16.78" duration="1500.00" routeLength="1293.74" waitingTime="1365.00" waitingCount="7" stopTime="0.00" timeLoss="1403.40" rerouteNo="0" devices="tripinfo_f_0_0.2" vType="type1" speedFactor="0.93" vaporized=""/>
    <tripinfo id="f_3_4.0" depart="900.00" departLane="np5_nt4_0" departPos="55.45" departSpeed="0.00" departDelay="0.00" arrival="1550.00" arrivalLane="nt13_np13_1" arrivalPos="67.80" arrivalSpeed="15.37" duration="650.00" routeLength="1292.44" waitingTime="504.00" waitingCount="6" stopTime="0.00" timeLoss="539.58" rerouteNo="0" devices="tripinfo_f_3_4.0" vType="type1" speedFactor="0.82" vaporized=""/>
    <tripinfo id="f_3_6.1" depart="913.00" departLane="np10_nt15_0" departPos="22.86" departSpeed="0.00" departDelay="0.00" arrival="1583.00" arrivalLane="nt2_np2_0" arrivalPos="64.60" arrivalSpeed="8.82" duration="670.00" routeLength="928.22" waitingTime="565.00" waitingCount="5" stopTime="0.00" timeLoss="591.78" rerouteNo="0" devices="tripinfo_f_3_6.1" vType="type1" speedFactor="1.00" vaporized=""/>
    <tripinfo id="f_0_0.3" depart="41.00" departLane="np13_nt13_0" departPos="67.70" departSpeed="0.00" departDelay="0.09" arrival="1589.00" arrivalLane="nt4_np5_0" arrivalPos="75.00" arrivalSpeed="18.20" duration="1548.00" routeLength="1280.19" waitingTime="1414.00" waitingCount="8" stopTime="0.00" timeLoss="1457.68" rerouteNo="0" devices="tripinfo_f_0_0.3" vType="type1" speedFactor="0.99" vaporized=""/>
    <tripinfo id="f_0_0.4" depart="55.00" departLane="np13_nt13_0" departPos="9.09" departSpeed="0.00" departDelay="0.46" arrival="1591.00" arrivalLane="nt4_np5_0" arrivalPos="75.00" arrivalSpeed="21.83" duration="1536.00" routeLength="1338.80" waitingTime="1394.00" waitingCount="8" stopTime="0.00" timeLoss="1458.67" rerouteNo="0" devices="tripinfo_f_0_0.4" vType="type1" speedFactor="1.21" vaporized=""/>
    <tripinfo id="f_0_3.5" depart="41.00" departLane="np3_nt3_0" departPos="6.45" departSpeed="0.00" departDelay="0.09" arrival="1647.00" arrivalLane="nt14_np11_0" arrivalPos="75.00" arrivalSpeed="10.45" duration="1606.00" routeLength="944.64" waitingTime="1477.00" waitingCount="10" stopTime="0.00" timeLoss="1526.19" rerouteNo="0" devices="tripinfo_f_0_3.5" vType="type1" speedFactor="0.99" vaporized=""/>
    <tripinfo id="f_0_3.6" depart="50.00" departLane="np3_nt3_0" departPos="9.49" departSpeed="0.00" departDelay="0.91" arrival="1649.00" arrivalLane="nt14_np11_0" arrivalPos="75.00" arrivalSpeed="10.84" duration="1599.00" routeLength="941.60" waitingTime="1466.00" waitingCount="11" stopTime="0.00" timeLoss="1520.58" rerouteNo="0" devices="tripinfo_f_0_3.6" vType="type1" speedFactor="1.01" vaporized=""/>
    <tripinfo id="f_0_3.7" depart="58.00" departLane="np3_nt3_0" departPos="4.46" departSpeed="0.00" departDelay="0.73" arrival="1727.00" arrivalLane="nt14_np11_0" arrivalPos="75.00" arrivalSpeed="11.44" duration="1669.00" routeLength="946.63" waitingTime="1533.00" waitingCount="12" stopTime="0.00" timeLoss="1599.61" rerouteNo="0" devices="tripinfo_f_0_3.7" vType="type1" speedFactor="1.15" vaporized=""/>
    <tripinfo id="f_0_3.8" depart="66.00" departLane="np3_nt3_0" departPos="1.72" departSpeed="0.00" departDelay="0.54" arrival="1832.00" arrivalLane="nt14_np11_0" arrivalPos="75.00" arrivalSpeed="8.79" duration="1766.00" routeLength="949.37" waitingTime="1609.00" waitingCount="14" stopTime="0.00" timeLoss="1686.24" rerouteNo="0" devices="tripinfo_f_0_3.8" vType="type1" speedFactor="1.00" vaporized=""/>
    <tripinfo id="f_0_3.9" depart="272.00" departLane="np3_nt3_0" departPos="1.03" departSpeed="0.00" departDelay="198.36" arrival="1834.00" arrivalLane="nt14_np11_0" arrivalPos="75.00" arrivalSpeed="11.31" duration="1562.00" routeLength="950.06" waitingTime="1409.00" waitingCount="15" stopTime="0.00" timeLoss="1491.93" rerouteNo="0" devices="tripinfo_f_0_3.9" vType="type1" speedFactor="1.14" vaporized=""/>
    <tripinfo id="f_0_3.10" depart="275.00" departLane="np3_nt3_0" departPos="1.49" departSpeed="0.00" departDelay="193.18" arrival="1877.00" arrivalLane="nt14_np11_0" arrivalPos="75.00" arrivalSpeed="9.22" duration="1602.00" routeLength="949.60" waitingTime="1427.00" waitingCount="17" stopTime="0.00" timeLoss="1523.72" rerouteNo="0" devices="tripinfo_f_0_3.10" vType="type1" speedFactor="1.02" vaporized=""/>
    <tripinfo id="f_0_3.11" depart="323.00" departLane="np3_nt3_0" departPos="0.00" departSpeed="0.00" departDelay="233.00" arrival="1879.00" arrivalLane="nt14_np11_0" arrivalPos="75.00" arrivalSpeed="10.56" duration="1556.00" routeLength="951.09" waitingTime="1386.00" waitingCount="14" stopTime="0.00" timeLoss="1474.30" rerouteNo="0" devices="tripinfo_f_0_3.11" vType="type1" speedFactor="0.98" vaporized=""/>
    <tripinfo id="f_0_2.6" depart="50.00" departLane="np2_nt2_0" departPos="32.24" departSpeed="0.00" departDelay="0.91" arrival="2022.00" arrivalLane="nt15_np10_0" arrivalPos="75.00" arrivalSpeed="10.38" duration="1972.00" routeLength="918.84" waitingTime="1862.00" waitingCount="5" stopTime="0.00" timeLoss="1895.10" rerouteNo="0" devices="tripinfo_f_0_2.6" vType="type1" speedFactor="1.00" vaporized=""/>
    <tripinfo id="f_0_2.7" depart="58.00" departLane="np2_nt2_0" departPos="55.18" departSpeed="0.00" departDelay="0.73" arrival="2024.00" arrivalLane="nt15_np10_0" arrivalPos="75.00" arrivalSpeed="12.51" duration="1966.00" routeLength="895.90" waitingTime="1863.00" waitingCount="5" stopTime="0.00" timeLoss="1902.03" rerouteNo="0" devices="tripinfo_f_0_2.7" vType="type1" speedFactor="1.17" vaporized=""/>
    <tripinfo id="f_0_0.5" depart="69.00" departLane="np13_nt13_0" departPos="8.72" departSpeed="0.00" departDelay="0.82" arrival="2093.00" arrivalLane="nt4_np5_0" arrivalPos="75.00" arrivalSpeed="19.98" duration="2024.00" routeLength="1339.17" waitingTime="1869.00" waitingCount="10" stopTime="0.00" timeLoss="1941.40" rerouteNo="0" devices="tripinfo_f_0_0.5" vType="type1" speedFactor="1.12" vaporized=""/>
    <tripinfo id="f_0_0.6" depart="82.00" departLane="np13_nt13_0" departPos="45.16" departSpeed="0.00" departDelay="0.18" arrival="2095.00" arrivalLane="nt4_np5_0" arrivalPos="75.00" arrivalSpeed="17.45" duration="2013.00" routeLength="1302.73" waitingTime="1848.00" waitingCount="12" stopTime="0.00" timeLoss="1919.65" rerouteNo="0" devices="tripinfo_f_0_0.6" vType="type1" speedFactor="0.97" vaporized=""/>
    <tripinfo id="f_0_0.7" depart="96.00" departLane="np13_nt13_0" departPos="8.20" departSpeed="0.00" departDelay="0.55" arrival="2098.00" arrivalLane="nt4_np5_0" arrivalPos="75.00" arrivalSpeed="14.42" duration="2002.00" routeLength="1339.69" waitingTime="1807.00" waitingCount="13" stopTime="0.00" timeLoss="1882.63" rerouteNo="0" devices="tripinfo_f_0_0.7" vType="type1" speedFactor="0.78" vaporized=""/>
    <tripinfo id="f_0_0.8" depart="110.00" departLane="np13_nt13_0" departPos="52.38" departSpeed="0.00" departDelay="0.91" arrival="2099.00" arrivalLane="nt4_np5_0" arrivalPos="75.00" arrivalSpeed="17.28" duration="1989.00" routeLength="1295.51" waitingTime="1799.00" waitingCount="12" stopTime="0.00" timeLoss="1890.91" rerouteNo="0" devices="tripinfo_f_0_0.8" vType="type1" speedFactor="0.92" vaporized=""/>
    <tripinfo id="f_0_0.9" depart="123.00" departLane="np13_nt13_0" departPos="63.60" departSpeed="0.00" departDelay="0.28" arrival="2100.00" arrivalLane="nt4_np5_0" arrivalPos="75.00" arrivalSpeed="21.09" duration="1977.00" routeLength="1284.29" waitingTime="1784.00" waitingCount="13" stopTime="0.00" timeLoss="1902.45" rerouteNo="0" devices="tripinfo_f_0_0.9" vType="type1" speedFactor="1.20" vaporized=""/>
    <tripinfo id="f_0_0.10" depart="137.00" departLane="np13_nt13_0" departPos="61.47" departSpeed="0.00" departDelay="0.64" arrival="2102.00" arrivalLane="nt4_np5_0" arrivalPos="75.00" arrivalSpeed="18.07" duration="1965.00" routeLength="1286.42" waitingTime="1756.00" waitingCount="12" stopTime="0.00" timeLoss="1872.03" rerouteNo="0" devices="tripinfo_f_0_0.10" vType="type1" speedFactor="0.97" vaporized=""/>
    <tripinfo id="f_0_0.11" depart="150.00" departLane="np13_nt13_0" departPos="56.57" departSpeed="0.00" departDelay="0.00" arrival="2104.00" arrivalLane="nt4_np5_0" arrivalPos="75.00" arrivalSpeed="18.92" duration="1954.00" routeLength="1291.32" waitingTime="1743.00" waitingCount="13" stopTime="0.00" timeLoss="1861.38" rerouteNo="0" devices="tripinfo_f_0_0.11" vType="type1" speedFactor="0.98" vaporized=""/>
    <tripinfo id="f_0_0.12" depart="164.00" departLane="np13_nt13_0" departPos="50.29" departSpeed="0.00" departDelay="0.37" arrival="2109.00" arrivalLane="nt4_np5_0" arrivalPos="75.00" arrivalSpeed="11.87" duration="1945.00" routeLength="1297.60" waitingTime="1693.00" waitingCount="14" stopTime="0.00" timeLoss="1799.52" rerouteNo="0" devices="tripinfo_f_0_0.12" vType="type1" speedFactor="0.63" vaporized=""/>
    <tripinfo id="f_0_0.13" depart="178.00" departLane="np13_nt13_0" departPos="56.38" departSpeed="0.00" departDelay="0.73" arrival="2110.00" arrivalLane="nt4_np5_0" arrivalPos="75.00" arrivalSpeed="15.86" duration="1932.00" routeLength="1291.51" waitingTime="1692.00" waitingCount="14" stopTime="0.00" timeLoss="1827.64" rerouteNo="0" devices="tripinfo_f_0_0.13" vType="type1" speedFactor="0.87" vaporized=""/>
    <tripinfo id="f_0_2.8" depart="66.00" departLane="np2_nt2_0" departPos="54.56" departSpeed="0.00" departDelay="0.54" arrival="2192.00" arrivalLane="nt15_np10_0" arrivalPos="75.00" arrivalSpeed="9.17" duration="2126.00" routeLength="896.52" waitingTime="2011.00" waitingCount="7" stopTime="0.00" timeLoss="2053.97" rerouteNo="0" devices="tripinfo_f_0_2.8" vType="type1" speedFactor="1.04" vaporized=""/>
    <tripinfo id="f_0_3.12" depart="507.00" departLane="np3_nt3_0" departPos="0.00" departSpeed="0.00" departDelay="408.82" arrival="2200.00" arrivalLane="nt14_np11_0" arrivalPos="75.00" arrivalSpeed="9.17" duration="1693.00" routeLength="951.09" waitingTime="1539.00" waitingCount="12" stopTime="0.00" timeLoss="1611.40" rerouteNo="0" devices="tripinfo_f_0_3.12" vType="type1" speedFactor="0.97" vaporized=""/>
    <tripinfo id="f_0_3.13" depart="511.00" departLane="np3_nt3_0" departPos="0.41" departSpeed="0.00" departDelay="404.63" arrival="2202.00" arrivalLane="nt14_np11_0" arrivalPos="75.00" arrivalSpeed="10.17" duration="1691.00" routeLength="950.68" waitingTime="1538.00" waitingCount="12" stopTime="0.00" timeLoss="1611.30" rerouteNo="0" devices="tripinfo_f_0_3.13" vType="type1" speedFactor="1.01" vaporized=""/>
    <tripinfo id="f_0_2.9" depart="74.00" departLane="np2_nt2_0" departPos="10.22" departSpeed="0.00" departDelay="0.36" arrival="2222.00" arrivalLane="nt15_np10_0" arrivalPos="75.00" arrivalSpeed="9.96" duration="2148.00" routeLength="940.86" waitingTime="2025.00" waitingCount="10" stopTime="0.00" timeLoss="2074.08" rerouteNo="0" devices="tripinfo_f_0_2.9" vType="type1" speedFactor="1.07" vaporized=""/>
    <tripinfo id="f_0_3.14" depart="704.00" departLane="np3_nt3_0" departPos="0.00" departSpeed="0.00" departDelay="589.45" arrival="2389.00" arrivalLane="nt14_np11_0" arrivalPos="75.00" arrivalSpeed="7.49" duration="1685.00" routeLength="951.09" waitingTime="1528.00" waitingCount="11" stopTime="0.00" timeLoss="1596.23" rerouteNo="0" devices="tripinfo_f_0_3.14" vType="type1" speedFactor="0.90" vaporized=""/>
    <tripinfo id="f_0_3.15" depart="798.00" departLane="np3_nt3_0" departPos="0.00" departSpeed="0.00" departDelay="675.27" arrival="2391.00" arrivalLane="nt14_np11_0" arrivalPos="75.00" arrivalSpeed="8.19" duration="1593.00" routeLength="951.09" waitingTime="1447.00" waitingCount="11" stopTime="0.00" timeLoss="1508.73" rerouteNo="0" devices="tripinfo_f_0_3.15" vType="type1" speedFactor="0.95" vaporized=""/>
    <tripinfo id="f_3_5.0" depart="900.00" departLane="np8_nt16_0" departPos="55.37" departSpeed="0.00" departDelay="0.00" arrival="2440.00" arrivalLane="nt1_np16_0" arrivalPos="67.80" arrivalSpeed="21.97" duration="1540.00" routeLength="1292.51" waitingTime="1427.00" waitingCount="6" stopTime="0.00" timeLoss="1461.31" rerouteNo="0" devices="tripinfo_f_3_5.0" vType="type1" speedFactor="1.16" vaporized=""/>
    <tripinfo id="f_3_5.1" depart="922.00" departLane="np8_nt16_0" departPos="56.19" departSpeed="0.00" departDelay="0.31" arrival="2445.00" arrivalLane="nt1_np16_0" arrivalPos="67.80" arrivalSpeed="17.03" duration="1523.00" routeLength="1291.69" waitingTime="1392.00" waitingCount="6" stopTime="0.00" timeLoss="1424.29" rerouteNo="0" devices="tripinfo_f_3_5.1" vType="type1" speedFactor="0.92" vaporized=""/>
    <tripinfo id="f_3_6.2" depart="926.00" departLane="np10_nt15_0" departPos="17.80" departSpeed="0.00" departDelay="0.01" arrival="2500.00" arrivalLane="nt2_np2_0" arrivalPos="64.60" arrivalSpeed="10.31" duration="1574.00" routeLength="933.28" waitingTime="1465.00" waitingCount="7" stopTime="0.00" timeLoss="1501.72" rerouteNo="0" devices="tripinfo_f_3_6.2" vType="type1" speedFactor="1.09" vaporized=""/>
    <tripinfo id="f_3_6.3" depart="939.00" departLane="np10_nt15_0" departPos="34.51" departSpeed="0.00" departDelay="0.01" arrival="2503.00" arrivalLane="nt2_np2_0" arrivalPos="64.60" arrivalSpeed="10.05" duration="1564.00" routeLength="916.57" waitingTime="1452.00" waitingCount="8" stopTime="0.00" timeLoss="1487.98" rerouteNo="0" devices="tripinfo_f_3_6.3" vType="type1" speedFactor="1.02" vaporized=""/>
    <tripinfo id="f_3_6.4" depart="952.00" departLane="np10_nt15_0" departPos="26.20" departSpeed="0.00" departDelay="0.02" arrival="2516.00" arrivalLane="nt2_np2_0" arrivalPos="64.60" arrivalSpeed="10.49" duration="1564.00" routeLength="924.88" waitingTime="1435.00" waitingCount="9" stopTime="0.00" timeLoss="1483.86" rerouteNo="0" devices="tripinfo_f_3_6.4" vType="type1" speedFactor="0.97" vaporized=""/>
    <tripinfo id="f_3_6.5" depart="965.00" departLane="np10_nt15_0" departPos="31.10" departSpeed="0.00" departDelay="0.02" arrival="2518.00" arrivalLane="nt2_np2_0" arrivalPos="64.60" arrivalSpeed="13.17" duration="1553.00" routeLength="919.98" waitingTime="1427.00" waitingCount="10" stopTime="0.00" timeLoss="1488.62" rerouteNo="0" devices="tripinfo_f_3_6.5" vType="type1" speedFactor="1.20" vaporized=""/>
    <tripinfo id="f_0_3.16" depart="904.00" departLane="np3_nt3_0" departPos="0.32" departSpeed="0.00" departDelay="773.09" arrival="2522.00" arrivalLane="nt14_np11_0" arrivalPos="75.00" arrivalSpeed="9.51" duration="1618.00" routeLength="950.77" waitingTime="1473.00" waitingCount="11" stopTime="0.00" timeLoss="1539.57" rerouteNo="0" devices="tripinfo_f_0_3.16" vType="type1" speedFactor="1.02" vaporized=""/>
    <tripinfo id="f_0_3.17" depart="923.00" departLane="np3_nt3_0" departPos="0.45" departSpeed="0.00" departDelay="783.91" arrival="2525.00" arrivalLane="nt14_np11_0" arrivalPos="75.00" arrivalSpeed="9.56" duration="1602.00" routeLength="950.64" waitingTime="1449.00" waitingCount="11" stopTime="0.00" timeLoss="1524.56" rerouteNo="0" devices="tripinfo_f_0_3.17" vType="type1" speedFactor="1.04" vaporized=""/>
    <tripinfo id="f_0_3.18" depart="1172.00" departLane="np3_nt3_0" departPos="0.00" departSpeed="0.00" departDelay="1024.72" arrival="2537.00" arrivalLane="nt14_np11_0" arrivalPos="75.00" arrivalSpeed="10.06" duration="1365.00" routeLength="951.09" waitingTime="1203.00" waitingCount="13" stopTime="0.00" timeLoss="1285.27" rerouteNo="0" devices="tripinfo_f_0_3.18" vType="type1" speedFactor="1.00" vaporized=""/>
    <tripinfo id="f_0_3.19" depart="1176.00" departLane="np3_nt3_0" departPos="0.00" departSpeed="0.00" departDelay="1020.54" arrival="2539.00" arrivalLane="nt14_np11_0" arrivalPos="75.00" arrivalSpeed="9.60" duration="1363.00" routeLength="951.09" waitingTime="1191.00" waitingCount="13" stopTime="0.00" timeLoss="1284.62" rerouteNo="0" devices="tripinfo_f_0_3.19" vType="type1" speedFactor="1.02" vaporized=""/>
    <tripinfo id="f_3_5.2" depart="944.00" departLane="np8_nt16_0" departPos="43.97" departSpeed="0.00" departDelay="0.63" arrival="2551.00" arrivalLane="nt1_np16_0" arrivalPos="67.80" arrivalSpeed="16.91" duration="1607.00" routeLength="1303.91" waitingTime="1465.00" waitingCount="8" stopTime="0.00" timeLoss="1511.77" rerouteNo="0" devices="tripinfo_f_3_5.2" vType="type1" speedFactor="0.96" vaporized=""/>
    <tripinfo id="f_3_5.3" depart="966.00" departLane="np8_nt16_0" departPos="26.59" departSpeed="0.00" departDelay="0.94" arrival="2554.00" arrivalLane="nt1_np16_0" arrivalPos="67.80" arrivalSpeed="18.78" duration="1588.00" routeLength="1321.29" waitingTime="1434.00" waitingCount="10" stopTime="0.00" timeLoss="1498.29" rerouteNo="0" devices="tripinfo_f_3_5.3" vType="type1" speedFactor="1.03" vaporized=""/>
    <tripinfo id="f_0_3.26" depart="2037.00" departLane="np3_nt3_0" departPos="64.26" departSpeed="0.00" departDelay="1824.27" arrival="2741.00" arrivalLane="nt14_np11_0" arrivalPos="75.00" arrivalSpeed="6.74" duration="704.00" routeLength="886.83" waitingTime="530.00" waitingCount="7" stopTime="0.00" timeLoss="602.23" rerouteNo="0" devices="tripinfo_f_0_3.26" vType="type1" speedFactor="0.73" vaporized=""/>
    <tripinfo id="f_0_3.20" depart="1358.00" departLane="np3_nt3_0" departPos="0.00" departSpeed="0.00" departDelay="1194.36" arrival="2743.00" arrivalLane="nt14_np11_0" arrivalPos="75.00" arrivalSpeed="8.91" duration="1385.00" routeLength="951.09" waitingTime="1172.00" waitingCount="11" stopTime="0.00" timeLoss="1298.40" rerouteNo="0" devices="tripinfo_f_0_3.20" vType="type1" speedFactor="0.92" vaporized=""/>
    <tripinfo id="f_3_6.6" depart="978.00" departLane="np10_nt15_0" departPos="68.22" departSpeed="0.00" departDelay="0.02" arrival="2766.00" arrivalLane="nt2_np2_0" arrivalPos="64.60" arrivalSpeed="8.79" duration="1788.00" routeLength="882.86" waitingTime="1660.00" waitingCount="11" stopTime="0.00" timeLoss="1714.90" rerouteNo="0" devices="tripinfo_f_3_6.6" vType="type1" speedFactor="1.01" vaporized=""/>
    <tripinfo id="f_3_6.7" depart="991.00" departLane="np10_nt15_0" departPos="41.90" departSpeed="0.00" departDelay="0.03" arrival="2873.00" arrivalLane="nt2_np2_0" arrivalPos="64.60" arrivalSpeed="8.18" duration="1882.00" routeLength="909.18" waitingTime="1732.00" waitingCount="13" stopTime="0.00" timeLoss="1791.02" rerouteNo="0" devices="tripinfo_f_3_6.7" vType="type1" speedFactor="0.84" vaporized=""/>
    <tripinfo id="f_0_2.10" depart="82.00" departLane="np2_nt2_0" departPos="41.32" departSpeed="0.00" departDelay="0.18" arrival="2920.00" arrivalLane="nt15_np10_0" arrivalPos="75.00" arrivalSpeed="11.14" duration="2838.00" routeLength="909.76" waitingTime="2716.00" waitingCount="8" stopTime="0.00" timeLoss="2772.24" rerouteNo="0" devices="tripinfo_f_0_2.10" vType="type1" speedFactor="1.16" vaporized=""/>
    <tripinfo id="f_0_2.30" depart="246.00" departLane="np2_nt2_0" departPos="9.25" departSpeed="0.00" departDelay="0.54" arrival="2924.00" arrivalLane="nt15_np10_0" arrivalPos="75.00" arrivalSpeed="8.91" duration="2678.00" routeLength="941.83" waitingTime="2543.00" waitingCount="9" stopTime="0.00" timeLoss="2601.63" rerouteNo="0" devices="tripinfo_f_0_2.30" vType="type1" speedFactor="1.03" vaporized=""/>
    <tripinfo id="f_0_3.21" depart="1361.00" departLane="np3_nt3_0" departPos="0.00" departSpeed="0.00" departDelay="1189.18" arrival="2953.00" arrivalLane="nt14_np11_0" arrivalPos="75.00" arrivalSpeed="9.73" duration="1592.00" routeLength="951.09" waitingTime="1387.00" waitingCount="11" stopTime="0.00" timeLoss="1506.10" rerouteNo="0" devices="tripinfo_f_0_3.21" vType="type1" speedFactor="0.93" vaporized=""/>
    <tripinfo id="f_0_0.14" depart="191.00" departLane="np13_nt13_0" departPos="29.46" departSpeed="0.00" departDelay="0.10" arrival="2978.00" arrivalLane="nt4_np5_0" arrivalPos="75.00" arrivalSpeed="19.11" duration="2787.00" routeLength="1318.43" waitingTime="2556.00" waitingCount="15" stopTime="0.00" timeLoss="2702.07" rerouteNo="0" devices="tripinfo_f_0_0.14" vType="type1" speedFactor="1.08" vaporized=""/>
    <tripinfo id="f_0_0.15" depart="205.00" departLane="np13_nt13_0" departPos="13.61" departSpeed="0.00" departDelay="0.46" arrival="2980.00" arrivalLane="nt4_np5_0" arrivalPos="75.00" arrivalSpeed="19.76" duration="2775.00" routeLength="1334.28" waitingTime="2578.00" waitingCount="16" stopTime="0.00" timeLoss="2690.91" rerouteNo="0" devices="tripinfo_f_0_0.15" vType="type1" speedFactor="1.11" vaporized=""/>
    <tripinfo id="f_0_0.16" depart="219.00" departLane="np13_nt13_0" departPos="55.21" departSpeed="0.00" departDelay="0.82" arrival="2982.00" arrivalLane="nt4_np5_0" arrivalPos="75.00" arrivalSpeed="17.58" duration="2763.00" routeLength="1292.68" waitingTime="2556.00" waitingCount="14" stopTime="0.00" timeLoss="2664.52" rerouteNo="0" devices="tripinfo_f_0_0.16" vType="type1" speedFactor="0.92" vaporized=""/>
    <tripinfo id="f_0_0.17" depart="232.00" departLane="np13_nt13_0" departPos="5.62" departSpeed="0.00" departDelay="0.19" arrival="2983.00" arrivalLane="nt4_np5_0" arrivalPos="75.00" arrivalSpeed="19.87" duration="2751.00" routeLength="1342.27" waitingTime="2578.00" waitingCount="12" stopTime="0.00" timeLoss="2659.77" rerouteNo="0" devices="tripinfo_f_0_0.17" vType="type1" speedFactor="1.02" vaporized=""/>
    <tripinfo id="f_3_4.1" depart="922.00" departLane="np5_nt4_0" departPos="49.35" departSpeed="0.00" departDelay="0.31" arrival="2995.00" arrivalLane="nt13_np13_1" arrivalPos="67.80" arrivalSpeed="18.56" duration="2073.00" routeLength="1298.54" waitingTime="1939.00" waitingCount="8" stopTime="0.00" timeLoss="1978.06" rerouteNo="0" devices="tripinfo_f_3_4.1" vType="type1" speedFactor="0.96" vaporized=""/>
    <tripinfo id="f_3_5.4" depart="987.00" departLane="np8_nt16_0" departPos="23.49" departSpeed="0.00" departDelay="0.25" arrival="3000.00" arrivalLane="nt1_np16_0" arrivalPos="67.80" arrivalSpeed="17.83" duration="2013.00" routeLength="1324.39" waitingTime="1855.00" waitingCount="11" stopTime="0.00" timeLoss="1916.59" rerouteNo="0" devices="tripinfo_f_3_5.4" vType="type1" speedFactor="0.95" vaporized=""/>
    <tripinfo id="f_3_5.5" depart="1009.00" departLane="np8_nt16_0" departPos="3.68" departSpeed="0.00" departDelay="0.56" arrival="3004.00" arrivalLane="nt1_np16_0" arrivalPos="67.80" arrivalSpeed="20.58" duration="1995.00" routeLength="1344.20" waitingTime="1824.00" waitingCount="12" stopTime="0.00" timeLoss="1909.50" rerouteNo="0" devices="tripinfo_f_3_5.5" vType="type1" speedFactor="1.08" vaporized=""/>
    <tripinfo id="f_3_4.2" depart="944.00" departLane="np5_nt4_0" departPos="4.13" departSpeed="0.00" departDelay="0.63" arrival="3024.00" arrivalLane="nt13_np13_1" arrivalPos="67.80" arrivalSpeed="15.82" duration="2080.00" routeLength="1343.76" waitingTime="1916.00" waitingCount="11" stopTime="0.00" timeLoss="1974.46" rerouteNo="0" devices="tripinfo_f_3_4.2" vType="type1" speedFactor="0.88" vaporized=""/>