<?xml version="1.0" encoding="UTF-8"?>

<!-- generated on 2023-08-30 19:06:12 by Eclipse SUMO libsumo Version 1.18.0
<configuration xmlns:xsi="http://www.w3.org/2001/XMLSchema-instance" xsi:noNamespaceSchemaLocation="http://sumo.dlr.de/xsd/libsumoConfiguration.xsd">

    <input>
        <net-file value="/home/stefan/RESCO/./environments/arterial4x4/arterial4x4.net.xml"/>
        <route-files value="/home/stefan/RESCO/./environments/arterial4x4/arterial4x4_62.rou.xml"/>
    </input>

    <output>
        <tripinfo-output value="/home/stefan/results/RAINBOW-tr0-arterial4x4-0-drq_norm-wait_norm/tripinfo_62.xml"/>
        <tripinfo-output.write-unfinished value="true"/>
    </output>

    <processing>
        <time-to-teleport value="-1"/>
    </processing>

    <report>
        <no-warnings value="True"/>
        <no-step-log value="True"/>
    </report>

    <random_number>
        <random value="true"/>
    </random_number>

</configuration>
-->

<tripinfos xmlns:xsi="http://www.w3.org/2001/XMLSchema-instance" xsi:noNamespaceSchemaLocation="http://sumo.dlr.de/xsd/tripinfo_file.xsd">
    <tripinfo id="f_0_2.0" depart="0.00" departLane="np2_nt2_0" departPos="18.68" departSpeed="0.00" departDelay="0.00" arrival="237.00" arrivalLane="nt15_np10_0" arrivalPos="75.00" arrivalSpeed="8.26" duration="237.00" routeLength="932.40" waitingTime="128.00" waitingCount="4" stopTime="0.00" timeLoss="156.68" rerouteNo="0" devices="tripinfo_f_0_2.0" vType="type1" speedFactor="0.97" vaporized=""/>
    <tripinfo id="f_0_2.1" depart="9.00" departLane="np2_nt2_0" departPos="17.50" departSpeed="0.00" departDelay="0.82" arrival="239.00" arrivalLane="nt15_np10_0" arrivalPos="75.00" arrivalSpeed="11.13" duration="230.00" routeLength="933.58" waitingTime="126.00" waitingCount="3" stopTime="0.00" timeLoss="155.49" rerouteNo="0" devices="tripinfo_f_0_2.1" vType="type1" speedFactor="1.04" vaporized=""/>
    <tripinfo id="f_0_0.0" depart="0.00" departLane="np13_nt13_0" departPos="12.96" departSpeed="0.00" departDelay="0.00" arrival="246.00" arrivalLane="nt4_np5_0" arrivalPos="75.00" arrivalSpeed="16.00" duration="246.00" routeLength="1334.93" waitingTime="112.00" waitingCount="5" stopTime="0.00" timeLoss="144.87" rerouteNo="0" devices="tripinfo_f_0_0.0" vType="type1" speedFactor="0.91" vaporized=""/>
    <tripinfo id="f_0_0.1" depart="14.00" departLane="np13_nt13_0" departPos="34.85" departSpeed="0.00" departDelay="0.36" arrival="247.00" arrivalLane="nt4_np5_0" arrivalPos="75.00" arrivalSpeed="19.85" duration="233.00" routeLength="1313.04" waitingTime="112.00" waitingCount="6" stopTime="0.00" timeLoss="146.36" rerouteNo="0" devices="tripinfo_f_0_0.1" vType="type1" speedFactor="1.06" vaporized=""/>
    <tripinfo id="f_0_0.2" depart="28.00" departLane="np13_nt13_0" departPos="14.25" departSpeed="0.00" departDelay="0.73" arrival="273.00" arrivalLane="nt4_np5_0" arrivalPos="75.00" arrivalSpeed="19.07" duration="245.00" routeLength="1333.64" waitingTime="109.00" waitingCount="8" stopTime="0.00" timeLoss="155.73" rerouteNo="0" devices="tripinfo_f_0_0.2" vType="type1" speedFactor="1.04" vaporized=""/>
    <tripinfo id="f_0_0.3" depart="41.00" departLane="np13_nt13_0" departPos="46.17" departSpeed="0.00" departDelay="0.09" arrival="345.00" arrivalLane="nt4_np5_0" arrivalPos="75.00" arrivalSpeed="19.84" duration="304.00" routeLength="1301.72" waitingTime="184.00" waitingCount="7" stopTime="0.00" timeLoss="215.12" rerouteNo="0" devices="tripinfo_f_0_0.3" vType="type1" speedFactor="1.02" vaporized=""/>
    <tripinfo id="f_0_3.0" depart="0.00" departLane="np3_nt3_0" departPos="12.18" departSpeed="0.00" departDelay="0.00" arrival="355.00" arrivalLane="nt14_np11_0" arrivalPos="75.00" arrivalSpeed="11.14" duration="355.00" routeLength="938.91" waitingTime="264.00" waitingCount="4" stopTime="0.00" timeLoss="290.90" rerouteNo="0" devices="tripinfo_f_0_3.0" vType="type1" speedFactor="1.22" vaporized=""/>
    <tripinfo id="f_0_2.2" depart="17.00" departLane="np2_nt2_0" departPos="51.76" departSpeed="0.00" departDelay="0.64" arrival="421.00" arrivalLane="nt15_np10_0" arrivalPos="75.00" arrivalSpeed="12.15" duration="404.00" routeLength="899.32" waitingTime="301.00" waitingCount="5" stopTime="0.00" timeLoss="337.96" rerouteNo="0" devices="tripinfo_f_0_2.2" vType="type1" speedFactor="1.14" vaporized=""/>
    <tripinfo id="f_0_2.3" depart="25.00" departLane="np2_nt2_0" departPos="9.43" departSpeed="0.00" departDelay="0.45" arrival="424.00" arrivalLane="nt15_np10_0" arrivalPos="75.00" arrivalSpeed="9.61" duration="399.00" routeLength="941.65" waitingTime="299.00" waitingCount="4" stopTime="0.00" timeLoss="325.40" rerouteNo="0" devices="tripinfo_f_0_2.3" vType="type1" speedFactor="1.08" vaporized=""/>
    <tripinfo id="f_0_0.4" depart="55.00" departLane="np13_nt13_0" departPos="44.21" departSpeed="0.00" departDelay="0.46" arrival="432.00" arrivalLane="nt4_np5_0" arrivalPos="75.00" arrivalSpeed="21.48" duration="377.00" routeLength="1303.68" waitingTime="265.00" waitingCount="5" stopTime="0.00" timeLoss="294.82" rerouteNo="0" devices="tripinfo_f_0_0.4" vType="type1" speedFactor="1.10" vaporized=""/>
    <tripinfo id="f_0_2.4" depart="33.00" departLane="np2_nt2_0" departPos="43.19" departSpeed="0.00" departDelay="0.27" arrival="448.00" arrivalLane="nt15_np10_0" arrivalPos="75.00" arrivalSpeed="9.72" duration="415.00" routeLength="907.89" waitingTime="305.00" waitingCount="6" stopTime="0.00" timeLoss="339.01" rerouteNo="0" devices="tripinfo_f_0_2.4" vType="type1" speedFactor="1.01" vaporized=""/>
    <tripinfo id="f_0_2.5" depart="41.00" departLane="np2_nt2_0" departPos="50.08" departSpeed="0.00" departDelay="0.09" arrival="451.00" arrivalLane="nt15_np10_0" arrivalPos="75.00" arrivalSpeed="8.48" duration="410.00" routeLength="901.00" waitingTime="285.00" waitingCount="6" stopTime="0.00" timeLoss="321.80" rerouteNo="0" devices="tripinfo_f_0_2.5" vType="type1" speedFactor="0.86" vaporized=""/>
    <tripinfo id="f_0_1.0" depart="0.00" departLane="np16_nt1_0" departPos="48.57" departSpeed="0.00" departDelay="0.00" arrival="465.00" arrivalLane="nt16_np8_0" arrivalPos="75.00" arrivalSpeed="16.66" duration="465.00" routeLength="1299.31" waitingTime="314.00" waitingCount="9" stopTime="0.00" timeLoss="368.17" rerouteNo="0" devices="tripinfo_f_0_1.0" vType="type1" speedFactor="0.94" vaporized=""/>
    <tripinfo id="f_0_2.6" depart="50.00" departLane="np2_nt2_0" departPos="17.61" departSpeed="0.00" departDelay="0.91" arrival="559.00" arrivalLane="nt15_np10_0" arrivalPos="75.00" arrivalSpeed="9.31" duration="509.00" routeLength="933.47" waitingTime="368.00" waitingCount="8" stopTime="0.00" timeLoss="417.35" rerouteNo="0" devices="tripinfo_f_0_2.6" vType="type1" speedFactor="0.85" vaporized=""/>
    <tripinfo id="f_0_2.7" depart="58.00" departLane="np2_nt2_0" departPos="36.68" departSpeed="0.00" departDelay="0.73" arrival="577.00" arrivalLane="nt15_np10_0" arrivalPos="75.00" arrivalSpeed="10.20" duration="519.00" routeLength="914.40" waitingTime="377.00" waitingCount="9" stopTime="0.00" timeLoss="446.56" rerouteNo="0" devices="tripinfo_f_0_2.7" vType="type1" speedFactor="1.07" vaporized=""/>
    <tripinfo id="f_0_0.5" depart="69.00" departLane="np13_nt13_0" departPos="16.20" departSpeed="0.00" departDelay="0.82" arrival="583.00" arrivalLane="nt4_np5_0" arrivalPos="75.00" arrivalSpeed="18.59" duration="514.00" routeLength="1331.69" waitingTime="387.00" waitingCount="6" stopTime="0.00" timeLoss="424.21" rerouteNo="0" devices="tripinfo_f_0_0.5" vType="type1" speedFactor="1.03" vaporized=""/>
    <tripinfo id="f_0_0.6" depart="82.00" departLane="np13_nt13_0" departPos="19.14" departSpeed="0.00" departDelay="0.18" arrival="586.00" arrivalLane="nt4_np5_0" arrivalPos="75.00" arrivalSpeed="18.79" duration="504.00" routeLength="1328.75" waitingTime="364.00" waitingCount="6" stopTime="0.00" timeLoss="409.27" rerouteNo="0" devices="tripinfo_f_0_0.6" vType="type1" speedFactor="0.97" vaporized=""/>
    <tripinfo id="f_0_1.1" depart="14.00" departLane="np16_nt1_0" departPos="5.55" departSpeed="0.00" departDelay="0.36" arrival="590.00" arrivalLane="nt16_np8_0" arrivalPos="75.00" arrivalSpeed="16.97" duration="576.00" routeLength="1342.33" waitingTime="403.00" waitingCount="11" stopTime="0.00" timeLoss="479.61" rerouteNo="0" devices="tripinfo_f_0_1.1" vType="type1" speedFactor="0.96" vaporized=""/>
    <tripinfo id="f_0_2.8" depart="66.00" departLane="np2_nt2_0" departPos="4.46" departSpeed="0.00" departDelay="0.54" arrival="598.00" arrivalLane="nt15_np10_0" arrivalPos="75.00" arrivalSpeed="9.50" duration="532.00" routeLength="946.62" waitingTime="372.00" waitingCount="10" stopTime="0.00" timeLoss="449.87" rerouteNo="0" devices="tripinfo_f_0_2.8" vType="type1" speedFactor="0.97" vaporized=""/>
    <tripinfo id="f_0_2.9" depart="74.00" departLane="np2_nt2_0" departPos="44.29" departSpeed="0.00" departDelay="0.36" arrival="600.00" arrivalLane="nt15_np10_0" arrivalPos="75.00" arrivalSpeed="8.03" duration="526.00" routeLength="906.79" waitingTime="363.00" waitingCount="10" stopTime="0.00" timeLoss="442.71" rerouteNo="0" devices="tripinfo_f_0_2.9" vType="type1" speedFactor="0.91" vaporized=""/>
    <tripinfo id="f_0_1.2" depart="28.00" departLane="np16_nt1_0" departPos="37.21" departSpeed="0.00" departDelay="0.73" arrival="613.00" arrivalLane="nt16_np8_0" arrivalPos="75.00" arrivalSpeed="18.51" duration="585.00" routeLength="1310.67" waitingTime="397.00" waitingCount="11" stopTime="0.00" timeLoss="494.74" rerouteNo="0" devices="tripinfo_f_0_1.2" vType="type1" speedFactor="1.01" vaporized=""/>
    <tripinfo id="f_0_1.3" depart="41.00" departLane="np16_nt1_0" departPos="24.03" departSpeed="0.00" departDelay="0.09" arrival="618.00" arrivalLane="nt16_np8_0" arrivalPos="75.00" arrivalSpeed="21.09" duration="577.00" routeLength="1323.85" waitingTime="380.00" waitingCount="11" stopTime="0.00" timeLoss="492.51" rerouteNo="0" devices="tripinfo_f_0_1.3" vType="type1" speedFactor="1.09" vaporized=""/>
    <tripinfo id="f_0_3.1" depart="9.00" departLane="np3_nt3_0" departPos="41.95" departSpeed="0.00" departDelay="0.82" arrival="638.00" arrivalLane="nt14_np11_0" arrivalPos="75.00" arrivalSpeed="9.89" duration="629.00" routeLength="909.14" waitingTime="511.00" waitingCount="6" stopTime="0.00" timeLoss="547.55" rerouteNo="0" devices="tripinfo_f_0_3.1" vType="type1" speedFactor="0.93" vaporized=""/>
    <tripinfo id="f_0_0.7" depart="96.00" departLane="np13_nt13_0" departPos="3.54" departSpeed="0.00" departDelay="0.55" arrival="638.00" arrivalLane="nt4_np5_0" arrivalPos="75.00" arrivalSpeed="19.81" duration="542.00" routeLength="1344.35" waitingTime="394.00" waitingCount="9" stopTime="0.00" timeLoss="454.41" rerouteNo="0" devices="tripinfo_f_0_0.7" vType="type1" speedFactor="1.06" vaporized=""/>
    <tripinfo id="f_0_3.2" depart="17.00" departLane="np3_nt3_0" departPos="45.23" departSpeed="0.00" departDelay="0.64" arrival="646.00" arrivalLane="nt14_np11_0" arrivalPos="75.00" arrivalSpeed="10.54" duration="629.00" routeLength="905.86" waitingTime="525.00" waitingCount="8" stopTime="0.00" timeLoss="563.38" rerouteNo="0" devices="tripinfo_f_0_3.2" vType="type1" speedFactor="1.15" vaporized=""/>
    <tripinfo id="f_0_3.3" depart="25.00" departLane="np3_nt3_0" departPos="16.91" departSpeed="0.00" departDelay="0.45" arrival="654.00" arrivalLane="nt14_np11_0" arrivalPos="75.00" arrivalSpeed="10.17" duration="629.00" routeLength="934.18" waitingTime="507.00" waitingCount="7" stopTime="0.00" timeLoss="547.49" rerouteNo="0" devices="tripinfo_f_0_3.3" vType="type1" speedFactor="0.96" vaporized=""/>
    <tripinfo id="f_0_0.8" depart="110.00" departLane="np13_nt13_0" departPos="26.99" departSpeed="0.00" departDelay="0.91" arrival="674.00" arrivalLane="nt4_np5_0" arrivalPos="75.00" arrivalSpeed="16.86" duration="564.00" routeLength="1320.90" waitingTime="402.00" waitingCount="10" stopTime="0.00" timeLoss="465.28" rerouteNo="0" devices="tripinfo_f_0_0.8" vType="type1" speedFactor="0.93" vaporized=""/>
    <tripinfo id="f_0_0.9" depart="123.00" departLane="np13_nt13_0" departPos="5.36" departSpeed="0.00" departDelay="0.28" arrival="676.00" arrivalLane="nt4_np5_0" arrivalPos="75.00" arrivalSpeed="18.27" duration="553.00" routeLength="1342.53" waitingTime="380.00" waitingCount="12" stopTime="0.00" timeLoss="461.02" rerouteNo="0" devices="tripinfo_f_0_0.9" vType="type1" speedFactor="1.01" vaporized=""/>
    <tripinfo id="f_0_2.10" depart="82.00" departLane="np2_nt2_0" departPos="3.90" departSpeed="0.00" departDelay="0.18" arrival="682.00" arrivalLane="nt15_np10_0" arrivalPos="75.00" arrivalSpeed="9.94" duration="600.00" routeLength="947.18" waitingTime="430.00" waitingCount="12" stopTime="0.00" timeLoss="528.16" rerouteNo="0" devices="tripinfo_f_0_2.10" vType="type1" speedFactor="1.11" vaporized=""/>
    <tripinfo id="f_0_2.11" depart="90.00" departLane="np2_nt2_0" departPos="30.98" departSpeed="0.00" departDelay="0.00" arrival="684.00" arrivalLane="nt15_np10_0" arrivalPos="75.00" arrivalSpeed="11.65" duration="594.00" routeLength="920.10" waitingTime="427.00" waitingCount="10" stopTime="0.00" timeLoss="522.04" rerouteNo="0" devices="tripinfo_f_0_2.11" vType="type1" speedFactor="1.08" vaporized=""/>
    <tripinfo id="f_0_0.10" depart="137.00" departLane="np13_nt13_0" departPos="0.00" departSpeed="0.00" departDelay="0.64" arrival="698.00" arrivalLane="nt4_np5_0" arrivalPos="75.00" arrivalSpeed="19.37" duration="561.00" routeLength="1347.89" waitingTime="374.00" waitingCount="12" stopTime="0.00" timeLoss="474.35" rerouteNo="0" devices="tripinfo_f_0_0.10" vType="type1" speedFactor="1.08" vaporized=""/>
    <tripinfo id="f_0_0.11" depart="150.00" departLane="np13_nt13_0" departPos="35.99" departSpeed="0.00" departDelay="0.00" arrival="700.00" arrivalLane="nt4_np5_0" arrivalPos="75.00" arrivalSpeed="16.01" duration="550.00" routeLength="1311.90" waitingTime="349.00" waitingCount="13" stopTime="0.00" timeLoss="442.92" rerouteNo="0" devices="tripinfo_f_0_0.11" vType="type1" speedFactor="0.85" vaporized=""/>
    <tripinfo id="f_0_0.12" depart="164.00" departLane="np13_nt13_0" departPos="25.01" departSpeed="0.00" departDelay="0.37" arrival="774.00" arrivalLane="nt4_np5_0" arrivalPos="75.00" arrivalSpeed="19.11" duration="610.00" routeLength="1322.88" waitingTime="451.00" waitingCount="11" stopTime="0.00" timeLoss="516.71" rerouteNo="0" devices="tripinfo_f_0_0.12" vType="type1" speedFactor="0.99" vaporized=""/>
    <tripinfo id="f_0_0.13" depart="178.00" departLane="np13_nt13_0" departPos="29.20" departSpeed="0.00" departDelay="0.73" arrival="775.00" arrivalLane="nt4_np5_0" arrivalPos="75.00" arrivalSpeed="18.90" duration="597.00" routeLength="1318.69" waitingTime="428.00" waitingCount="10" stopTime="0.00" timeLoss="500.77" rerouteNo="0" devices="tripinfo_f_0_0.13" vType="type1" speedFactor="0.95" vaporized=""/>
    <tripinfo id="f_0_2.12" depart="99.00" departLane="np2_nt2_0" departPos="40.17" departSpeed="0.00" departDelay="0.82" arrival="797.00" arrivalLane="nt15_np10_0" arrivalPos="75.00" arrivalSpeed="10.09" duration="698.00" routeLength="910.91" waitingTime="527.00" waitingCount="11" stopTime="0.00" timeLoss="628.15" rerouteNo="0" devices="tripinfo_f_0_2.12" vType="type1" speedFactor="1.10" vaporized=""/>
    <tripinfo id="f_0_3.4" depart="33.00" departLane="np3_nt3_0" departPos="13.71" departSpeed="0.00" departDelay="0.27" arrival="805.00" arrivalLane="nt14_np11_0" arrivalPos="75.00" arrivalSpeed="10.37" duration="772.00" routeLength="937.38" waitingTime="646.00" waitingCount="8" stopTime="0.00" timeLoss="700.36" rerouteNo="0" devices="tripinfo_f_0_3.4" vType="type1" speedFactor="1.10" vaporized=""/>
    <tripinfo id="f_0_3.5" depart="41.00" departLane="np3_nt3_0" departPos="21.82" departSpeed="0.00" departDelay="0.09" arrival="808.00" arrivalLane="nt14_np11_0" arrivalPos="75.00" arrivalSpeed="11.74" duration="767.00" routeLength="929.27" waitingTime="640.00" waitingCount="9" stopTime="0.00" timeLoss="695.02" rerouteNo="0" devices="tripinfo_f_0_3.5" vType="type1" speedFactor="1.08" vaporized=""/>
    <tripinfo id="f_0_3.6" depart="50.00" departLane="np3_nt3_0" departPos="9.13" departSpeed="0.00" departDelay="0.91" arrival="927.00" arrivalLane="nt14_np11_0" arrivalPos="75.00" arrivalSpeed="10.48" duration="877.00" routeLength="941.96" waitingTime="731.00" waitingCount="10" stopTime="0.00" timeLoss="804.68" rerouteNo="0" devices="tripinfo_f_0_3.6" vType="type1" speedFactor="1.09" vaporized=""/>
    <tripinfo id="f_0_3.7" depart="58.00" departLane="np3_nt3_0" departPos="0.00" departSpeed="0.00" departDelay="0.73" arrival="937.00" arrivalLane="nt14_np11_0" arrivalPos="75.00" arrivalSpeed="11.33" duration="879.00" routeLength="951.09" waitingTime="723.00" waitingCount="12" stopTime="0.00" timeLoss="801.79" rerouteNo="0" devices="tripinfo_f_0_3.7" vType="type1" speedFactor="1.04" vaporized=""/>
    <tripinfo id="f_0_3.8" depart="66.00" departLane="np3_nt3_0" departPos="0.00" departSpeed="0.00" departDelay="0.54" arrival="939.00" arrivalLane="nt14_np11_0" arrivalPos="75.00" arrivalSpeed="10.28" duration="873.00" routeLength="951.09" waitingTime="702.00" waitingCount="13" stopTime="0.00" timeLoss="799.16" rerouteNo="0" devices="tripinfo_f_0_3.8" vType="type1" speedFactor="1.08" vaporized=""/>
    <tripinfo id="f_0_3.9" depart="238.00" departLane="np3_nt3_0" departPos="0.00" departSpeed="0.00" departDelay="164.36" arrival="941.00" arrivalLane="nt14_np11_0" arrivalPos="75.00" arrivalSpeed="9.54" duration="703.00" routeLength="951.09" waitingTime="529.00" waitingCount="13" stopTime="0.00" timeLoss="627.32" rerouteNo="0" devices="tripinfo_f_0_3.9" vType="type1" speedFactor="1.06" vaporized=""/>
    <tripinfo id="f_0_2.13" depart="107.00" departLane="np2_nt2_0" departPos="25.17" departSpeed="0.00" departDelay="0.63" arrival="1002.00" arrivalLane="nt15_np10_0" arrivalPos="75.00" arrivalSpeed="10.73" duration="895.00" routeLength="925.91" waitingTime="745.00" waitingCount="11" stopTime="0.00" timeLoss="817.18" rerouteNo="0" devices="tripinfo_f_0_2.13" vType="type1" speedFactor="1.00" vaporized=""/>
    <tripinfo id="f_0_2.14" depart="115.00" departLane="np2_nt2_0" departPos="45.78" departSpeed="0.00" departDelay="0.45" arrival="1037.00" arrivalLane="nt15_np10_0" arrivalPos="75.00" arrivalSpeed="10.75" duration="922.00" routeLength="905.30" waitingTime="763.00" waitingCount="12" stopTime="0.00" timeLoss="844.63" rerouteNo="0" devices="tripinfo_f_0_2.14" vType="type1" speedFactor="0.98" vaporized=""/>
    <tripinfo id="f_0_3.10" depart="263.00" departLane="np3_nt3_0" departPos="0.00" departSpeed="0.00" departDelay="181.18" arrival="1073.00" arrivalLane="nt14_np11_0" arrivalPos="75.00" arrivalSpeed="10.18" duration="810.00" routeLength="951.09" waitingTime="639.00" waitingCount="12" stopTime="0.00" timeLoss="725.69" rerouteNo="0" devices="tripinfo_f_0_3.10" vType="type1" speedFactor="0.95" vaporized=""/>
    <tripinfo id="f_0_2.15" depart="123.00" departLane="np2_nt2_0" departPos="53.78" departSpeed="0.00" departDelay="0.27" arrival="1116.00" arrivalLane="nt15_np10_0" arrivalPos="75.00" arrivalSpeed="11.77" duration="993.00" routeLength="897.30" waitingTime="836.00" waitingCount="15" stopTime="0.00" timeLoss="925.95" rerouteNo="0" devices="tripinfo_f_0_2.15" vType="type1" speedFactor="1.12" vaporized=""/>
    <tripinfo id="f_0_2.16" depart="131.00" departLane="np2_nt2_0" departPos="58.37" departSpeed="0.00" departDelay="0.09" arrival="1118.00" arrivalLane="nt15_np10_0" arrivalPos="75.00" arrivalSpeed="10.92" duration="987.00" routeLength="892.71" waitingTime="826.00" waitingCount="15" stopTime="0.00" timeLoss="923.01" rerouteNo="0" devices="tripinfo_f_0_2.16" vType="type1" speedFactor="1.16" vaporized=""/>
    <tripinfo id="f_0_3.11" depart="338.00" departLane="np3_nt3_0" departPos="0.00" departSpeed="0.00" departDelay="248.00" arrival="1132.00" arrivalLane="nt14_np11_0" arrivalPos="75.00" arrivalSpeed="11.12" duration="794.00" routeLength="951.09" waitingTime="625.00" waitingCount="11" stopTime="0.00" timeLoss="715.97" rerouteNo="0" devices="tripinfo_f_0_3.11" vType="type1" speedFactor="1.03" vaporized=""/>
    <tripinfo id="f_0_3.12" depart="348.00" departLane="np3_nt3_0" departPos="0.00" departSpeed="0.00" departDelay="249.82" arrival="1134.00" arrivalLane="nt14_np11_0" arrivalPos="75.00" arrivalSpeed="9.07" duration="786.00" routeLength="951.09" waitingTime="625.00" waitingCount="9" stopTime="0.00" timeLoss="709.68" rerouteNo="0" devices="tripinfo_f_0_3.12" vType="type1" speedFactor="1.05" vaporized=""/>
    <tripinfo id="f_0_3.13" depart="350.00" departLane="np3_nt3_0" departPos="0.00" departSpeed="0.00" departDelay="243.63" arrival="1222.00" arrivalLane="nt14_np11_0" arrivalPos="75.00" arrivalSpeed="9.81" duration="872.00" routeLength="951.09" waitingTime="702.00" waitingCount="9" stopTime="0.00" timeLoss="793.74" rerouteNo="0" devices="tripinfo_f_0_3.13" vType="type1" speedFactor="1.03" vaporized=""/>
    <tripinfo id="f_0_3.14" depart="352.00" departLane="np3_nt3_0" departPos="0.29" departSpeed="0.00" departDelay="237.45" arrival="1226.00" arrivalLane="nt14_np11_0" arrivalPos="75.00" arrivalSpeed="8.62" duration="874.00" routeLength="950.80" waitingTime="693.00" waitingCount="10" stopTime="0.00" timeLoss="791.11" rerouteNo="0" devices="tripinfo_f_0_3.14" vType="type1" speedFactor="0.97" vaporized=""/>
    <tripinfo id="f_0_2.17" depart="140.00" departLane="np2_nt2_0" departPos="39.55" departSpeed="0.00" departDelay="0.91" arrival="1258.00" arrivalLane="nt15_np10_0" arrivalPos="75.00" arrivalSpeed="9.70" duration="1118.00" routeLength="911.53" waitingTime="936.00" waitingCount="19" stopTime="0.00" timeLoss="1037.38" rerouteNo="0" devices="tripinfo_f_0_2.17" vType="type1" speedFactor="0.96" vaporized=""/>
    <tripinfo id="f_0_2.18" depart="148.00" departLane="np2_nt2_0" departPos="48.36" departSpeed="0.00" departDelay="0.72" arrival="1259.00" arrivalLane="nt15_np10_0" arrivalPos="75.00" arrivalSpeed="9.71" duration="1111.00" routeLength="902.72" waitingTime="950.00" waitingCount="17" stopTime="0.00" timeLoss="1041.91" rerouteNo="0" devices="tripinfo_f_0_2.18" vType="type1" speedFactor="1.10" vaporized=""/>
    <tripinfo id="f_3_6.0" depart="900.00" departLane="np10_nt15_0" departPos="50.81" departSpeed="0.00" departDelay="0.00" arrival="1330.00" arrivalLane="nt2_np2_0" arrivalPos="64.60" arrivalSpeed="11.74" duration="430.00" routeLength="900.27" waitingTime="333.00" waitingCount="4" stopTime="0.00" timeLoss="360.48" rerouteNo="0" devices="tripinfo_f_3_6.0" vType="type1" speedFactor="1.09" vaporized=""/>
    <tripinfo id="f_3_6.1" depart="913.00" departLane="np10_nt15_0" departPos="47.90" departSpeed="0.00" departDelay="0.00" arrival="1333.00" arrivalLane="nt2_np2_0" arrivalPos="64.60" arrivalSpeed="9.99" duration="420.00" routeLength="903.18" waitingTime="317.00" waitingCount="6" stopTime="0.00" timeLoss="349.29" rerouteNo="0" devices="tripinfo_f_3_6.1" vType="type1" speedFactor="1.07" vaporized=""/>
    <tripinfo id="f_3_5.0" depart="900.00" departLane="np8_nt16_0" departPos="69.25" departSpeed="0.00" departDelay="0.00" arrival="1356.00" arrivalLane="nt1_np16_0" arrivalPos="67.80" arrivalSpeed="21.58" duration="456.00" routeLength="1278.63" waitingTime="339.00" waitingCount="5" stopTime="0.00" timeLoss="373.54" rerouteNo="0" devices="tripinfo_f_3_5.0" vType="type1" speedFactor="1.09" vaporized=""/>
    <tripinfo id="f_3_6.2" depart="926.00" departLane="np10_nt15_0" departPos="65.05" departSpeed="0.00" departDelay="0.01" arrival="1425.00" arrivalLane="nt2_np2_0" arrivalPos="64.60" arrivalSpeed="11.77" duration="499.00" routeLength="886.03" waitingTime="399.00" waitingCount="9" stopTime="0.00" timeLoss="438.32" rerouteNo="0" devices="tripinfo_f_3_6.2" vType="type1" speedFactor="1.22" vaporized=""/>
    <tripinfo id="f_0_3.15" depart="355.00" departLane="np3_nt3_0" departPos="0.35" departSpeed="0.00" departDelay="232.27" arrival="1434.00" arrivalLane="nt14_np11_0" arrivalPos="75.00" arrivalSpeed="9.13" duration="1079.00" routeLength="950.74" waitingTime="879.00" waitingCount="12" stopTime="0.00" timeLoss="989.47" rerouteNo="0" devices="tripinfo_f_0_3.15" vType="type1" speedFactor="0.90" vaporized=""/>
    <tripinfo id="f_0_3.16" depart="362.00" departLane="np3_nt3_0" departPos="0.00" departSpeed="0.00" departDelay="231.09" arrival="1436.00" arrivalLane="nt14_np11_0" arrivalPos="75.00" arrivalSpeed="9.37" duration="1074.00" routeLength="951.09" waitingTime="881.00" waitingCount="11" stopTime="0.00" timeLoss="987.87" rerouteNo="0" devices="tripinfo_f_0_3.16" vType="type1" speedFactor="0.93" vaporized=""/>
    <tripinfo id="f_0_3.17" depart="366.00" departLane="np3_nt3_0" departPos="0.00" departSpeed="0.00" departDelay="226.91" arrival="1438.00" arrivalLane="nt14_np11_0" arrivalPos="75.00" arrivalSpeed="10.48" duration="1072.00" routeLength="951.09" waitingTime="875.00" waitingCount="12" stopTime="0.00" timeLoss="988.40" rerouteNo="0" devices="tripinfo_f_0_3.17" vType="type1" speedFactor="0.96" vaporized=""/>
    <tripinfo id="f_0_3.18" depart="368.00" departLane="np3_nt3_0" departPos="0.00" departSpeed="0.00" departDelay="220.72" arrival="1440.00" arrivalLane="nt14_np11_0" arrivalPos="75.00" arrivalSpeed="10.41" duration="1072.00" routeLength="951.09" waitingTime="894.00" waitingCount="9" stopTime="0.00" timeLoss="1000.16" rerouteNo="0" devices="tripinfo_f_0_3.18" vType="type1" speedFactor="1.12" vaporized=""/>
    <tripinfo id="f_0_3.19" depart="371.00" departLane="np3_nt3_0" departPos="0.00" departSpeed="0.00" departDelay="215.54" arrival="1468.00" arrivalLane="nt14_np11_0" arrivalPos="75.00" arrivalSpeed="8.61" duration="1097.00" routeLength="951.09" waitingTime="911.00" waitingCount="10" stopTime="0.00" timeLoss="1013.95" rerouteNo="0" devices="tripinfo_f_0_3.19" vType="type1" speedFactor="0.97" vaporized=""/>
    <tripinfo id="f_0_2.19" depart="156.00" departLane="np2_nt2_0" departPos="11.02" departSpeed="0.00" departDelay="0.54" arrival="1489.00" arrivalLane="nt15_np10_0" arrivalPos="75.00" arrivalSpeed="7.90" duration="1333.00" routeLength="940.06" waitingTime="1172.00" waitingCount="12" stopTime="0.00" timeLoss="1242.03" rerouteNo="0" devices="tripinfo_f_0_2.19" vType="type1" speedFactor="0.87" vaporized=""/>
    <tripinfo id="f_0_1.4" depart="55.00" departLane="np16_nt1_0" departPos="57.75" departSpeed="0.00" departDelay="0.46" arrival="1500.00" arrivalLane="nt16_np8_0" arrivalPos="75.00" arrivalSpeed="19.76" duration="1445.00" routeLength="1290.13" waitingTime="1251.00" waitingCount="15" stopTime="0.00" timeLoss="1355.34" rerouteNo="0" devices="tripinfo_f_0_1.4" vType="type1" speedFactor="1.01" vaporized=""/>
    <tripinfo id="f_3_5.1" depart="922.00" departLane="np8_nt16_0" departPos="51.98" departSpeed="0.00" departDelay="0.31" arrival="1528.00" arrivalLane="nt1_np16_0" arrivalPos="67.80" arrivalSpeed="19.67" duration="606.00" routeLength="1295.90" waitingTime="473.00" waitingCount="6" stopTime="0.00" timeLoss="515.59" rerouteNo="0" devices="tripinfo_f_3_5.1" vType="type1" speedFactor="1.01" vaporized=""/>
    <tripinfo id="f_3_5.2" depart="944.00" departLane="np8_nt16_0" departPos="7.52" departSpeed="0.00" departDelay="0.63" arrival="1533.00" arrivalLane="nt1_np16_0" arrivalPos="67.80" arrivalSpeed="18.40" duration="589.00" routeLength="1340.36" waitingTime="447.00" waitingCount="9" stopTime="0.00" timeLoss="496.51" rerouteNo="0" devices="tripinfo_f_3_5.2" vType="type1" speedFactor="1.00" vaporized=""/>
    <tripinfo id="f_0_2.20" depart="164.00" departLane="np2_nt2_0" departPos="16.39" departSpeed="0.00" departDelay="0.36" arrival="1537.00" arrivalLane="nt15_np10_0" arrivalPos="75.00" arrivalSpeed="10.09" duration="1373.00" routeLength="934.69" waitingTime="1200.00" waitingCount="16" stopTime="0.00" timeLoss="1294.26" rerouteNo="0" devices="tripinfo_f_0_2.20" vType="type1" speedFactor="1.00" vaporized=""/>
    <tripinfo id="f_0_2.21" depart="172.00" departLane="np2_nt2_0" departPos="11.30" departSpeed="0.00" departDelay="0.18" arrival="1539.00" arrivalLane="nt15_np10_0" arrivalPos="75.00" arrivalSpeed="10.53" duration="1367.00" routeLength="939.78" waitingTime="1188.00" waitingCount="15" stopTime="0.00" timeLoss="1286.01" rerouteNo="0" devices="tripinfo_f_0_2.21" vType="type1" speedFactor="0.98" vaporized=""/>
    <tripinfo id="f_0_2.22" depart="180.00" departLane="np2_nt2_0" departPos="11.50" departSpeed="0.00" departDelay="0.00" arrival="1541.00" arrivalLane="nt15_np10_0" arrivalPos="75.00" arrivalSpeed="10.77" duration="1361.00" routeLength="939.58" waitingTime="1175.00" waitingCount="15" stopTime="0.00" timeLoss="1281.78" rerouteNo="0" devices="tripinfo_f_0_2.22" vType="type1" speedFactor="1.00" vaporized=""/>
    <tripinfo id="f_0_2.23" depart="189.00" departLane="np2_nt2_0" departPos="41.27" departSpeed="0.00" departDelay="0.81" arrival="1543.00" arrivalLane="nt15_np10_0" arrivalPos="75.00" arrivalSpeed="9.24" duration="1354.00" routeLength="909.81" waitingTime="1165.00" waitingCount="17" stopTime="0.00" timeLoss="1280.93" rerouteNo="0" devices="tripinfo_f_0_2.23" vType="type1" speedFactor="1.05" vaporized=""/>
    <tripinfo id="f_3_5.3" depart="966.00" departLane="np8_nt16_0" departPos="26.33" departSpeed="0.00" departDelay="0.94" arrival="1547.00" arrivalLane="nt1_np16_0" arrivalPos="67.80" arrivalSpeed="16.41" duration="581.00" routeLength="1321.55" waitingTime="423.00" waitingCount="10" stopTime="0.00" timeLoss="478.67" rerouteNo="0" devices="tripinfo_f_3_5.3" vType="type1" speedFactor="0.90" vaporized=""/>
    <tripinfo id="f_3_6.3" depart="939.00" departLane="np10_nt15_0" departPos="45.03" departSpeed="0.00" departDelay="0.01" arrival="1566.00" arrivalLane="nt2_np2_0" arrivalPos="64.60" arrivalSpeed="11.45" duration="627.00" routeLength="906.05" waitingTime="509.00" waitingCount="11" stopTime="0.00" timeLoss="558.03" rerouteNo="0" devices="tripinfo_f_3_6.3" vType="type1" speedFactor="1.10" vaporized=""/>