<?xml version="1.0" encoding="UTF-8"?>

<!-- generated on 2023-08-30 18:49:55 by Eclipse SUMO libsumo Version 1.18.0
<configuration xmlns:xsi="http://www.w3.org/2001/XMLSchema-instance" xsi:noNamespaceSchemaLocation="http://sumo.dlr.de/xsd/libsumoConfiguration.xsd">

    <input>
        <net-file value="/home/stefan/RESCO/./environments/arterial4x4/arterial4x4.net.xml"/>
        <route-files value="/home/stefan/RESCO/./environments/arterial4x4/arterial4x4_49.rou.xml"/>
    </input>

    <output>
        <tripinfo-output value="/home/stefan/results/RAINBOW-tr0-arterial4x4-0-drq_norm-wait_norm/tripinfo_49.xml"/>
        <tripinfo-output.write-unfinished value="true"/>
    </output>

    <processing>
        <time-to-teleport value="-1"/>
    </processing>

    <report>
        <no-warnings value="True"/>
        <no-step-log value="True"/>
    </report>

    <random_number>
        <random value="true"/>
    </random_number>

</configuration>
-->

<tripinfos xmlns:xsi="http://www.w3.org/2001/XMLSchema-instance" xsi:noNamespaceSchemaLocation="http://sumo.dlr.de/xsd/tripinfo_file.xsd">
    <tripinfo id="f_0_0.0" depart="0.00" departLane="np13_nt13_0" departPos="3.61" departSpeed="0.00" departDelay="0.00" arrival="143.00" arrivalLane="nt4_np5_0" arrivalPos="75.00" arrivalSpeed="21.01" duration="143.00" routeLength="1344.28" waitingTime="25.00" waitingCount="4" stopTime="0.00" timeLoss="57.48" rerouteNo="0" devices="tripinfo_f_0_0.0" vType="type1" speedFactor="1.09" vaporized=""/>
    <tripinfo id="f_0_3.0" depart="0.00" departLane="np3_nt3_0" departPos="19.63" departSpeed="0.00" departDelay="0.00" arrival="168.00" arrivalLane="nt14_np11_0" arrivalPos="75.00" arrivalSpeed="9.35" duration="168.00" routeLength="931.46" waitingTime="56.00" waitingCount="5" stopTime="0.00" timeLoss="83.20" rerouteNo="0" devices="tripinfo_f_0_3.0" vType="type1" speedFactor="0.92" vaporized=""/>
    <tripinfo id="f_0_3.1" depart="9.00" departLane="np3_nt3_0" departPos="22.30" departSpeed="0.00" departDelay="0.82" arrival="188.00" arrivalLane="nt14_np11_0" arrivalPos="75.00" arrivalSpeed="12.83" duration="179.00" routeLength="928.79" waitingTime="79.00" waitingCount="5" stopTime="0.00" timeLoss="112.93" rerouteNo="0" devices="tripinfo_f_0_3.1" vType="type1" speedFactor="1.18" vaporized=""/>
    <tripinfo id="f_0_3.2" depart="17.00" departLane="np3_nt3_0" departPos="15.58" departSpeed="0.00" departDelay="0.64" arrival="262.00" arrivalLane="nt14_np11_0" arrivalPos="75.00" arrivalSpeed="10.74" duration="245.00" routeLength="935.51" waitingTime="139.00" waitingCount="8" stopTime="0.00" timeLoss="170.81" rerouteNo="0" devices="tripinfo_f_0_3.2" vType="type1" speedFactor="1.06" vaporized=""/>
    <tripinfo id="f_0_3.3" depart="25.00" departLane="np3_nt3_0" departPos="39.57" departSpeed="0.00" departDelay="0.45" arrival="264.00" arrivalLane="nt14_np11_0" arrivalPos="75.00" arrivalSpeed="10.53" duration="239.00" routeLength="911.52" waitingTime="125.00" waitingCount="7" stopTime="0.00" timeLoss="172.48" rerouteNo="0" devices="tripinfo_f_0_3.3" vType="type1" speedFactor="1.15" vaporized=""/>
    <tripinfo id="f_0_2.0" depart="0.00" departLane="np2_nt2_0" departPos="53.57" departSpeed="0.00" departDelay="0.00" arrival="283.00" arrivalLane="nt15_np10_0" arrivalPos="75.00" arrivalSpeed="8.40" duration="283.00" routeLength="897.51" waitingTime="176.00" waitingCount="4" stopTime="0.00" timeLoss="201.12" rerouteNo="0" devices="tripinfo_f_0_2.0" vType="type1" speedFactor="0.91" vaporized=""/>
    <tripinfo id="f_0_2.1" depart="9.00" departLane="np2_nt2_0" departPos="19.42" departSpeed="0.00" departDelay="0.82" arrival="286.00" arrivalLane="nt15_np10_0" arrivalPos="75.00" arrivalSpeed="9.11" duration="277.00" routeLength="931.66" waitingTime="154.00" waitingCount="5" stopTime="0.00" timeLoss="184.70" rerouteNo="0" devices="tripinfo_f_0_2.1" vType="type1" speedFactor="0.84" vaporized=""/>
    <tripinfo id="f_0_3.4" depart="33.00" departLane="np3_nt3_0" departPos="36.36" departSpeed="0.00" departDelay="0.27" arrival="313.00" arrivalLane="nt14_np11_0" arrivalPos="75.00" arrivalSpeed="9.90" duration="280.00" routeLength="914.73" waitingTime="158.00" waitingCount="6" stopTime="0.00" timeLoss="197.13" rerouteNo="0" devices="tripinfo_f_0_3.4" vType="type1" speedFactor="0.93" vaporized=""/>
    <tripinfo id="f_0_3.5" depart="41.00" departLane="np3_nt3_0" departPos="42.36" departSpeed="0.00" departDelay="0.09" arrival="316.00" arrivalLane="nt14_np11_0" arrivalPos="75.00" arrivalSpeed="7.65" duration="275.00" routeLength="908.73" waitingTime="148.00" waitingCount="5" stopTime="0.00" timeLoss="190.78" rerouteNo="0" devices="tripinfo_f_0_3.5" vType="type1" speedFactor="0.90" vaporized=""/>
    <tripinfo id="f_0_0.1" depart="14.00" departLane="np13_nt13_0" departPos="26.35" departSpeed="0.00" departDelay="0.36" arrival="322.00" arrivalLane="nt4_np5_0" arrivalPos="75.00" arrivalSpeed="17.81" duration="308.00" routeLength="1321.54" waitingTime="175.00" waitingCount="6" stopTime="0.00" timeLoss="208.90" rerouteNo="0" devices="tripinfo_f_0_0.1" vType="type1" speedFactor="0.93" vaporized=""/>
    <tripinfo id="f_0_3.6" depart="50.00" departLane="np3_nt3_0" departPos="45.71" departSpeed="0.00" departDelay="0.91" arrival="329.00" arrivalLane="nt14_np11_0" arrivalPos="75.00" arrivalSpeed="7.35" duration="279.00" routeLength="905.38" waitingTime="147.00" waitingCount="6" stopTime="0.00" timeLoss="189.23" rerouteNo="0" devices="tripinfo_f_0_3.6" vType="type1" speedFactor="0.84" vaporized=""/>
    <tripinfo id="f_0_3.7" depart="58.00" departLane="np3_nt3_0" departPos="63.02" departSpeed="0.00" departDelay="0.73" arrival="331.00" arrivalLane="nt14_np11_0" arrivalPos="75.00" arrivalSpeed="12.07" duration="273.00" routeLength="888.07" waitingTime="141.00" waitingCount="6" stopTime="0.00" timeLoss="208.19" rerouteNo="0" devices="tripinfo_f_0_3.7" vType="type1" speedFactor="1.15" vaporized=""/>
    <tripinfo id="f_0_3.8" depart="66.00" departLane="np3_nt3_0" departPos="24.12" departSpeed="0.00" departDelay="0.54" arrival="356.00" arrivalLane="nt14_np11_0" arrivalPos="75.00" arrivalSpeed="11.98" duration="290.00" routeLength="926.97" waitingTime="166.00" waitingCount="8" stopTime="0.00" timeLoss="218.96" rerouteNo="0" devices="tripinfo_f_0_3.8" vType="type1" speedFactor="1.09" vaporized=""/>
    <tripinfo id="f_0_3.9" depart="74.00" departLane="np3_nt3_0" departPos="23.58" departSpeed="0.00" departDelay="0.36" arrival="360.00" arrivalLane="nt14_np11_0" arrivalPos="75.00" arrivalSpeed="10.12" duration="286.00" routeLength="927.51" waitingTime="159.00" waitingCount="7" stopTime="0.00" timeLoss="207.46" rerouteNo="0" devices="tripinfo_f_0_3.9" vType="type1" speedFactor="1.00" vaporized=""/>
    <tripinfo id="f_0_3.10" depart="82.00" departLane="np3_nt3_0" departPos="35.38" departSpeed="0.00" departDelay="0.18" arrival="378.00" arrivalLane="nt14_np11_0" arrivalPos="75.00" arrivalSpeed="9.91" duration="296.00" routeLength="915.71" waitingTime="167.00" waitingCount="8" stopTime="0.00" timeLoss="218.63" rerouteNo="0" devices="tripinfo_f_0_3.10" vType="type1" speedFactor="0.99" vaporized=""/>
    <tripinfo id="f_0_3.11" depart="90.00" departLane="np3_nt3_0" departPos="14.69" departSpeed="0.00" departDelay="0.00" arrival="393.00" arrivalLane="nt14_np11_0" arrivalPos="75.00" arrivalSpeed="7.49" duration="303.00" routeLength="936.40" waitingTime="154.00" waitingCount="9" stopTime="0.00" timeLoss="215.41" rerouteNo="0" devices="tripinfo_f_0_3.11" vType="type1" speedFactor="0.89" vaporized=""/>
    <tripinfo id="f_0_3.12" depart="99.00" departLane="np3_nt3_0" departPos="7.37" departSpeed="0.00" departDelay="0.82" arrival="395.00" arrivalLane="nt14_np11_0" arrivalPos="75.00" arrivalSpeed="8.10" duration="296.00" routeLength="943.72" waitingTime="146.00" waitingCount="8" stopTime="0.00" timeLoss="212.51" rerouteNo="0" devices="tripinfo_f_0_3.12" vType="type1" speedFactor="0.95" vaporized=""/>
    <tripinfo id="f_0_3.13" depart="107.00" departLane="np3_nt3_0" departPos="8.09" departSpeed="0.00" departDelay="0.63" arrival="407.00" arrivalLane="nt14_np11_0" arrivalPos="75.00" arrivalSpeed="10.19" duration="300.00" routeLength="943.00" waitingTime="156.00" waitingCount="10" stopTime="0.00" timeLoss="220.71" rerouteNo="0" devices="tripinfo_f_0_3.13" vType="type1" speedFactor="0.99" vaporized=""/>
    <tripinfo id="f_0_3.14" depart="115.00" departLane="np3_nt3_0" departPos="10.59" departSpeed="0.00" departDelay="0.45" arrival="410.00" arrivalLane="nt14_np11_0" arrivalPos="75.00" arrivalSpeed="9.42" duration="295.00" routeLength="940.50" waitingTime="141.00" waitingCount="8" stopTime="0.00" timeLoss="216.16" rerouteNo="0" devices="tripinfo_f_0_3.14" vType="type1" speedFactor="1.00" vaporized=""/>
    <tripinfo id="f_0_2.2" depart="17.00" departLane="np2_nt2_0" departPos="16.73" departSpeed="0.00" departDelay="0.64" arrival="471.00" arrivalLane="nt15_np10_0" arrivalPos="75.00" arrivalSpeed="11.28" duration="454.00" routeLength="934.35" waitingTime="338.00" waitingCount="6" stopTime="0.00" timeLoss="381.87" rerouteNo="0" devices="tripinfo_f_0_2.2" vType="type1" speedFactor="1.08" vaporized=""/>
    <tripinfo id="f_0_2.3" depart="25.00" departLane="np2_nt2_0" departPos="19.86" departSpeed="0.00" departDelay="0.45" arrival="475.00" arrivalLane="nt15_np10_0" arrivalPos="75.00" arrivalSpeed="9.98" duration="450.00" routeLength="931.22" waitingTime="331.00" waitingCount="5" stopTime="0.00" timeLoss="366.60" rerouteNo="0" devices="tripinfo_f_0_2.3" vType="type1" speedFactor="0.94" vaporized=""/>
    <tripinfo id="f_0_2.4" depart="33.00" departLane="np2_nt2_0" departPos="4.23" departSpeed="0.00" departDelay="0.27" arrival="521.00" arrivalLane="nt15_np10_0" arrivalPos="75.00" arrivalSpeed="9.81" duration="488.00" routeLength="946.85" waitingTime="388.00" waitingCount="7" stopTime="0.00" timeLoss="416.25" rerouteNo="0" devices="tripinfo_f_0_2.4" vType="type1" speedFactor="1.11" vaporized=""/>
    <tripinfo id="f_0_2.5" depart="41.00" departLane="np2_nt2_0" departPos="56.74" departSpeed="0.00" departDelay="0.09" arrival="525.00" arrivalLane="nt15_np10_0" arrivalPos="75.00" arrivalSpeed="9.04" duration="484.00" routeLength="894.34" waitingTime="371.00" waitingCount="8" stopTime="0.00" timeLoss="407.75" rerouteNo="0" devices="tripinfo_f_0_2.5" vType="type1" speedFactor="0.99" vaporized=""/>
    <tripinfo id="f_0_1.0" depart="0.00" departLane="np16_nt1_0" departPos="55.34" departSpeed="0.00" departDelay="0.00" arrival="579.00" arrivalLane="nt16_np8_0" arrivalPos="75.00" arrivalSpeed="15.75" duration="579.00" routeLength="1292.54" waitingTime="411.00" waitingCount="13" stopTime="0.00" timeLoss="474.28" rerouteNo="0" devices="tripinfo_f_0_1.0" vType="type1" speedFactor="0.87" vaporized=""/>
    <tripinfo id="f_0_0.2" depart="28.00" departLane="np13_nt13_0" departPos="47.91" departSpeed="0.00" departDelay="0.73" arrival="598.00" arrivalLane="nt4_np5_0" arrivalPos="75.00" arrivalSpeed="22.55" duration="570.00" routeLength="1299.98" waitingTime="445.00" waitingCount="7" stopTime="0.00" timeLoss="494.61" rerouteNo="0" devices="tripinfo_f_0_0.2" vType="type1" speedFactor="1.22" vaporized=""/>
    <tripinfo id="f_0_0.3" depart="41.00" departLane="np13_nt13_0" departPos="44.05" departSpeed="0.00" departDelay="0.09" arrival="599.00" arrivalLane="nt4_np5_0" arrivalPos="75.00" arrivalSpeed="22.13" duration="558.00" routeLength="1303.84" waitingTime="436.00" waitingCount="8" stopTime="0.00" timeLoss="476.60" rerouteNo="0" devices="tripinfo_f_0_0.3" vType="type1" speedFactor="1.11" vaporized=""/>
    <tripinfo id="f_0_1.1" depart="14.00" departLane="np16_nt1_0" departPos="20.72" departSpeed="0.00" departDelay="0.36" arrival="663.00" arrivalLane="nt16_np8_0" arrivalPos="75.00" arrivalSpeed="20.37" duration="649.00" routeLength="1327.16" waitingTime="492.00" waitingCount="11" stopTime="0.00" timeLoss="560.40" rerouteNo="0" devices="tripinfo_f_0_1.1" vType="type1" speedFactor="1.04" vaporized=""/>
    <tripinfo id="f_0_2.6" depart="50.00" departLane="np2_nt2_0" departPos="57.65" departSpeed="0.00" departDelay="0.91" arrival="674.00" arrivalLane="nt15_np10_0" arrivalPos="75.00" arrivalSpeed="8.18" duration="624.00" routeLength="893.43" waitingTime="478.00" waitingCount="12" stopTime="0.00" timeLoss="539.59" rerouteNo="0" devices="tripinfo_f_0_2.6" vType="type1" speedFactor="0.89" vaporized=""/>
    <tripinfo id="f_0_2.7" depart="58.00" departLane="np2_nt2_0" departPos="10.53" departSpeed="0.00" departDelay="0.73" arrival="692.00" arrivalLane="nt15_np10_0" arrivalPos="75.00" arrivalSpeed="9.33" duration="634.00" routeLength="940.55" waitingTime="474.00" waitingCount="15" stopTime="0.00" timeLoss="559.93" rerouteNo="0" devices="tripinfo_f_0_2.7" vType="type1" speedFactor="1.07" vaporized=""/>
    <tripinfo id="f_0_3.15" depart="123.00" departLane="np3_nt3_0" departPos="3.28" departSpeed="0.00" departDelay="0.27" arrival="701.00" arrivalLane="nt14_np11_0" arrivalPos="75.00" arrivalSpeed="13.76" duration="578.00" routeLength="947.81" waitingTime="436.00" waitingCount="11" stopTime="0.00" timeLoss="514.23" rerouteNo="0" devices="tripinfo_f_0_3.15" vType="type1" speedFactor="1.25" vaporized=""/>
    <tripinfo id="f_0_0.4" depart="55.00" departLane="np13_nt13_0" departPos="22.68" departSpeed="0.00" departDelay="0.46" arrival="714.00" arrivalLane="nt4_np5_0" arrivalPos="75.00" arrivalSpeed="16.96" duration="659.00" routeLength="1325.21" waitingTime="503.00" waitingCount="12" stopTime="0.00" timeLoss="560.10" rerouteNo="0" devices="tripinfo_f_0_0.4" vType="type1" speedFactor="0.94" vaporized=""/>
    <tripinfo id="f_0_0.5" depart="69.00" departLane="np13_nt13_0" departPos="44.03" departSpeed="0.00" departDelay="0.82" arrival="715.00" arrivalLane="nt4_np5_0" arrivalPos="75.00" arrivalSpeed="19.09" duration="646.00" routeLength="1303.86" waitingTime="496.00" waitingCount="12" stopTime="0.00" timeLoss="552.85" rerouteNo="0" devices="tripinfo_f_0_0.5" vType="type1" speedFactor="0.97" vaporized=""/>
    <tripinfo id="f_0_0.6" depart="82.00" departLane="np13_nt13_0" departPos="4.96" departSpeed="0.00" departDelay="0.18" arrival="717.00" arrivalLane="nt4_np5_0" arrivalPos="75.00" arrivalSpeed="19.49" duration="635.00" routeLength="1342.93" waitingTime="474.00" waitingCount="12" stopTime="0.00" timeLoss="544.88" rerouteNo="0" devices="tripinfo_f_0_0.6" vType="type1" speedFactor="1.03" vaporized=""/>
    <tripinfo id="f_0_0.7" depart="96.00" departLane="np13_nt13_0" departPos="48.78" departSpeed="0.00" departDelay="0.55" arrival="719.00" arrivalLane="nt4_np5_0" arrivalPos="75.00" arrivalSpeed="18.93" duration="623.00" routeLength="1299.11" waitingTime="463.00" waitingCount="10" stopTime="0.00" timeLoss="527.71" rerouteNo="0" devices="tripinfo_f_0_0.7" vType="type1" speedFactor="0.96" vaporized=""/>
    <tripinfo id="f_0_2.8" depart="66.00" departLane="np2_nt2_0" departPos="43.53" departSpeed="0.00" departDelay="0.54" arrival="723.00" arrivalLane="nt15_np10_0" arrivalPos="75.00" arrivalSpeed="9.91" duration="657.00" routeLength="907.55" waitingTime="487.00" waitingCount="15" stopTime="0.00" timeLoss="573.87" rerouteNo="0" devices="tripinfo_f_0_2.8" vType="type1" speedFactor="0.92" vaporized=""/>
    <tripinfo id="f_0_2.9" depart="74.00" departLane="np2_nt2_0" departPos="54.37" departSpeed="0.00" departDelay="0.36" arrival="757.00" arrivalLane="nt15_np10_0" arrivalPos="75.00" arrivalSpeed="10.16" duration="683.00" routeLength="896.71" waitingTime="515.00" waitingCount="17" stopTime="0.00" timeLoss="606.72" rerouteNo="0" devices="tripinfo_f_0_2.9" vType="type1" speedFactor="0.98" vaporized=""/>
    <tripinfo id="f_0_0.8" depart="110.00" departLane="np13_nt13_0" departPos="6.34" departSpeed="0.00" departDelay="0.91" arrival="770.00" arrivalLane="nt4_np5_0" arrivalPos="75.00" arrivalSpeed="19.70" duration="660.00" routeLength="1341.55" waitingTime="489.00" waitingCount="11" stopTime="0.00" timeLoss="568.26" rerouteNo="0" devices="tripinfo_f_0_0.8" vType="type1" speedFactor="1.01" vaporized=""/>
    <tripinfo id="f_0_0.9" depart="123.00" departLane="np13_nt13_0" departPos="21.05" departSpeed="0.00" departDelay="0.28" arrival="774.00" arrivalLane="nt4_np5_0" arrivalPos="75.00" arrivalSpeed="17.63" duration="651.00" routeLength="1326.84" waitingTime="461.00" waitingCount="14" stopTime="0.00" timeLoss="548.47" rerouteNo="0" devices="tripinfo_f_0_0.9" vType="type1" speedFactor="0.90" vaporized=""/>
    <tripinfo id="f_0_0.10" depart="137.00" departLane="np13_nt13_0" departPos="18.99" departSpeed="0.00" departDelay="0.64" arrival="776.00" arrivalLane="nt4_np5_0" arrivalPos="75.00" arrivalSpeed="20.51" duration="639.00" routeLength="1328.90" waitingTime="449.00" waitingCount="14" stopTime="0.00" timeLoss="550.07" rerouteNo="0" devices="tripinfo_f_0_0.10" vType="type1" speedFactor="1.04" vaporized=""/>
    <tripinfo id="f_0_0.11" depart="150.00" departLane="np13_nt13_0" departPos="20.43" departSpeed="0.00" departDelay="0.00" arrival="839.00" arrivalLane="nt4_np5_0" arrivalPos="75.00" arrivalSpeed="18.05" duration="689.00" routeLength="1327.46" waitingTime="479.00" waitingCount="15" stopTime="0.00" timeLoss="595.41" rerouteNo="0" devices="tripinfo_f_0_0.11" vType="type1" speedFactor="0.99" vaporized=""/>
    <tripinfo id="f_0_3.16" depart="131.00" departLane="np3_nt3_0" departPos="25.49" departSpeed="0.00" departDelay="0.09" arrival="877.00" arrivalLane="nt14_np11_0" arrivalPos="75.00" arrivalSpeed="10.51" duration="746.00" routeLength="925.60" waitingTime="590.00" waitingCount="13" stopTime="0.00" timeLoss="668.88" rerouteNo="0" devices="tripinfo_f_0_3.16" vType="type1" speedFactor="1.00" vaporized=""/>
    <tripinfo id="f_0_0.12" depart="164.00" departLane="np13_nt13_0" departPos="11.23" departSpeed="0.00" departDelay="0.37" arrival="878.00" arrivalLane="nt4_np5_0" arrivalPos="75.00" arrivalSpeed="18.58" duration="714.00" routeLength="1336.66" waitingTime="502.00" waitingCount="10" stopTime="0.00" timeLoss="614.81" rerouteNo="0" devices="tripinfo_f_0_0.12" vType="type1" speedFactor="0.94" vaporized=""/>
    <tripinfo id="f_0_3.17" depart="140.00" departLane="np3_nt3_0" departPos="63.21" departSpeed="0.00" departDelay="0.91" arrival="880.00" arrivalLane="nt14_np11_0" arrivalPos="75.00" arrivalSpeed="8.76" duration="740.00" routeLength="887.88" waitingTime="572.00" waitingCount="13" stopTime="0.00" timeLoss="657.27" rerouteNo="0" devices="tripinfo_f_0_3.17" vType="type1" speedFactor="0.90" vaporized=""/>
    <tripinfo id="f_0_2.10" depart="82.00" departLane="np2_nt2_0" departPos="55.64" departSpeed="0.00" departDelay="0.18" arrival="882.00" arrivalLane="nt15_np10_0" arrivalPos="75.00" arrivalSpeed="10.38" duration="800.00" routeLength="895.44" waitingTime="634.00" waitingCount="16" stopTime="0.00" timeLoss="730.79" rerouteNo="0" devices="tripinfo_f_0_2.10" vType="type1" speedFactor="1.09" vaporized=""/>
    <tripinfo id="f_0_3.18" depart="148.00" departLane="np3_nt3_0" departPos="21.83" departSpeed="0.00" departDelay="0.72" arrival="882.00" arrivalLane="nt14_np11_0" arrivalPos="75.00" arrivalSpeed="10.60" duration="734.00" routeLength="929.26" waitingTime="565.00" waitingCount="13" stopTime="0.00" timeLoss="660.89" rerouteNo="0" devices="tripinfo_f_0_3.18" vType="type1" speedFactor="1.07" vaporized=""/>
    <tripinfo id="f_0_3.19" depart="156.00" departLane="np3_nt3_0" departPos="29.30" departSpeed="0.00" departDelay="0.54" arrival="884.00" arrivalLane="nt14_np11_0" arrivalPos="75.00" arrivalSpeed="10.79" duration="728.00" routeLength="921.79" waitingTime="562.00" waitingCount="13" stopTime="0.00" timeLoss="654.63" rerouteNo="0" devices="tripinfo_f_0_3.19" vType="type1" speedFactor="1.06" vaporized=""/>
    <tripinfo id="f_0_2.11" depart="90.00" departLane="np2_nt2_0" departPos="14.47" departSpeed="0.00" departDelay="0.00" arrival="886.00" arrivalLane="nt15_np10_0" arrivalPos="75.00" arrivalSpeed="8.14" duration="796.00" routeLength="936.61" waitingTime="605.00" waitingCount="15" stopTime="0.00" timeLoss="701.52" rerouteNo="0" devices="tripinfo_f_0_2.11" vType="type1" speedFactor="0.84" vaporized=""/>
    <tripinfo id="f_0_0.13" depart="178.00" departLane="np13_nt13_0" departPos="0.96" departSpeed="0.00" departDelay="0.73" arrival="921.00" arrivalLane="nt4_np5_0" arrivalPos="75.00" arrivalSpeed="18.10" duration="743.00" routeLength="1346.93" waitingTime="562.00" waitingCount="14" stopTime="0.00" timeLoss="652.16" rerouteNo="0" devices="tripinfo_f_0_0.13" vType="type1" speedFactor="1.03" vaporized=""/>
    <tripinfo id="f_0_3.20" depart="164.00" departLane="np3_nt3_0" departPos="57.11" departSpeed="0.00" departDelay="0.36" arrival="927.00" arrivalLane="nt14_np11_0" arrivalPos="75.00" arrivalSpeed="10.61" duration="763.00" routeLength="893.98" waitingTime="585.00" waitingCount="15" stopTime="0.00" timeLoss="690.70" rerouteNo="0" devices="tripinfo_f_0_3.20" vType="type1" speedFactor="1.04" vaporized=""/>
    <tripinfo id="f_0_2.21" depart="172.00" departLane="np2_nt2_0" departPos="45.67" departSpeed="0.00" departDelay="0.18" arrival="937.00" arrivalLane="nt15_np10_0" arrivalPos="75.00" arrivalSpeed="10.72" duration="765.00" routeLength="905.41" waitingTime="602.00" waitingCount="13" stopTime="0.00" timeLoss="692.34" rerouteNo="0" devices="tripinfo_f_0_2.21" vType="type1" speedFactor="1.05" vaporized=""/>
    <tripinfo id="f_0_0.14" depart="191.00" departLane="np13_nt13_0" departPos="5.43" departSpeed="0.00" departDelay="0.10" arrival="953.00" arrivalLane="nt4_np5_0" arrivalPos="75.00" arrivalSpeed="19.17" duration="762.00" routeLength="1342.46" waitingTime="552.00" waitingCount="16" stopTime="0.00" timeLoss="666.44" rerouteNo="0" devices="tripinfo_f_0_0.14" vType="type1" speedFactor="0.97" vaporized=""/>
    <tripinfo id="f_0_0.15" depart="205.00" departLane="np13_nt13_0" departPos="0.00" departSpeed="0.00" departDelay="0.46" arrival="955.00" arrivalLane="nt4_np5_0" arrivalPos="75.00" arrivalSpeed="17.40" duration="750.00" routeLength="1347.89" waitingTime="521.00" waitingCount="16" stopTime="0.00" timeLoss="648.02" rerouteNo="0" devices="tripinfo_f_0_0.15" vType="type1" speedFactor="0.91" vaporized=""/>
    <tripinfo id="f_0_3.21" depart="172.00" departLane="np3_nt3_0" departPos="49.48" departSpeed="0.00" departDelay="0.18" arrival="958.00" arrivalLane="nt14_np11_0" arrivalPos="75.00" arrivalSpeed="8.29" duration="786.00" routeLength="901.61" waitingTime="588.00" waitingCount="14" stopTime="0.00" timeLoss="702.50" rerouteNo="0" devices="tripinfo_f_0_3.21" vType="type1" speedFactor="0.90" vaporized=""/>
    <tripinfo id="f_0_1.2" depart="28.00" departLane="np16_nt1_0" departPos="36.95" departSpeed="0.00" departDelay="0.73" arrival="963.00" arrivalLane="nt16_np8_0" arrivalPos="75.00" arrivalSpeed="21.83" duration="935.00" routeLength="1310.93" waitingTime="704.00" waitingCount="19" stopTime="0.00" timeLoss="851.58" rerouteNo="0" devices="tripinfo_f_0_1.2" vType="type1" speedFactor="1.10" vaporized=""/>
    <tripinfo id="f_0_2.12" depart="99.00" departLane="np2_nt2_0" departPos="14.70" departSpeed="0.00" departDelay="0.82" arrival="977.00" arrivalLane="nt15_np10_0" arrivalPos="75.00" arrivalSpeed="10.06" duration="878.00" routeLength="936.38" waitingTime="662.00" waitingCount="18" stopTime="0.00" timeLoss="801.98" rerouteNo="0" devices="tripinfo_f_0_2.12" vType="type1" speedFactor="1.04" vaporized=""/>
    <tripinfo id="f_0_0.16" depart="221.00" departLane="np13_nt13_0" departPos="0.33" departSpeed="0.00" departDelay="2.82" arrival="984.00" arrivalLane="nt4_np5_0" arrivalPos="75.00" arrivalSpeed="16.14" duration="763.00" routeLength="1347.56" waitingTime="528.00" waitingCount="15" stopTime="0.00" timeLoss="651.47" rerouteNo="0" devices="tripinfo_f_0_0.16" vType="type1" speedFactor="0.83" vaporized=""/>
    <tripinfo id="f_0_1.3" depart="41.00" departLane="np16_nt1_0" departPos="57.25" departSpeed="0.00" departDelay="0.09" arrival="994.00" arrivalLane="nt16_np8_0" arrivalPos="75.00" arrivalSpeed="17.72" duration="953.00" routeLength="1290.63" waitingTime="707.00" waitingCount="23" stopTime="0.00" timeLoss="859.47" rerouteNo="0" devices="tripinfo_f_0_1.3" vType="type1" speedFactor="0.97" vaporized=""/>
    <tripinfo id="f_0_0.17" depart="232.00" departLane="np13_nt13_0" departPos="0.38" departSpeed="0.00" departDelay="0.19" arrival="1004.00" arrivalLane="nt4_np5_0" arrivalPos="75.00" arrivalSpeed="18.71" duration="772.00" routeLength="1347.51" waitingTime="548.00" waitingCount="15" stopTime="0.00" timeLoss="676.11" rerouteNo="0" devices="tripinfo_f_0_0.17" vType="type1" speedFactor="0.98" vaporized=""/>
    <tripinfo id="f_0_3.22" depart="180.00" departLane="np3_nt3_0" departPos="60.07" departSpeed="0.00" departDelay="0.00" arrival="1017.00" arrivalLane="nt14_np11_0" arrivalPos="75.00" arrivalSpeed="8.82" duration="837.00" routeLength="891.02" waitingTime="649.00" waitingCount="12" stopTime="0.00" timeLoss="751.41" rerouteNo="0" devices="tripinfo_f_0_3.22" vType="type1" speedFactor="0.87" vaporized=""/>
    <tripinfo id="f_0_3.23" depart="189.00" departLane="np3_nt3_0" departPos="23.73" departSpeed="0.00" departDelay="0.81" arrival="1019.00" arrivalLane="nt14_np11_0" arrivalPos="75.00" arrivalSpeed="11.14" duration="830.00" routeLength="927.36" waitingTime="633.00" waitingCount="11" stopTime="0.00" timeLoss="760.46" rerouteNo="0" devices="tripinfo_f_0_3.23" vType="type1" speedFactor="1.11" vaporized=""/>
    <tripinfo id="f_0_2.23" depart="189.00" departLane="np2_nt2_0" departPos="62.43" departSpeed="0.00" departDelay="0.81" arrival="1022.00" arrivalLane="nt15_np10_0" arrivalPos="75.00" arrivalSpeed="9.16" duration="833.00" routeLength="888.65" waitingTime="654.00" waitingCount="16" stopTime="0.00" timeLoss="759.32" rerouteNo="0" devices="tripinfo_f_0_2.23" vType="type1" speedFactor="1.02" vaporized=""/>
    <tripinfo id="f_0_2.13" depart="107.00" departLane="np2_nt2_0" departPos="56.66" departSpeed="0.00" departDelay="0.63" arrival="1047.00" arrivalLane="nt15_np10_0" arrivalPos="75.00" arrivalSpeed="10.57" duration="940.00" routeLength="894.42" waitingTime="698.00" waitingCount="22" stopTime="0.00" timeLoss="869.83" rerouteNo="0" devices="tripinfo_f_0_2.13" vType="type1" speedFactor="1.06" vaporized=""/>
    <tripinfo id="f_0_1.4" depart="55.00" departLane="np16_nt1_0" departPos="13.02" departSpeed="0.00" departDelay="0.46" arrival="1053.00" arrivalLane="nt16_np8_0" arrivalPos="75.00" arrivalSpeed="17.97" duration="998.00" routeLength="1334.86" waitingTime="731.00" waitingCount="24" stopTime="0.00" timeLoss="905.35" rerouteNo="0" devices="tripinfo_f_0_1.4" vType="type1" speedFactor="0.99" vaporized=""/>
    <tripinfo id="f_0_1.12" depart="164.00" departLane="np16_nt1_0" departPos="10.22" departSpeed="0.00" departDelay="0.37" arrival="1055.00" arrivalLane="nt16_np8_0" arrivalPos="75.00" arrivalSpeed="16.67" duration="891.00" routeLength="1337.66" waitingTime="654.00" waitingCount="20" stopTime="0.00" timeLoss="783.72" rerouteNo="0" devices="tripinfo_f_0_1.12" vType="type1" speedFactor="0.86" vaporized=""/>
    <tripinfo id="f_0_3.24" depart="197.00" departLane="np3_nt3_0" departPos="30.33" departSpeed="0.00" departDelay="0.63" arrival="1061.00" arrivalLane="nt14_np11_0" arrivalPos="75.00" arrivalSpeed="10.95" duration="864.00" routeLength="920.76" waitingTime="665.00" waitingCount="13" stopTime="0.00" timeLoss="791.12" rerouteNo="0" devices="tripinfo_f_0_3.24" vType="type1" speedFactor="1.06" vaporized=""/>
    <tripinfo id="f_0_0.18" depart="246.00" departLane="np13_nt13_0" departPos="63.38" departSpeed="0.00" departDelay="0.55" arrival="1067.00" arrivalLane="nt4_np5_0" arrivalPos="75.00" arrivalSpeed="16.31" duration="821.00" routeLength="1284.51" waitingTime="597.00" waitingCount="14" stopTime="0.00" timeLoss="724.06" rerouteNo="0" devices="tripinfo_f_0_0.18" vType="type1" speedFactor="0.93" vaporized=""/>
    <tripinfo id="f_3_6.0" depart="900.00" departLane="np10_nt15_0" departPos="62.86" departSpeed="0.00" departDelay="0.00" arrival="1072.00" arrivalLane="nt2_np2_0" arrivalPos="64.60" arrivalSpeed="9.51" duration="172.00" routeLength="888.22" waitingTime="66.00" waitingCount="5" stopTime="0.00" timeLoss="91.88" rerouteNo="0" devices="tripinfo_f_3_6.0" vType="type1" speedFactor="0.93" vaporized=""/>
    <tripinfo id="f_0_3.25" depart="205.00" departLane="np3_nt3_0" departPos="24.54" departSpeed="0.00" departDelay="0.45" arrival="1074.00" arrivalLane="nt14_np11_0" arrivalPos="75.00" arrivalSpeed="9.24" duration="869.00" routeLength="926.55" waitingTime="656.00" waitingCount="16" stopTime="0.00" timeLoss="780.69" rerouteNo="0" devices="tripinfo_f_0_3.25" vType="type1" speedFactor="0.88" vaporized=""/>
    <tripinfo id="f_3_6.1" depart="913.00" departLane="np10_nt15_0" departPos="67.74" departSpeed="0.00" departDelay="0.00" arrival="1074.00" arrivalLane="nt2_np2_0" arrivalPos="64.60" arrivalSpeed="9.64" duration="161.00" routeLength="883.34" waitingTime="54.00" waitingCount="4" stopTime="0.00" timeLoss="86.33" rerouteNo="0" devices="tripinfo_f_3_6.1" vType="type1" speedFactor="1.00" vaporized=""/>
    <tripinfo id="f_0_1.9" depart="123.00" departLane="np16_nt1_0" departPos="46.93" departSpeed="0.00" departDelay="0.28" arrival="1104.00" arrivalLane="nt16_np8_0" arrivalPos="75.00" arrivalSpeed="20.98" duration="981.00" routeLength="1300.95" waitingTime="760.00" waitingCount="22" stopTime="0.00" timeLoss="900.18" rerouteNo="0" devices="tripinfo_f_0_1.9" vType="type1" speedFactor="1.14" vaporized=""/>
    <tripinfo id="f_0_1.5" depart="69.00" departLane="np16_nt1_0" departPos="32.24" departSpeed="0.00" departDelay="0.82" arrival="1105.00" arrivalLane="nt16_np8_0" arrivalPos="75.00" arrivalSpeed="20.49" duration="1036.00" routeLength="1315.64" waitingTime="751.00" waitingCount="26" stopTime="0.00" timeLoss="951.31" rerouteNo="0" devices="tripinfo_f_0_1.5" vType="type1" speedFactor="1.08" vaporized=""/>