<?xml version="1.0" encoding="UTF-8"?>

<!-- generated on 2023-08-30 18:46:26 by Eclipse SUMO libsumo Version 1.18.0
<configuration xmlns:xsi="http://www.w3.org/2001/XMLSchema-instance" xsi:noNamespaceSchemaLocation="http://sumo.dlr.de/xsd/libsumoConfiguration.xsd">

    <input>
        <net-file value="/home/stefan/RESCO/./environments/arterial4x4/arterial4x4.net.xml"/>
        <route-files value="/home/stefan/RESCO/./environments/arterial4x4/arterial4x4_46.rou.xml"/>
    </input>

    <output>
        <tripinfo-output value="/home/stefan/results/RAINBOW-tr0-arterial4x4-0-drq_norm-wait_norm/tripinfo_46.xml"/>
        <tripinfo-output.write-unfinished value="true"/>
    </output>

    <processing>
        <time-to-teleport value="-1"/>
    </processing>

    <report>
        <no-warnings value="True"/>
        <no-step-log value="True"/>
    </report>

    <random_number>
        <random value="true"/>
    </random_number>

</configuration>
-->

<tripinfos xmlns:xsi="http://www.w3.org/2001/XMLSchema-instance" xsi:noNamespaceSchemaLocation="http://sumo.dlr.de/xsd/tripinfo_file.xsd">
    <tripinfo id="f_0_3.0" depart="0.00" departLane="np3_nt3_0" departPos="50.39" departSpeed="0.00" departDelay="0.00" arrival="154.00" arrivalLane="nt14_np11_0" arrivalPos="75.00" arrivalSpeed="8.51" duration="154.00" routeLength="900.70" waitingTime="35.00" waitingCount="3" stopTime="0.00" timeLoss="60.09" rerouteNo="0" devices="tripinfo_f_0_3.0" vType="type1" speedFactor="0.80" vaporized=""/>
    <tripinfo id="f_0_3.1" depart="9.00" departLane="np3_nt3_0" departPos="25.47" departSpeed="0.00" departDelay="0.82" arrival="156.00" arrivalLane="nt14_np11_0" arrivalPos="75.00" arrivalSpeed="9.90" duration="147.00" routeLength="925.62" waitingTime="35.00" waitingCount="3" stopTime="0.00" timeLoss="67.92" rerouteNo="0" devices="tripinfo_f_0_3.1" vType="type1" speedFactor="0.98" vaporized=""/>
    <tripinfo id="f_0_2.0" depart="0.00" departLane="np2_nt2_0" departPos="43.16" departSpeed="0.00" departDelay="0.00" arrival="218.00" arrivalLane="nt15_np10_0" arrivalPos="75.00" arrivalSpeed="9.95" duration="218.00" routeLength="907.92" waitingTime="109.00" waitingCount="5" stopTime="0.00" timeLoss="134.97" rerouteNo="0" devices="tripinfo_f_0_2.0" vType="type1" speedFactor="0.91" vaporized=""/>
    <tripinfo id="f_0_2.1" depart="9.00" departLane="np2_nt2_0" departPos="6.73" departSpeed="0.00" departDelay="0.82" arrival="221.00" arrivalLane="nt15_np10_0" arrivalPos="75.00" arrivalSpeed="8.37" duration="212.00" routeLength="944.35" waitingTime="87.00" waitingCount="6" stopTime="0.00" timeLoss="119.17" rerouteNo="0" devices="tripinfo_f_0_2.1" vType="type1" speedFactor="0.86" vaporized=""/>
    <tripinfo id="f_0_3.2" depart="17.00" departLane="np3_nt3_0" departPos="36.49" departSpeed="0.00" departDelay="0.64" arrival="232.00" arrivalLane="nt14_np11_0" arrivalPos="75.00" arrivalSpeed="10.01" duration="215.00" routeLength="914.60" waitingTime="111.00" waitingCount="6" stopTime="0.00" timeLoss="139.59" rerouteNo="0" devices="tripinfo_f_0_3.2" vType="type1" speedFactor="1.01" vaporized=""/>
    <tripinfo id="f_0_3.3" depart="25.00" departLane="np3_nt3_0" departPos="41.03" departSpeed="0.00" departDelay="0.45" arrival="234.00" arrivalLane="nt14_np11_0" arrivalPos="75.00" arrivalSpeed="11.78" duration="209.00" routeLength="910.06" waitingTime="103.00" waitingCount="6" stopTime="0.00" timeLoss="145.82" rerouteNo="0" devices="tripinfo_f_0_3.3" vType="type1" speedFactor="1.20" vaporized=""/>
    <tripinfo id="f_0_1.0" depart="0.00" departLane="np16_nt1_0" departPos="32.31" departSpeed="0.00" departDelay="0.00" arrival="343.00" arrivalLane="nt16_np8_0" arrivalPos="75.00" arrivalSpeed="20.36" duration="343.00" routeLength="1315.57" waitingTime="200.00" waitingCount="9" stopTime="0.00" timeLoss="257.26" rerouteNo="0" devices="tripinfo_f_0_1.0" vType="type1" speedFactor="1.07" vaporized=""/>
    <tripinfo id="f_0_0.0" depart="0.00" departLane="np13_nt13_0" departPos="3.16" departSpeed="0.00" departDelay="0.00" arrival="353.00" arrivalLane="nt4_np5_0" arrivalPos="75.00" arrivalSpeed="16.81" duration="353.00" routeLength="1344.73" waitingTime="228.00" waitingCount="3" stopTime="0.00" timeLoss="253.90" rerouteNo="0" devices="tripinfo_f_0_0.0" vType="type1" speedFactor="0.94" vaporized=""/>
    <tripinfo id="f_0_3.4" depart="33.00" departLane="np3_nt3_0" departPos="26.31" departSpeed="0.00" departDelay="0.27" arrival="392.00" arrivalLane="nt14_np11_0" arrivalPos="75.00" arrivalSpeed="10.30" duration="359.00" routeLength="924.78" waitingTime="248.00" waitingCount="6" stopTime="0.00" timeLoss="281.32" rerouteNo="0" devices="tripinfo_f_0_3.4" vType="type1" speedFactor="0.99" vaporized=""/>
    <tripinfo id="f_0_3.5" depart="41.00" departLane="np3_nt3_0" departPos="31.44" departSpeed="0.00" departDelay="0.09" arrival="394.00" arrivalLane="nt14_np11_0" arrivalPos="75.00" arrivalSpeed="9.88" duration="353.00" routeLength="919.65" waitingTime="240.00" waitingCount="5" stopTime="0.00" timeLoss="283.10" rerouteNo="0" devices="tripinfo_f_0_3.5" vType="type1" speedFactor="1.10" vaporized=""/>
    <tripinfo id="f_0_0.1" depart="14.00" departLane="np13_nt13_0" departPos="1.42" departSpeed="0.00" departDelay="0.36" arrival="424.00" arrivalLane="nt4_np5_0" arrivalPos="75.00" arrivalSpeed="17.45" duration="410.00" routeLength="1346.47" waitingTime="265.00" waitingCount="5" stopTime="0.00" timeLoss="306.57" rerouteNo="0" devices="tripinfo_f_0_0.1" vType="type1" speedFactor="0.91" vaporized=""/>
    <tripinfo id="f_0_0.2" depart="28.00" departLane="np13_nt13_0" departPos="12.58" departSpeed="0.00" departDelay="0.73" arrival="426.00" arrivalLane="nt4_np5_0" arrivalPos="75.00" arrivalSpeed="16.96" duration="398.00" routeLength="1335.31" waitingTime="251.00" waitingCount="8" stopTime="0.00" timeLoss="292.20" rerouteNo="0" devices="tripinfo_f_0_0.2" vType="type1" speedFactor="0.88" vaporized=""/>
    <tripinfo id="f_0_0.3" depart="41.00" departLane="np13_nt13_0" departPos="16.86" departSpeed="0.00" departDelay="0.09" arrival="427.00" arrivalLane="nt4_np5_0" arrivalPos="75.00" arrivalSpeed="17.07" duration="386.00" routeLength="1331.03" waitingTime="238.00" waitingCount="9" stopTime="0.00" timeLoss="291.78" rerouteNo="0" devices="tripinfo_f_0_0.3" vType="type1" speedFactor="0.98" vaporized=""/>
    <tripinfo id="f_0_0.4" depart="55.00" departLane="np13_nt13_0" departPos="2.73" departSpeed="0.00" departDelay="0.46" arrival="429.00" arrivalLane="nt4_np5_0" arrivalPos="75.00" arrivalSpeed="21.31" duration="374.00" routeLength="1345.16" waitingTime="230.00" waitingCount="10" stopTime="0.00" timeLoss="291.38" rerouteNo="0" devices="tripinfo_f_0_0.4" vType="type1" speedFactor="1.13" vaporized=""/>
    <tripinfo id="f_0_0.5" depart="69.00" departLane="np13_nt13_0" departPos="38.66" departSpeed="0.00" departDelay="0.82" arrival="432.00" arrivalLane="nt4_np5_0" arrivalPos="75.00" arrivalSpeed="16.40" duration="363.00" routeLength="1309.23" waitingTime="197.00" waitingCount="11" stopTime="0.00" timeLoss="261.81" rerouteNo="0" devices="tripinfo_f_0_0.5" vType="type1" speedFactor="0.90" vaporized=""/>
    <tripinfo id="f_0_0.6" depart="82.00" departLane="np13_nt13_0" departPos="30.79" departSpeed="0.00" departDelay="0.18" arrival="433.00" arrivalLane="nt4_np5_0" arrivalPos="75.00" arrivalSpeed="21.23" duration="351.00" routeLength="1317.10" waitingTime="201.00" waitingCount="11" stopTime="0.00" timeLoss="269.43" rerouteNo="0" devices="tripinfo_f_0_0.6" vType="type1" speedFactor="1.12" vaporized=""/>
    <tripinfo id="f_0_3.6" depart="50.00" departLane="np3_nt3_0" departPos="38.17" departSpeed="0.00" departDelay="0.91" arrival="443.00" arrivalLane="nt14_np11_0" arrivalPos="75.00" arrivalSpeed="7.66" duration="393.00" routeLength="912.92" waitingTime="273.00" waitingCount="6" stopTime="0.00" timeLoss="309.35" rerouteNo="0" devices="tripinfo_f_0_3.6" vType="type1" speedFactor="0.91" vaporized=""/>
    <tripinfo id="f_0_2.2" depart="17.00" departLane="np2_nt2_0" departPos="25.28" departSpeed="0.00" departDelay="0.64" arrival="463.00" arrivalLane="nt15_np10_0" arrivalPos="75.00" arrivalSpeed="8.89" duration="446.00" routeLength="925.80" waitingTime="332.00" waitingCount="6" stopTime="0.00" timeLoss="366.15" rerouteNo="0" devices="tripinfo_f_0_2.2" vType="type1" speedFactor="0.98" vaporized=""/>
    <tripinfo id="f_0_0.7" depart="96.00" departLane="np13_nt13_0" departPos="17.21" departSpeed="0.00" departDelay="0.55" arrival="463.00" arrivalLane="nt4_np5_0" arrivalPos="75.00" arrivalSpeed="21.79" duration="367.00" routeLength="1330.68" waitingTime="203.00" waitingCount="13" stopTime="0.00" timeLoss="285.28" rerouteNo="0" devices="tripinfo_f_0_0.7" vType="type1" speedFactor="1.13" vaporized=""/>
    <tripinfo id="f_0_2.3" depart="25.00" departLane="np2_nt2_0" departPos="18.11" departSpeed="0.00" departDelay="0.45" arrival="466.00" arrivalLane="nt15_np10_0" arrivalPos="75.00" arrivalSpeed="12.28" duration="441.00" routeLength="932.97" waitingTime="331.00" waitingCount="7" stopTime="0.00" timeLoss="372.05" rerouteNo="0" devices="tripinfo_f_0_2.3" vType="type1" speedFactor="1.13" vaporized=""/>
    <tripinfo id="f_0_0.8" depart="110.00" departLane="np13_nt13_0" departPos="36.15" departSpeed="0.00" departDelay="0.91" arrival="484.00" arrivalLane="nt4_np5_0" arrivalPos="75.00" arrivalSpeed="18.69" duration="374.00" routeLength="1311.74" waitingTime="191.00" waitingCount="14" stopTime="0.00" timeLoss="277.02" rerouteNo="0" devices="tripinfo_f_0_0.8" vType="type1" speedFactor="0.95" vaporized=""/>
    <tripinfo id="f_0_3.7" depart="58.00" departLane="np3_nt3_0" departPos="28.49" departSpeed="0.00" departDelay="0.73" arrival="492.00" arrivalLane="nt14_np11_0" arrivalPos="75.00" arrivalSpeed="11.05" duration="434.00" routeLength="922.60" waitingTime="308.00" waitingCount="5" stopTime="0.00" timeLoss="358.22" rerouteNo="0" devices="tripinfo_f_0_3.7" vType="type1" speedFactor="1.02" vaporized=""/>
    <tripinfo id="f_0_0.9" depart="123.00" departLane="np13_nt13_0" departPos="23.00" departSpeed="0.00" departDelay="0.28" arrival="493.00" arrivalLane="nt4_np5_0" arrivalPos="75.00" arrivalSpeed="23.00" duration="370.00" routeLength="1324.89" waitingTime="202.00" waitingCount="10" stopTime="0.00" timeLoss="295.68" rerouteNo="0" devices="tripinfo_f_0_0.9" vType="type1" speedFactor="1.24" vaporized=""/>
    <tripinfo id="f_0_0.10" depart="137.00" departLane="np13_nt13_0" departPos="15.21" departSpeed="0.00" departDelay="0.64" arrival="495.00" arrivalLane="nt4_np5_0" arrivalPos="75.00" arrivalSpeed="19.45" duration="358.00" routeLength="1332.68" waitingTime="207.00" waitingCount="8" stopTime="0.00" timeLoss="262.67" rerouteNo="0" devices="tripinfo_f_0_0.10" vType="type1" speedFactor="0.97" vaporized=""/>
    <tripinfo id="f_0_1.1" depart="14.00" departLane="np16_nt1_0" departPos="54.90" departSpeed="0.00" departDelay="0.36" arrival="504.00" arrivalLane="nt16_np8_0" arrivalPos="75.00" arrivalSpeed="15.18" duration="490.00" routeLength="1292.98" waitingTime="345.00" waitingCount="6" stopTime="0.00" timeLoss="385.53" rerouteNo="0" devices="tripinfo_f_0_1.1" vType="type1" speedFactor="0.87" vaporized=""/>
    <tripinfo id="f_0_2.4" depart="33.00" departLane="np2_nt2_0" departPos="7.25" departSpeed="0.00" departDelay="0.27" arrival="600.00" arrivalLane="nt15_np10_0" arrivalPos="75.00" arrivalSpeed="8.93" duration="567.00" routeLength="943.83" waitingTime="430.00" waitingCount="9" stopTime="0.00" timeLoss="471.44" rerouteNo="0" devices="tripinfo_f_0_2.4" vType="type1" speedFactor="0.83" vaporized=""/>
    <tripinfo id="f_0_0.11" depart="150.00" departLane="np13_nt13_0" departPos="14.72" departSpeed="0.00" departDelay="0.00" arrival="650.00" arrivalLane="nt4_np5_0" arrivalPos="75.00" arrivalSpeed="16.02" duration="500.00" routeLength="1333.17" waitingTime="355.00" waitingCount="8" stopTime="0.00" timeLoss="396.98" rerouteNo="0" devices="tripinfo_f_0_0.11" vType="type1" speedFactor="0.89" vaporized=""/>
    <tripinfo id="f_0_3.8" depart="66.00" departLane="np3_nt3_0" departPos="30.06" departSpeed="0.00" departDelay="0.54" arrival="657.00" arrivalLane="nt14_np11_0" arrivalPos="75.00" arrivalSpeed="10.54" duration="591.00" routeLength="921.03" waitingTime="471.00" waitingCount="6" stopTime="0.00" timeLoss="515.09" rerouteNo="0" devices="tripinfo_f_0_3.8" vType="type1" speedFactor="1.03" vaporized=""/>
    <tripinfo id="f_0_3.9" depart="74.00" departLane="np3_nt3_0" departPos="36.30" departSpeed="0.00" departDelay="0.36" arrival="659.00" arrivalLane="nt14_np11_0" arrivalPos="75.00" arrivalSpeed="10.67" duration="585.00" routeLength="914.79" waitingTime="469.00" waitingCount="7" stopTime="0.00" timeLoss="510.70" rerouteNo="0" devices="tripinfo_f_0_3.9" vType="type1" speedFactor="1.04" vaporized=""/>
    <tripinfo id="f_0_3.10" depart="82.00" departLane="np3_nt3_0" departPos="6.04" departSpeed="0.00" departDelay="0.18" arrival="674.00" arrivalLane="nt14_np11_0" arrivalPos="75.00" arrivalSpeed="10.39" duration="592.00" routeLength="945.05" waitingTime="461.00" waitingCount="7" stopTime="0.00" timeLoss="509.53" rerouteNo="0" devices="tripinfo_f_0_3.10" vType="type1" speedFactor="0.96" vaporized=""/>
    <tripinfo id="f_0_2.5" depart="41.00" departLane="np2_nt2_0" departPos="47.95" departSpeed="0.00" departDelay="0.09" arrival="702.00" arrivalLane="nt15_np10_0" arrivalPos="75.00" arrivalSpeed="11.77" duration="661.00" routeLength="903.13" waitingTime="531.00" waitingCount="12" stopTime="0.00" timeLoss="590.79" rerouteNo="0" devices="tripinfo_f_0_2.5" vType="type1" speedFactor="1.08" vaporized=""/>
    <tripinfo id="f_0_2.6" depart="50.00" departLane="np2_nt2_0" departPos="40.79" departSpeed="0.00" departDelay="0.91" arrival="707.00" arrivalLane="nt15_np10_0" arrivalPos="75.00" arrivalSpeed="7.35" duration="657.00" routeLength="910.29" waitingTime="502.00" waitingCount="14" stopTime="0.00" timeLoss="563.53" rerouteNo="0" devices="tripinfo_f_0_2.6" vType="type1" speedFactor="0.81" vaporized=""/>
    <tripinfo id="f_0_2.7" depart="58.00" departLane="np2_nt2_0" departPos="39.45" departSpeed="0.00" departDelay="0.73" arrival="727.00" arrivalLane="nt15_np10_0" arrivalPos="75.00" arrivalSpeed="10.34" duration="669.00" routeLength="911.63" waitingTime="512.00" waitingCount="15" stopTime="0.00" timeLoss="597.37" rerouteNo="0" devices="tripinfo_f_0_2.7" vType="type1" speedFactor="1.07" vaporized=""/>
    <tripinfo id="f_0_2.8" depart="66.00" departLane="np2_nt2_0" departPos="10.08" departSpeed="0.00" departDelay="0.54" arrival="729.00" arrivalLane="nt15_np10_0" arrivalPos="75.00" arrivalSpeed="10.05" duration="663.00" routeLength="941.00" waitingTime="489.00" waitingCount="16" stopTime="0.00" timeLoss="580.90" rerouteNo="0" devices="tripinfo_f_0_2.8" vType="type1" speedFactor="0.97" vaporized=""/>
    <tripinfo id="f_0_0.12" depart="164.00" departLane="np13_nt13_0" departPos="24.76" departSpeed="0.00" departDelay="0.37" arrival="785.00" arrivalLane="nt4_np5_0" arrivalPos="75.00" arrivalSpeed="21.80" duration="621.00" routeLength="1323.13" waitingTime="476.00" waitingCount="11" stopTime="0.00" timeLoss="536.60" rerouteNo="0" devices="tripinfo_f_0_0.12" vType="type1" speedFactor="1.10" vaporized=""/>
    <tripinfo id="f_0_2.9" depart="74.00" departLane="np2_nt2_0" departPos="18.36" departSpeed="0.00" departDelay="0.36" arrival="787.00" arrivalLane="nt15_np10_0" arrivalPos="75.00" arrivalSpeed="10.55" duration="713.00" routeLength="932.72" waitingTime="485.00" waitingCount="21" stopTime="0.00" timeLoss="638.31" rerouteNo="0" devices="tripinfo_f_0_2.9" vType="type1" speedFactor="1.05" vaporized=""/>
    <tripinfo id="f_0_1.2" depart="28.00" departLane="np16_nt1_0" departPos="59.23" departSpeed="0.00" departDelay="0.73" arrival="788.00" arrivalLane="nt16_np8_0" arrivalPos="75.00" arrivalSpeed="19.70" duration="760.00" routeLength="1288.65" waitingTime="557.00" waitingCount="19" stopTime="0.00" timeLoss="672.72" rerouteNo="0" devices="tripinfo_f_0_1.2" vType="type1" speedFactor="1.03" vaporized=""/>
    <tripinfo id="f_0_1.3" depart="41.00" departLane="np16_nt1_0" departPos="23.90" departSpeed="0.00" departDelay="0.09" arrival="790.00" arrivalLane="nt16_np8_0" arrivalPos="75.00" arrivalSpeed="18.34" duration="749.00" routeLength="1323.98" waitingTime="523.00" waitingCount="22" stopTime="0.00" timeLoss="657.64" rerouteNo="0" devices="tripinfo_f_0_1.3" vType="type1" speedFactor="1.01" vaporized=""/>
    <tripinfo id="f_0_1.4" depart="55.00" departLane="np16_nt1_0" departPos="38.79" departSpeed="0.00" departDelay="0.46" arrival="793.00" arrivalLane="nt16_np8_0" arrivalPos="75.00" arrivalSpeed="13.31" duration="738.00" routeLength="1309.09" waitingTime="489.00" waitingCount="21" stopTime="0.00" timeLoss="620.51" rerouteNo="0" devices="tripinfo_f_0_1.4" vType="type1" speedFactor="0.77" vaporized=""/>
    <tripinfo id="f_0_0.13" depart="178.00" departLane="np13_nt13_0" departPos="49.17" departSpeed="0.00" departDelay="0.73" arrival="809.00" arrivalLane="nt4_np5_0" arrivalPos="75.00" arrivalSpeed="20.23" duration="631.00" routeLength="1298.72" waitingTime="473.00" waitingCount="12" stopTime="0.00" timeLoss="544.58" rerouteNo="0" devices="tripinfo_f_0_0.13" vType="type1" speedFactor="1.06" vaporized=""/>
    <tripinfo id="f_0_0.14" depart="191.00" departLane="np13_nt13_0" departPos="59.20" departSpeed="0.00" departDelay="0.10" arrival="810.00" arrivalLane="nt4_np5_0" arrivalPos="75.00" arrivalSpeed="20.19" duration="619.00" routeLength="1288.69" waitingTime="451.00" waitingCount="13" stopTime="0.00" timeLoss="531.58" rerouteNo="0" devices="tripinfo_f_0_0.14" vType="type1" speedFactor="1.04" vaporized=""/>
    <tripinfo id="f_0_0.15" depart="205.00" departLane="np13_nt13_0" departPos="34.13" departSpeed="0.00" departDelay="0.46" arrival="813.00" arrivalLane="nt4_np5_0" arrivalPos="75.00" arrivalSpeed="17.29" duration="608.00" routeLength="1313.76" waitingTime="414.00" waitingCount="12" stopTime="0.00" timeLoss="502.81" rerouteNo="0" devices="tripinfo_f_0_0.15" vType="type1" speedFactor="0.87" vaporized=""/>
    <tripinfo id="f_0_0.16" depart="219.00" departLane="np13_nt13_0" departPos="59.79" departSpeed="0.00" departDelay="0.82" arrival="814.00" arrivalLane="nt4_np5_0" arrivalPos="75.00" arrivalSpeed="20.07" duration="595.00" routeLength="1288.10" waitingTime="412.00" waitingCount="11" stopTime="0.00" timeLoss="508.07" rerouteNo="0" devices="tripinfo_f_0_0.16" vType="type1" speedFactor="1.04" vaporized=""/>
    <tripinfo id="f_0_0.17" depart="232.00" departLane="np13_nt13_0" departPos="26.55" departSpeed="0.00" departDelay="0.19" arrival="824.00" arrivalLane="nt4_np5_0" arrivalPos="75.00" arrivalSpeed="19.03" duration="592.00" routeLength="1321.34" waitingTime="416.00" waitingCount="11" stopTime="0.00" timeLoss="501.97" rerouteNo="0" devices="tripinfo_f_0_0.17" vType="type1" speedFactor="1.03" vaporized=""/>
    <tripinfo id="f_0_0.18" depart="246.00" departLane="np13_nt13_0" departPos="39.69" departSpeed="0.00" departDelay="0.55" arrival="840.00" arrivalLane="nt4_np5_0" arrivalPos="75.00" arrivalSpeed="18.25" duration="594.00" routeLength="1308.20" waitingTime="430.00" waitingCount="11" stopTime="0.00" timeLoss="503.94" rerouteNo="0" devices="tripinfo_f_0_0.18" vType="type1" speedFactor="1.02" vaporized=""/>
    <tripinfo id="f_0_0.19" depart="260.00" departLane="np13_nt13_0" departPos="35.04" departSpeed="0.00" departDelay="0.92" arrival="853.00" arrivalLane="nt4_np5_0" arrivalPos="75.00" arrivalSpeed="18.03" duration="593.00" routeLength="1312.85" waitingTime="423.00" waitingCount="11" stopTime="0.00" timeLoss="497.58" rerouteNo="0" devices="tripinfo_f_0_0.19" vType="type1" speedFactor="0.96" vaporized=""/>
    <tripinfo id="f_0_0.20" depart="273.00" departLane="np13_nt13_0" departPos="27.99" departSpeed="0.00" departDelay="0.28" arrival="854.00" arrivalLane="nt4_np5_0" arrivalPos="75.00" arrivalSpeed="19.94" duration="581.00" routeLength="1319.90" waitingTime="405.00" waitingCount="12" stopTime="0.00" timeLoss="495.06" rerouteNo="0" devices="tripinfo_f_0_0.20" vType="type1" speedFactor="1.06" vaporized=""/>
    <tripinfo id="f_0_3.11" depart="90.00" departLane="np3_nt3_0" departPos="48.24" departSpeed="0.00" departDelay="0.00" arrival="868.00" arrivalLane="nt14_np11_0" arrivalPos="75.00" arrivalSpeed="8.01" duration="778.00" routeLength="902.85" waitingTime="638.00" waitingCount="10" stopTime="0.00" timeLoss="693.03" rerouteNo="0" devices="tripinfo_f_0_3.11" vType="type1" speedFactor="0.89" vaporized=""/>
    <tripinfo id="f_0_3.12" depart="99.00" departLane="np3_nt3_0" departPos="56.43" departSpeed="0.00" departDelay="0.82" arrival="870.00" arrivalLane="nt14_np11_0" arrivalPos="75.00" arrivalSpeed="10.24" duration="771.00" routeLength="894.66" waitingTime="627.00" waitingCount="12" stopTime="0.00" timeLoss="690.88" rerouteNo="0" devices="tripinfo_f_0_3.12" vType="type1" speedFactor="0.93" vaporized=""/>
    <tripinfo id="f_0_0.21" depart="287.00" departLane="np13_nt13_0" departPos="38.40" departSpeed="0.00" departDelay="0.64" arrival="933.00" arrivalLane="nt4_np5_0" arrivalPos="75.00" arrivalSpeed="20.63" duration="646.00" routeLength="1309.49" waitingTime="472.00" waitingCount="12" stopTime="0.00" timeLoss="558.93" rerouteNo="0" devices="tripinfo_f_0_0.21" vType="type1" speedFactor="1.05" vaporized=""/>
    <tripinfo id="f_0_0.22" depart="300.00" departLane="np13_nt13_0" departPos="17.48" departSpeed="0.00" departDelay="0.01" arrival="954.00" arrivalLane="nt4_np5_0" arrivalPos="75.00" arrivalSpeed="16.12" duration="654.00" routeLength="1330.41" waitingTime="453.00" waitingCount="14" stopTime="0.00" timeLoss="548.64" rerouteNo="0" devices="tripinfo_f_0_0.22" vType="type1" speedFactor="0.88" vaporized=""/>
    <tripinfo id="f_0_2.10" depart="82.00" departLane="np2_nt2_0" departPos="24.24" departSpeed="0.00" departDelay="0.18" arrival="972.00" arrivalLane="nt15_np10_0" arrivalPos="75.00" arrivalSpeed="10.36" duration="890.00" routeLength="926.84" waitingTime="652.00" waitingCount="25" stopTime="0.00" timeLoss="812.04" rerouteNo="0" devices="tripinfo_f_0_2.10" vType="type1" speedFactor="1.00" vaporized=""/>
    <tripinfo id="f_0_2.11" depart="90.00" departLane="np2_nt2_0" departPos="37.88" departSpeed="0.00" departDelay="0.00" arrival="987.00" arrivalLane="nt15_np10_0" arrivalPos="75.00" arrivalSpeed="10.54" duration="897.00" routeLength="913.20" waitingTime="615.00" waitingCount="27" stopTime="0.00" timeLoss="821.09" rerouteNo="0" devices="tripinfo_f_0_2.11" vType="type1" speedFactor="1.01" vaporized=""/>
    <tripinfo id="f_0_2.12" depart="99.00" departLane="np2_nt2_0" departPos="46.60" departSpeed="0.00" departDelay="0.82" arrival="989.00" arrivalLane="nt15_np10_0" arrivalPos="75.00" arrivalSpeed="9.98" duration="890.00" routeLength="904.48" waitingTime="601.00" waitingCount="23" stopTime="0.00" timeLoss="814.73" rerouteNo="0" devices="tripinfo_f_0_2.12" vType="type1" speedFactor="1.01" vaporized=""/>
    <tripinfo id="f_0_1.7" depart="96.00" departLane="np16_nt1_0" departPos="48.24" departSpeed="0.00" departDelay="0.55" arrival="998.00" arrivalLane="nt16_np8_0" arrivalPos="75.00" arrivalSpeed="17.35" duration="902.00" routeLength="1299.64" waitingTime="673.00" waitingCount="25" stopTime="0.00" timeLoss="807.07" rerouteNo="0" devices="tripinfo_f_0_1.7" vType="type1" speedFactor="0.96" vaporized=""/>
    <tripinfo id="f_0_1.8" depart="110.00" departLane="np16_nt1_0" departPos="20.91" departSpeed="0.00" departDelay="0.91" arrival="1000.00" arrivalLane="nt16_np8_0" arrivalPos="75.00" arrivalSpeed="19.49" duration="890.00" routeLength="1326.97" waitingTime="638.00" waitingCount="23" stopTime="0.00" timeLoss="795.77" rerouteNo="0" devices="tripinfo_f_0_1.8" vType="type1" speedFactor="0.98" vaporized=""/>
    <tripinfo id="f_0_3.13" depart="107.00" departLane="np3_nt3_0" departPos="19.05" departSpeed="0.00" departDelay="0.63" arrival="1005.00" arrivalLane="nt14_np11_0" arrivalPos="75.00" arrivalSpeed="13.19" duration="898.00" routeLength="932.04" waitingTime="752.00" waitingCount="13" stopTime="0.00" timeLoss="835.92" rerouteNo="0" devices="tripinfo_f_0_3.13" vType="type1" speedFactor="1.26" vaporized=""/>
    <tripinfo id="f_0_3.14" depart="115.00" departLane="np3_nt3_0" departPos="46.05" departSpeed="0.00" departDelay="0.45" arrival="1010.00" arrivalLane="nt14_np11_0" arrivalPos="75.00" arrivalSpeed="10.33" duration="895.00" routeLength="905.04" waitingTime="737.00" waitingCount="13" stopTime="0.00" timeLoss="816.96" rerouteNo="0" devices="tripinfo_f_0_3.14" vType="type1" speedFactor="0.97" vaporized=""/>
    <tripinfo id="f_0_2.29" depart="238.00" departLane="np2_nt2_0" departPos="15.66" departSpeed="0.00" departDelay="0.72" arrival="1012.00" arrivalLane="nt15_np10_0" arrivalPos="75.00" arrivalSpeed="9.22" duration="774.00" routeLength="935.42" waitingTime="543.00" waitingCount="18" stopTime="0.00" timeLoss="697.75" rerouteNo="0" devices="tripinfo_f_0_2.29" vType="type1" speedFactor="1.03" vaporized=""/>
    <tripinfo id="f_0_2.13" depart="107.00" departLane="np2_nt2_0" departPos="0.76" departSpeed="0.00" departDelay="0.63" arrival="1014.00" arrivalLane="nt15_np10_0" arrivalPos="75.00" arrivalSpeed="10.09" duration="907.00" routeLength="950.32" waitingTime="613.00" waitingCount="21" stopTime="0.00" timeLoss="828.21" rerouteNo="0" devices="tripinfo_f_0_2.13" vType="type1" speedFactor="1.02" vaporized=""/>
    <tripinfo id="f_1_0.0" depart="300.00" departLane="np13_nt13_0" departPos="0.35" departSpeed="0.00" departDelay="0.00" arrival="1031.00" arrivalLane="nt4_np5_0" arrivalPos="75.00" arrivalSpeed="18.48" duration="731.00" routeLength="1347.54" waitingTime="532.00" waitingCount="14" stopTime="0.00" timeLoss="633.09" rerouteNo="0" devices="tripinfo_f_1_0.0" vType="type1" speedFactor="0.95" vaporized=""/>
    <tripinfo id="f_1_0.1" depart="308.00" departLane="np13_nt13_0" departPos="29.16" departSpeed="0.00" departDelay="0.19" arrival="1033.00" arrivalLane="nt4_np5_0" arrivalPos="75.00" arrivalSpeed="18.48" duration="725.00" routeLength="1318.73" waitingTime="518.00" waitingCount="14" stopTime="0.00" timeLoss="633.85" rerouteNo="0" devices="tripinfo_f_1_0.1" vType="type1" speedFactor="1.01" vaporized=""/>
    <tripinfo id="f_0_2.30" depart="246.00" departLane="np2_nt2_0" departPos="12.46" departSpeed="0.00" departDelay="0.54" arrival="1047.00" arrivalLane="nt15_np10_0" arrivalPos="75.00" arrivalSpeed="11.35" duration="801.00" routeLength="938.62" waitingTime="579.00" waitingCount="21" stopTime="0.00" timeLoss="725.18" rerouteNo="0" devices="tripinfo_f_0_2.30" vType="type1" speedFactor="1.04" vaporized=""/>
    <tripinfo id="f_1_0.2" depart="316.00" departLane="np13_nt13_0" departPos="13.14" departSpeed="0.00" departDelay="0.38" arrival="1058.00" arrivalLane="nt4_np5_0" arrivalPos="75.00" arrivalSpeed="17.56" duration="742.00" routeLength="1334.75" waitingTime="515.00" waitingCount="14" stopTime="0.00" timeLoss="645.45" rerouteNo="0" devices="tripinfo_f_1_0.2" vType="type1" speedFactor="0.96" vaporized=""/>
    <tripinfo id="f_1_0.3" depart="324.00" departLane="np13_nt13_0" departPos="11.64" departSpeed="0.00" departDelay="0.57" arrival="1060.00" arrivalLane="nt4_np5_0" arrivalPos="75.00" arrivalSpeed="17.23" duration="736.00" routeLength="1336.25" waitingTime="508.00" waitingCount="14" stopTime="0.00" timeLoss="632.18" rerouteNo="0" devices="tripinfo_f_1_0.3" vType="type1" speedFactor="0.90" vaporized=""/>
    <tripinfo id="f_0_2.14" depart="115.00" departLane="np2_nt2_0" departPos="47.90" departSpeed="0.00" departDelay="0.45" arrival="1064.00" arrivalLane="nt15_np10_0" arrivalPos="75.00" arrivalSpeed="8.18" duration="949.00" routeLength="903.18" waitingTime="656.00" waitingCount="24" stopTime="0.00" timeLoss="857.82" rerouteNo="0" devices="tripinfo_f_0_2.14" vType="type1" speedFactor="0.83" vaporized=""/>
    <tripinfo id="f_0_2.15" depart="123.00" departLane="np2_nt2_0" departPos="2.72" departSpeed="0.00" departDelay="0.27" arrival="1066.00" arrivalLane="nt15_np10_0" arrivalPos="75.00" arrivalSpeed="7.97" duration="943.00" routeLength="948.36" waitingTime="670.00" waitingCount="21" stopTime="0.00" timeLoss="855.08" rerouteNo="0" devices="tripinfo_f_0_2.15" vType="type1" speedFactor="0.91" vaporized=""/>
    <tripinfo id="f_0_3.15" depart="123.00" departLane="np3_nt3_0" departPos="24.64" departSpeed="0.00" departDelay="0.27" arrival="1069.00" arrivalLane="nt14_np11_0" arrivalPos="75.00" arrivalSpeed="9.80" duration="946.00" routeLength="926.45" waitingTime="770.00" waitingCount="14" stopTime="0.00" timeLoss="858.79" rerouteNo="0" devices="tripinfo_f_0_3.15" vType="type1" speedFactor="0.89" vaporized=""/>
    <tripinfo id="f_0_3.16" depart="131.00" departLane="np3_nt3_0" departPos="45.81" departSpeed="0.00" departDelay="0.09" arrival="1071.00" arrivalLane="nt14_np11_0" arrivalPos="75.00" arrivalSpeed="10.48" duration="940.00" routeLength="905.28" waitingTime="764.00" waitingCount="18" stopTime="0.00" timeLoss="863.42" rerouteNo="0" devices="tripinfo_f_0_3.16" vType="type1" speedFactor="0.99" vaporized=""/>
    <tripinfo id="f_0_1.9" depart="123.00" departLane="np16_nt1_0" departPos="64.80" departSpeed="0.00" departDelay="0.28" arrival="1088.00" arrivalLane="nt16_np8_0" arrivalPos="75.00" arrivalSpeed="21.48" duration="965.00" routeLength="1283.08" waitingTime="710.00" waitingCount="22" stopTime="0.00" timeLoss="884.95" rerouteNo="0" devices="tripinfo_f_0_1.9" vType="type1" speedFactor="1.12" vaporized=""/>
    <tripinfo id="f_0_2.16" depart="131.00" departLane="np2_nt2_0" departPos="29.91" departSpeed="0.00" departDelay="0.09" arrival="1102.00" arrivalLane="nt15_np10_0" arrivalPos="75.00" arrivalSpeed="10.59" duration="971.00" routeLength="921.17" waitingTime="683.00" waitingCount="23" stopTime="0.00" timeLoss="896.71" rerouteNo="0" devices="tripinfo_f_0_2.16" vType="type1" speedFactor="1.04" vaporized=""/>