<?xml version="1.0" encoding="UTF-8"?>

<!-- generated on 2023-08-30 18:33:08 by Eclipse SUMO libsumo Version 1.18.0
<configuration xmlns:xsi="http://www.w3.org/2001/XMLSchema-instance" xsi:noNamespaceSchemaLocation="http://sumo.dlr.de/xsd/libsumoConfiguration.xsd">

    <input>
        <net-file value="/home/stefan/RESCO/./environments/arterial4x4/arterial4x4.net.xml"/>
        <route-files value="/home/stefan/RESCO/./environments/arterial4x4/arterial4x4_35.rou.xml"/>
    </input>

    <output>
        <tripinfo-output value="/home/stefan/results/RAINBOW-tr0-arterial4x4-0-drq_norm-wait_norm/tripinfo_35.xml"/>
        <tripinfo-output.write-unfinished value="true"/>
    </output>

    <processing>
        <time-to-teleport value="-1"/>
    </processing>

    <report>
        <no-warnings value="True"/>
        <no-step-log value="True"/>
    </report>

    <random_number>
        <random value="true"/>
    </random_number>

</configuration>
-->

<tripinfos xmlns:xsi="http://www.w3.org/2001/XMLSchema-instance" xsi:noNamespaceSchemaLocation="http://sumo.dlr.de/xsd/tripinfo_file.xsd">
    <tripinfo id="f_0_2.0" depart="0.00" departLane="np2_nt2_0" departPos="45.67" departSpeed="0.00" departDelay="0.00" arrival="147.00" arrivalLane="nt15_np10_0" arrivalPos="75.00" arrivalSpeed="9.75" duration="147.00" routeLength="905.41" waitingTime="55.00" waitingCount="3" stopTime="0.00" timeLoss="77.61" rerouteNo="0" devices="tripinfo_f_0_2.0" vType="type1" speedFactor="1.10" vaporized=""/>
    <tripinfo id="f_0_3.0" depart="0.00" departLane="np3_nt3_0" departPos="12.67" departSpeed="0.00" departDelay="0.00" arrival="157.00" arrivalLane="nt14_np11_0" arrivalPos="75.00" arrivalSpeed="9.57" duration="157.00" routeLength="938.42" waitingTime="56.00" waitingCount="4" stopTime="0.00" timeLoss="83.51" rerouteNo="0" devices="tripinfo_f_0_3.0" vType="type1" speedFactor="1.07" vaporized=""/>
    <tripinfo id="f_0_2.1" depart="9.00" departLane="np2_nt2_0" departPos="8.73" departSpeed="0.00" departDelay="0.82" arrival="168.00" arrivalLane="nt15_np10_0" arrivalPos="75.00" arrivalSpeed="10.34" duration="159.00" routeLength="942.35" waitingTime="52.00" waitingCount="5" stopTime="0.00" timeLoss="76.04" rerouteNo="0" devices="tripinfo_f_0_2.1" vType="type1" speedFactor="0.96" vaporized=""/>
    <tripinfo id="f_0_3.1" depart="9.00" departLane="np3_nt3_0" departPos="5.73" departSpeed="0.00" departDelay="0.82" arrival="197.00" arrivalLane="nt14_np11_0" arrivalPos="75.00" arrivalSpeed="9.76" duration="188.00" routeLength="945.36" waitingTime="84.00" waitingCount="5" stopTime="0.00" timeLoss="108.67" rerouteNo="0" devices="tripinfo_f_0_3.1" vType="type1" speedFactor="1.00" vaporized=""/>
    <tripinfo id="f_0_0.0" depart="0.00" departLane="np13_nt13_0" departPos="59.81" departSpeed="0.00" departDelay="0.00" arrival="198.00" arrivalLane="nt4_np5_0" arrivalPos="75.00" arrivalSpeed="21.47" duration="198.00" routeLength="1288.08" waitingTime="77.00" waitingCount="5" stopTime="0.00" timeLoss="115.37" rerouteNo="0" devices="tripinfo_f_0_0.0" vType="type1" speedFactor="1.10" vaporized=""/>
    <tripinfo id="f_0_2.2" depart="17.00" departLane="np2_nt2_0" departPos="10.73" departSpeed="0.00" departDelay="0.64" arrival="212.00" arrivalLane="nt15_np10_0" arrivalPos="75.00" arrivalSpeed="9.63" duration="195.00" routeLength="940.35" waitingTime="93.00" waitingCount="5" stopTime="0.00" timeLoss="117.18" rerouteNo="0" devices="tripinfo_f_0_2.2" vType="type1" speedFactor="1.02" vaporized=""/>
    <tripinfo id="f_0_3.2" depart="17.00" departLane="np3_nt3_0" departPos="37.65" departSpeed="0.00" departDelay="0.64" arrival="244.00" arrivalLane="nt14_np11_0" arrivalPos="75.00" arrivalSpeed="7.65" duration="227.00" routeLength="913.44" waitingTime="108.00" waitingCount="6" stopTime="0.00" timeLoss="138.87" rerouteNo="0" devices="tripinfo_f_0_3.2" vType="type1" speedFactor="0.87" vaporized=""/>
    <tripinfo id="f_0_0.1" depart="14.00" departLane="np13_nt13_0" departPos="60.39" departSpeed="0.00" departDelay="0.36" arrival="248.00" arrivalLane="nt4_np5_0" arrivalPos="75.00" arrivalSpeed="18.63" duration="234.00" routeLength="1287.50" waitingTime="111.00" waitingCount="5" stopTime="0.00" timeLoss="144.00" rerouteNo="0" devices="tripinfo_f_0_0.1" vType="type1" speedFactor="1.00" vaporized=""/>
    <tripinfo id="f_0_2.3" depart="25.00" departLane="np2_nt2_0" departPos="21.78" departSpeed="0.00" departDelay="0.45" arrival="254.00" arrivalLane="nt15_np10_0" arrivalPos="75.00" arrivalSpeed="8.76" duration="229.00" routeLength="929.30" waitingTime="110.00" waitingCount="5" stopTime="0.00" timeLoss="136.70" rerouteNo="0" devices="tripinfo_f_0_2.3" vType="type1" speedFactor="0.84" vaporized=""/>
    <tripinfo id="f_0_3.3" depart="25.00" departLane="np3_nt3_0" departPos="8.69" departSpeed="0.00" departDelay="0.45" arrival="254.00" arrivalLane="nt14_np11_0" arrivalPos="75.00" arrivalSpeed="9.54" duration="229.00" routeLength="942.40" waitingTime="95.00" waitingCount="9" stopTime="0.00" timeLoss="138.85" rerouteNo="0" devices="tripinfo_f_0_3.3" vType="type1" speedFactor="0.88" vaporized=""/>
    <tripinfo id="f_0_2.4" depart="33.00" departLane="np2_nt2_0" departPos="38.12" departSpeed="0.00" departDelay="0.27" arrival="262.00" arrivalLane="nt15_np10_0" arrivalPos="75.00" arrivalSpeed="8.95" duration="229.00" routeLength="912.96" waitingTime="116.00" waitingCount="6" stopTime="0.00" timeLoss="148.00" rerouteNo="0" devices="tripinfo_f_0_2.4" vType="type1" speedFactor="0.94" vaporized=""/>
    <tripinfo id="f_0_3.4" depart="33.00" departLane="np3_nt3_0" departPos="6.24" departSpeed="0.00" departDelay="0.27" arrival="298.00" arrivalLane="nt14_np11_0" arrivalPos="75.00" arrivalSpeed="8.69" duration="265.00" routeLength="944.85" waitingTime="139.00" waitingCount="6" stopTime="0.00" timeLoss="174.40" rerouteNo="0" devices="tripinfo_f_0_3.4" vType="type1" speedFactor="0.88" vaporized=""/>
    <tripinfo id="f_0_3.5" depart="41.00" departLane="np3_nt3_0" departPos="21.41" departSpeed="0.00" departDelay="0.09" arrival="312.00" arrivalLane="nt14_np11_0" arrivalPos="75.00" arrivalSpeed="12.58" duration="271.00" routeLength="929.68" waitingTime="173.00" waitingCount="6" stopTime="0.00" timeLoss="206.10" rerouteNo="0" devices="tripinfo_f_0_3.5" vType="type1" speedFactor="1.20" vaporized=""/>
    <tripinfo id="f_0_1.0" depart="0.00" departLane="np16_nt1_0" departPos="39.07" departSpeed="0.00" departDelay="0.00" arrival="313.00" arrivalLane="nt16_np8_0" arrivalPos="75.00" arrivalSpeed="18.77" duration="313.00" routeLength="1308.81" waitingTime="176.00" waitingCount="8" stopTime="0.00" timeLoss="226.94" rerouteNo="0" devices="tripinfo_f_0_1.0" vType="type1" speedFactor="1.06" vaporized=""/>
    <tripinfo id="f_0_0.2" depart="28.00" departLane="np13_nt13_0" departPos="34.37" departSpeed="0.00" departDelay="0.73" arrival="353.00" arrivalLane="nt4_np5_0" arrivalPos="75.00" arrivalSpeed="17.25" duration="325.00" routeLength="1313.52" waitingTime="187.00" waitingCount="7" stopTime="0.00" timeLoss="227.24" rerouteNo="0" devices="tripinfo_f_0_0.2" vType="type1" speedFactor="0.94" vaporized=""/>
    <tripinfo id="f_0_2.5" depart="41.00" departLane="np2_nt2_0" departPos="4.73" departSpeed="0.00" departDelay="0.09" arrival="361.00" arrivalLane="nt15_np10_0" arrivalPos="75.00" arrivalSpeed="9.87" duration="320.00" routeLength="946.35" waitingTime="198.00" waitingCount="6" stopTime="0.00" timeLoss="232.27" rerouteNo="0" devices="tripinfo_f_0_2.5" vType="type1" speedFactor="0.91" vaporized=""/>
    <tripinfo id="f_0_0.3" depart="41.00" departLane="np13_nt13_0" departPos="34.98" departSpeed="0.00" departDelay="0.09" arrival="374.00" arrivalLane="nt4_np5_0" arrivalPos="75.00" arrivalSpeed="18.33" duration="333.00" routeLength="1312.91" waitingTime="197.00" waitingCount="8" stopTime="0.00" timeLoss="240.12" rerouteNo="0" devices="tripinfo_f_0_0.3" vType="type1" speedFactor="0.99" vaporized=""/>
    <tripinfo id="f_0_0.4" depart="55.00" departLane="np13_nt13_0" departPos="28.65" departSpeed="0.00" departDelay="0.46" arrival="404.00" arrivalLane="nt4_np5_0" arrivalPos="75.00" arrivalSpeed="18.44" duration="349.00" routeLength="1319.24" waitingTime="206.00" waitingCount="9" stopTime="0.00" timeLoss="249.75" rerouteNo="0" devices="tripinfo_f_0_0.4" vType="type1" speedFactor="0.93" vaporized=""/>
    <tripinfo id="f_0_0.5" depart="69.00" departLane="np13_nt13_0" departPos="3.65" departSpeed="0.00" departDelay="0.82" arrival="419.00" arrivalLane="nt4_np5_0" arrivalPos="75.00" arrivalSpeed="18.69" duration="350.00" routeLength="1344.24" waitingTime="200.00" waitingCount="11" stopTime="0.00" timeLoss="254.08" rerouteNo="0" devices="tripinfo_f_0_0.5" vType="type1" speedFactor="0.98" vaporized=""/>
    <tripinfo id="f_0_0.6" depart="82.00" departLane="np13_nt13_0" departPos="38.86" departSpeed="0.00" departDelay="0.18" arrival="448.00" arrivalLane="nt4_np5_0" arrivalPos="75.00" arrivalSpeed="20.76" duration="366.00" routeLength="1309.03" waitingTime="214.00" waitingCount="11" stopTime="0.00" timeLoss="279.49" rerouteNo="0" devices="tripinfo_f_0_0.6" vType="type1" speedFactor="1.06" vaporized=""/>
    <tripinfo id="f_0_0.7" depart="96.00" departLane="np13_nt13_0" departPos="63.52" departSpeed="0.00" departDelay="0.55" arrival="465.00" arrivalLane="nt4_np5_0" arrivalPos="75.00" arrivalSpeed="20.69" duration="369.00" routeLength="1284.37" waitingTime="232.00" waitingCount="11" stopTime="0.00" timeLoss="282.59" rerouteNo="0" devices="tripinfo_f_0_0.7" vType="type1" speedFactor="1.05" vaporized=""/>
    <tripinfo id="f_0_3.6" depart="50.00" departLane="np3_nt3_0" departPos="16.72" departSpeed="0.00" departDelay="0.91" arrival="482.00" arrivalLane="nt14_np11_0" arrivalPos="75.00" arrivalSpeed="11.22" duration="432.00" routeLength="934.37" waitingTime="312.00" waitingCount="9" stopTime="0.00" timeLoss="358.72" rerouteNo="0" devices="tripinfo_f_0_3.6" vType="type1" speedFactor="1.07" vaporized=""/>
    <tripinfo id="f_0_3.7" depart="58.00" departLane="np3_nt3_0" departPos="3.20" departSpeed="0.00" departDelay="0.73" arrival="489.00" arrivalLane="nt14_np11_0" arrivalPos="75.00" arrivalSpeed="8.81" duration="431.00" routeLength="947.89" waitingTime="282.00" waitingCount="10" stopTime="0.00" timeLoss="337.40" rerouteNo="0" devices="tripinfo_f_0_3.7" vType="type1" speedFactor="0.85" vaporized=""/>
    <tripinfo id="f_0_3.8" depart="66.00" departLane="np3_nt3_0" departPos="5.68" departSpeed="0.00" departDelay="0.54" arrival="490.00" arrivalLane="nt14_np11_0" arrivalPos="75.00" arrivalSpeed="10.84" duration="424.00" routeLength="945.41" waitingTime="277.00" waitingCount="11" stopTime="0.00" timeLoss="344.48" rerouteNo="0" devices="tripinfo_f_0_3.8" vType="type1" speedFactor="1.00" vaporized=""/>
    <tripinfo id="f_0_0.8" depart="110.00" departLane="np13_nt13_0" departPos="43.67" departSpeed="0.00" departDelay="0.91" arrival="538.00" arrivalLane="nt4_np5_0" arrivalPos="75.00" arrivalSpeed="18.85" duration="428.00" routeLength="1304.22" waitingTime="271.00" waitingCount="14" stopTime="0.00" timeLoss="335.32" rerouteNo="0" devices="tripinfo_f_0_0.8" vType="type1" speedFactor="0.98" vaporized=""/>
    <tripinfo id="f_0_2.6" depart="50.00" departLane="np2_nt2_0" departPos="42.13" departSpeed="0.00" departDelay="0.91" arrival="547.00" arrivalLane="nt15_np10_0" arrivalPos="75.00" arrivalSpeed="9.69" duration="497.00" routeLength="908.95" waitingTime="379.00" waitingCount="8" stopTime="0.00" timeLoss="423.45" rerouteNo="0" devices="tripinfo_f_0_2.6" vType="type1" speedFactor="1.04" vaporized=""/>
    <tripinfo id="f_0_3.9" depart="74.00" departLane="np3_nt3_0" departPos="0.00" departSpeed="0.00" departDelay="0.36" arrival="549.00" arrivalLane="nt14_np11_0" arrivalPos="75.00" arrivalSpeed="7.07" duration="475.00" routeLength="951.09" waitingTime="305.00" waitingCount="12" stopTime="0.00" timeLoss="377.98" rerouteNo="0" devices="tripinfo_f_0_3.9" vType="type1" speedFactor="0.83" vaporized=""/>
    <tripinfo id="f_0_3.10" depart="108.00" departLane="np3_nt3_0" departPos="0.00" departSpeed="0.00" departDelay="26.18" arrival="551.00" arrivalLane="nt14_np11_0" arrivalPos="75.00" arrivalSpeed="11.51" duration="443.00" routeLength="951.09" waitingTime="289.00" waitingCount="12" stopTime="0.00" timeLoss="375.19" rerouteNo="0" devices="tripinfo_f_0_3.10" vType="type1" speedFactor="1.18" vaporized=""/>
    <tripinfo id="f_0_3.11" depart="123.00" departLane="np3_nt3_0" departPos="0.00" departSpeed="0.00" departDelay="33.00" arrival="553.00" arrivalLane="nt14_np11_0" arrivalPos="75.00" arrivalSpeed="8.73" duration="430.00" routeLength="951.09" waitingTime="281.00" waitingCount="12" stopTime="0.00" timeLoss="350.15" rerouteNo="0" devices="tripinfo_f_0_3.11" vType="type1" speedFactor="1.00" vaporized=""/>
    <tripinfo id="f_0_3.12" depart="133.00" departLane="np3_nt3_0" departPos="0.14" departSpeed="0.00" departDelay="34.82" arrival="555.00" arrivalLane="nt14_np11_0" arrivalPos="75.00" arrivalSpeed="9.15" duration="422.00" routeLength="950.95" waitingTime="270.00" waitingCount="13" stopTime="0.00" timeLoss="342.04" rerouteNo="0" devices="tripinfo_f_0_3.12" vType="type1" speedFactor="1.00" vaporized=""/>
    <tripinfo id="f_0_1.1" depart="14.00" departLane="np16_nt1_0" departPos="38.21" departSpeed="0.00" departDelay="0.36" arrival="559.00" arrivalLane="nt16_np8_0" arrivalPos="75.00" arrivalSpeed="17.32" duration="545.00" routeLength="1309.67" waitingTime="392.00" waitingCount="11" stopTime="0.00" timeLoss="443.81" rerouteNo="0" devices="tripinfo_f_0_1.1" vType="type1" speedFactor="0.91" vaporized=""/>
    <tripinfo id="f_0_0.9" depart="123.00" departLane="np13_nt13_0" departPos="41.67" departSpeed="0.00" departDelay="0.28" arrival="566.00" arrivalLane="nt4_np5_0" arrivalPos="75.00" arrivalSpeed="18.33" duration="443.00" routeLength="1306.22" waitingTime="310.00" waitingCount="9" stopTime="0.00" timeLoss="349.31" rerouteNo="0" devices="tripinfo_f_0_0.9" vType="type1" speedFactor="0.98" vaporized=""/>
    <tripinfo id="f_0_0.10" depart="137.00" departLane="np13_nt13_0" departPos="9.90" departSpeed="0.00" departDelay="0.64" arrival="619.00" arrivalLane="nt4_np5_0" arrivalPos="75.00" arrivalSpeed="17.43" duration="482.00" routeLength="1337.99" waitingTime="329.00" waitingCount="10" stopTime="0.00" timeLoss="378.97" rerouteNo="0" devices="tripinfo_f_0_0.10" vType="type1" speedFactor="0.90" vaporized=""/>
    <tripinfo id="f_0_2.7" depart="58.00" departLane="np2_nt2_0" departPos="39.93" departSpeed="0.00" departDelay="0.73" arrival="637.00" arrivalLane="nt15_np10_0" arrivalPos="75.00" arrivalSpeed="9.46" duration="579.00" routeLength="911.15" waitingTime="444.00" waitingCount="13" stopTime="0.00" timeLoss="507.01" rerouteNo="0" devices="tripinfo_f_0_2.7" vType="type1" speedFactor="1.07" vaporized=""/>
    <tripinfo id="f_0_2.8" depart="66.00" departLane="np2_nt2_0" departPos="31.68" departSpeed="0.00" departDelay="0.54" arrival="639.00" arrivalLane="nt15_np10_0" arrivalPos="75.00" arrivalSpeed="9.56" duration="573.00" routeLength="919.40" waitingTime="423.00" waitingCount="13" stopTime="0.00" timeLoss="497.70" rerouteNo="0" devices="tripinfo_f_0_2.8" vType="type1" speedFactor="1.02" vaporized=""/>
    <tripinfo id="f_0_3.13" depart="178.00" departLane="np3_nt3_0" departPos="0.00" departSpeed="0.00" departDelay="71.63" arrival="645.00" arrivalLane="nt14_np11_0" arrivalPos="75.00" arrivalSpeed="9.80" duration="467.00" routeLength="951.09" waitingTime="328.00" waitingCount="11" stopTime="0.00" timeLoss="394.88" rerouteNo="0" devices="tripinfo_f_0_3.13" vType="type1" speedFactor="1.10" vaporized=""/>
    <tripinfo id="f_0_2.9" depart="74.00" departLane="np2_nt2_0" departPos="60.64" departSpeed="0.00" departDelay="0.36" arrival="652.00" arrivalLane="nt15_np10_0" arrivalPos="75.00" arrivalSpeed="8.39" duration="578.00" routeLength="890.44" waitingTime="417.00" waitingCount="15" stopTime="0.00" timeLoss="502.39" rerouteNo="0" devices="tripinfo_f_0_2.9" vType="type1" speedFactor="0.98" vaporized=""/>
    <tripinfo id="f_0_2.10" depart="82.00" departLane="np2_nt2_0" departPos="3.76" departSpeed="0.00" departDelay="0.18" arrival="654.00" arrivalLane="nt15_np10_0" arrivalPos="75.00" arrivalSpeed="8.10" duration="572.00" routeLength="947.32" waitingTime="399.00" waitingCount="15" stopTime="0.00" timeLoss="487.36" rerouteNo="0" devices="tripinfo_f_0_2.10" vType="type1" speedFactor="0.94" vaporized=""/>
    <tripinfo id="f_0_0.11" depart="150.00" departLane="np13_nt13_0" departPos="42.55" departSpeed="0.00" departDelay="0.00" arrival="673.00" arrivalLane="nt4_np5_0" arrivalPos="75.00" arrivalSpeed="16.46" duration="523.00" routeLength="1305.34" waitingTime="366.00" waitingCount="10" stopTime="0.00" timeLoss="424.74" rerouteNo="0" devices="tripinfo_f_0_0.11" vType="type1" speedFactor="0.93" vaporized=""/>
    <tripinfo id="f_0_3.14" depart="233.00" departLane="np3_nt3_0" departPos="0.00" departSpeed="0.00" departDelay="118.45" arrival="682.00" arrivalLane="nt14_np11_0" arrivalPos="75.00" arrivalSpeed="10.37" duration="449.00" routeLength="951.09" waitingTime="296.00" waitingCount="12" stopTime="0.00" timeLoss="368.22" rerouteNo="0" devices="tripinfo_f_0_3.14" vType="type1" speedFactor="0.99" vaporized=""/>
    <tripinfo id="f_0_3.15" depart="339.00" departLane="np3_nt3_0" departPos="0.00" departSpeed="0.00" departDelay="216.27" arrival="698.00" arrivalLane="nt14_np11_0" arrivalPos="75.00" arrivalSpeed="8.03" duration="359.00" routeLength="951.09" waitingTime="200.00" waitingCount="11" stopTime="0.00" timeLoss="269.80" rerouteNo="0" devices="tripinfo_f_0_3.15" vType="type1" speedFactor="0.90" vaporized=""/>
    <tripinfo id="f_0_3.16" depart="352.00" departLane="np3_nt3_0" departPos="0.00" departSpeed="0.00" departDelay="221.09" arrival="701.00" arrivalLane="nt14_np11_0" arrivalPos="75.00" arrivalSpeed="9.65" duration="349.00" routeLength="951.09" waitingTime="204.00" waitingCount="9" stopTime="0.00" timeLoss="263.65" rerouteNo="0" devices="tripinfo_f_0_3.16" vType="type1" speedFactor="0.94" vaporized=""/>
    <tripinfo id="f_0_2.11" depart="90.00" departLane="np2_nt2_0" departPos="2.03" departSpeed="0.00" departDelay="0.00" arrival="722.00" arrivalLane="nt15_np10_0" arrivalPos="75.00" arrivalSpeed="11.82" duration="632.00" routeLength="949.05" waitingTime="456.00" waitingCount="16" stopTime="0.00" timeLoss="557.85" rerouteNo="0" devices="tripinfo_f_0_2.11" vType="type1" speedFactor="1.08" vaporized=""/>
    <tripinfo id="f_0_2.25" depart="205.00" departLane="np2_nt2_0" departPos="41.80" departSpeed="0.00" departDelay="0.45" arrival="724.00" arrivalLane="nt15_np10_0" arrivalPos="75.00" arrivalSpeed="9.04" duration="519.00" routeLength="909.28" waitingTime="381.00" waitingCount="13" stopTime="0.00" timeLoss="445.32" rerouteNo="0" devices="tripinfo_f_0_2.25" vType="type1" speedFactor="1.03" vaporized=""/>
    <tripinfo id="f_0_1.2" depart="28.00" departLane="np16_nt1_0" departPos="57.23" departSpeed="0.00" departDelay="0.73" arrival="734.00" arrivalLane="nt16_np8_0" arrivalPos="75.00" arrivalSpeed="19.31" duration="706.00" routeLength="1290.65" waitingTime="504.00" waitingCount="20" stopTime="0.00" timeLoss="615.82" rerouteNo="0" devices="tripinfo_f_0_1.2" vType="type1" speedFactor="1.01" vaporized=""/>
    <tripinfo id="f_0_0.12" depart="164.00" departLane="np13_nt13_0" departPos="50.36" departSpeed="0.00" departDelay="0.37" arrival="744.00" arrivalLane="nt4_np5_0" arrivalPos="75.00" arrivalSpeed="16.80" duration="580.00" routeLength="1297.53" waitingTime="410.00" waitingCount="14" stopTime="0.00" timeLoss="478.87" rerouteNo="0" devices="tripinfo_f_0_0.12" vType="type1" speedFactor="0.90" vaporized=""/>
    <tripinfo id="f_0_0.13" depart="178.00" departLane="np13_nt13_0" departPos="37.00" departSpeed="0.00" departDelay="0.73" arrival="759.00" arrivalLane="nt4_np5_0" arrivalPos="75.00" arrivalSpeed="19.87" duration="581.00" routeLength="1310.89" waitingTime="404.00" waitingCount="16" stopTime="0.00" timeLoss="491.73" rerouteNo="0" devices="tripinfo_f_0_0.13" vType="type1" speedFactor="1.03" vaporized=""/>
    <tripinfo id="f_0_0.14" depart="191.00" departLane="np13_nt13_0" departPos="36.78" departSpeed="0.00" departDelay="0.10" arrival="768.00" arrivalLane="nt4_np5_0" arrivalPos="75.00" arrivalSpeed="22.05" duration="577.00" routeLength="1311.11" waitingTime="404.00" waitingCount="16" stopTime="0.00" timeLoss="494.09" rerouteNo="0" devices="tripinfo_f_0_0.14" vType="type1" speedFactor="1.11" vaporized=""/>
    <tripinfo id="f_0_0.15" depart="205.00" departLane="np13_nt13_0" departPos="57.60" departSpeed="0.00" departDelay="0.46" arrival="770.00" arrivalLane="nt4_np5_0" arrivalPos="75.00" arrivalSpeed="22.68" duration="565.00" routeLength="1290.29" waitingTime="400.00" waitingCount="16" stopTime="0.00" timeLoss="489.22" rerouteNo="0" devices="tripinfo_f_0_0.15" vType="type1" speedFactor="1.20" vaporized=""/>
    <tripinfo id="f_0_0.16" depart="219.00" departLane="np13_nt13_0" departPos="9.04" departSpeed="0.00" departDelay="0.82" arrival="771.00" arrivalLane="nt4_np5_0" arrivalPos="75.00" arrivalSpeed="20.49" duration="552.00" routeLength="1338.85" waitingTime="382.00" waitingCount="15" stopTime="0.00" timeLoss="464.57" rerouteNo="0" devices="tripinfo_f_0_0.16" vType="type1" speedFactor="1.05" vaporized=""/>
    <tripinfo id="f_0_0.17" depart="232.00" departLane="np13_nt13_0" departPos="57.75" departSpeed="0.00" departDelay="0.19" arrival="773.00" arrivalLane="nt4_np5_0" arrivalPos="75.00" arrivalSpeed="21.99" duration="541.00" routeLength="1290.14" waitingTime="383.00" waitingCount="13" stopTime="0.00" timeLoss="462.91" rerouteNo="0" devices="tripinfo_f_0_0.17" vType="type1" speedFactor="1.15" vaporized=""/>
    <tripinfo id="f_0_0.18" depart="246.00" departLane="np13_nt13_0" departPos="37.28" departSpeed="0.00" departDelay="0.55" arrival="788.00" arrivalLane="nt4_np5_0" arrivalPos="75.00" arrivalSpeed="18.63" duration="542.00" routeLength="1310.61" waitingTime="363.00" waitingCount="15" stopTime="0.00" timeLoss="444.91" rerouteNo="0" devices="tripinfo_f_0_0.18" vType="type1" speedFactor="0.94" vaporized=""/>
    <tripinfo id="f_0_3.17" depart="377.00" departLane="np3_nt3_0" departPos="0.80" departSpeed="0.00" departDelay="237.91" arrival="789.00" arrivalLane="nt14_np11_0" arrivalPos="75.00" arrivalSpeed="9.83" duration="412.00" routeLength="950.29" waitingTime="269.00" waitingCount="9" stopTime="0.00" timeLoss="327.90" rerouteNo="0" devices="tripinfo_f_0_3.17" vType="type1" speedFactor="0.95" vaporized=""/>
    <tripinfo id="f_0_0.19" depart="260.00" departLane="np13_nt13_0" departPos="55.21" departSpeed="0.00" departDelay="0.92" arrival="822.00" arrivalLane="nt4_np5_0" arrivalPos="75.00" arrivalSpeed="18.34" duration="562.00" routeLength="1292.68" waitingTime="399.00" waitingCount="11" stopTime="0.00" timeLoss="468.65" rerouteNo="0" devices="tripinfo_f_0_0.19" vType="type1" speedFactor="0.97" vaporized=""/>
    <tripinfo id="f_0_1.3" depart="41.00" departLane="np16_nt1_0" departPos="3.43" departSpeed="0.00" departDelay="0.09" arrival="828.00" arrivalLane="nt16_np8_0" arrivalPos="75.00" arrivalSpeed="16.73" duration="787.00" routeLength="1344.45" waitingTime="562.00" waitingCount="20" stopTime="0.00" timeLoss="683.11" rerouteNo="0" devices="tripinfo_f_0_1.3" vType="type1" speedFactor="0.89" vaporized=""/>
    <tripinfo id="f_0_0.20" depart="273.00" departLane="np13_nt13_0" departPos="14.72" departSpeed="0.00" departDelay="0.28" arrival="863.00" arrivalLane="nt4_np5_0" arrivalPos="75.00" arrivalSpeed="18.45" duration="590.00" routeLength="1333.17" waitingTime="417.00" waitingCount="13" stopTime="0.00" timeLoss="492.54" rerouteNo="0" devices="tripinfo_f_0_0.20" vType="type1" speedFactor="0.94" vaporized=""/>
    <tripinfo id="f_0_2.12" depart="99.00" departLane="np2_nt2_0" departPos="53.50" departSpeed="0.00" departDelay="0.82" arrival="899.00" arrivalLane="nt15_np10_0" arrivalPos="75.00" arrivalSpeed="7.53" duration="800.00" routeLength="897.58" waitingTime="580.00" waitingCount="19" stopTime="0.00" timeLoss="708.96" rerouteNo="0" devices="tripinfo_f_0_2.12" vType="type1" speedFactor="0.82" vaporized=""/>
    <tripinfo id="f_0_2.13" depart="107.00" departLane="np2_nt2_0" departPos="33.92" departSpeed="0.00" departDelay="0.63" arrival="901.00" arrivalLane="nt15_np10_0" arrivalPos="75.00" arrivalSpeed="10.14" duration="794.00" routeLength="917.16" waitingTime="565.00" waitingCount="20" stopTime="0.00" timeLoss="722.99" rerouteNo="0" devices="tripinfo_f_0_2.13" vType="type1" speedFactor="1.08" vaporized=""/>
    <tripinfo id="f_0_0.21" depart="287.00" departLane="np13_nt13_0" departPos="36.24" departSpeed="0.00" departDelay="0.64" arrival="943.00" arrivalLane="nt4_np5_0" arrivalPos="75.00" arrivalSpeed="18.52" duration="656.00" routeLength="1311.65" waitingTime="487.00" waitingCount="11" stopTime="0.00" timeLoss="568.12" rerouteNo="0" devices="tripinfo_f_0_0.21" vType="type1" speedFactor="1.04" vaporized=""/>
    <tripinfo id="f_0_3.18" depart="381.00" departLane="np3_nt3_0" departPos="0.00" departSpeed="0.00" departDelay="233.72" arrival="953.00" arrivalLane="nt14_np11_0" arrivalPos="75.00" arrivalSpeed="7.58" duration="572.00" routeLength="951.09" waitingTime="411.00" waitingCount="11" stopTime="0.00" timeLoss="480.94" rerouteNo="0" devices="tripinfo_f_0_3.18" vType="type1" speedFactor="0.88" vaporized=""/>
    <tripinfo id="f_0_3.19" depart="393.00" departLane="np3_nt3_0" departPos="0.00" departSpeed="0.00" departDelay="237.54" arrival="955.00" arrivalLane="nt14_np11_0" arrivalPos="75.00" arrivalSpeed="12.07" duration="562.00" routeLength="951.09" waitingTime="412.00" waitingCount="12" stopTime="0.00" timeLoss="492.20" rerouteNo="0" devices="tripinfo_f_0_3.19" vType="type1" speedFactor="1.15" vaporized=""/>
    <tripinfo id="f_0_3.20" depart="433.00" departLane="np3_nt3_0" departPos="0.00" departSpeed="0.00" departDelay="269.36" arrival="957.00" arrivalLane="nt14_np11_0" arrivalPos="75.00" arrivalSpeed="12.14" duration="524.00" routeLength="951.09" waitingTime="380.00" waitingCount="12" stopTime="0.00" timeLoss="453.28" rerouteNo="0" devices="tripinfo_f_0_3.20" vType="type1" speedFactor="1.14" vaporized=""/>
    <tripinfo id="f_0_3.21" depart="458.00" departLane="np3_nt3_0" departPos="0.00" departSpeed="0.00" departDelay="286.18" arrival="960.00" arrivalLane="nt14_np11_0" arrivalPos="75.00" arrivalSpeed="9.26" duration="502.00" routeLength="951.09" waitingTime="350.00" waitingCount="10" stopTime="0.00" timeLoss="420.58" rerouteNo="0" devices="tripinfo_f_0_3.21" vType="type1" speedFactor="0.98" vaporized=""/>
    <tripinfo id="f_0_2.14" depart="115.00" departLane="np2_nt2_0" departPos="26.21" departSpeed="0.00" departDelay="0.45" arrival="987.00" arrivalLane="nt15_np10_0" arrivalPos="75.00" arrivalSpeed="10.57" duration="872.00" routeLength="924.87" waitingTime="636.00" waitingCount="22" stopTime="0.00" timeLoss="797.98" rerouteNo="0" devices="tripinfo_f_0_2.14" vType="type1" speedFactor="1.06" vaporized=""/>
    <tripinfo id="f_1_0.5" depart="341.00" departLane="np13_nt13_0" departPos="58.88" departSpeed="0.00" departDelay="1.95" arrival="993.00" arrivalLane="nt4_np5_0" arrivalPos="75.00" arrivalSpeed="19.61" duration="652.00" routeLength="1289.01" waitingTime="487.00" waitingCount="11" stopTime="0.00" timeLoss="569.72" rerouteNo="0" devices="tripinfo_f_1_0.5" vType="type1" speedFactor="1.10" vaporized=""/>
    <tripinfo id="f_0_0.22" depart="300.00" departLane="np13_nt13_0" departPos="44.08" departSpeed="0.00" departDelay="0.01" arrival="994.00" arrivalLane="nt4_np5_0" arrivalPos="75.00" arrivalSpeed="20.80" duration="694.00" routeLength="1303.81" waitingTime="514.00" waitingCount="16" stopTime="0.00" timeLoss="613.04" rerouteNo="0" devices="tripinfo_f_0_0.22" vType="type1" speedFactor="1.12" vaporized=""/>
    <tripinfo id="f_0_2.15" depart="123.00" departLane="np2_nt2_0" departPos="56.07" departSpeed="0.00" departDelay="0.27" arrival="998.00" arrivalLane="nt15_np10_0" arrivalPos="75.00" arrivalSpeed="11.11" duration="875.00" routeLength="895.01" waitingTime="631.00" waitingCount="22" stopTime="0.00" timeLoss="804.68" rerouteNo="0" devices="tripinfo_f_0_2.15" vType="type1" speedFactor="1.08" vaporized=""/>
    <tripinfo id="f_0_1.5" depart="69.00" departLane="np16_nt1_0" departPos="36.80" departSpeed="0.00" departDelay="0.82" arrival="1005.00" arrivalLane="nt16_np8_0" arrivalPos="75.00" arrivalSpeed="16.37" duration="936.00" routeLength="1311.08" waitingTime="719.00" waitingCount="20" stopTime="0.00" timeLoss="833.25" rerouteNo="0" devices="tripinfo_f_0_1.5" vType="type1" speedFactor="0.89" vaporized=""/>
    <tripinfo id="f_0_3.22" depart="518.00" departLane="np3_nt3_0" departPos="0.00" departSpeed="0.00" departDelay="338.00" arrival="1011.00" arrivalLane="nt14_np11_0" arrivalPos="75.00" arrivalSpeed="10.40" duration="493.00" routeLength="951.09" waitingTime="351.00" waitingCount="9" stopTime="0.00" timeLoss="419.75" rerouteNo="0" devices="tripinfo_f_0_3.22" vType="type1" speedFactor="1.09" vaporized=""/>
    <tripinfo id="f_0_3.23" depart="557.00" departLane="np3_nt3_0" departPos="0.00" departSpeed="0.00" departDelay="368.81" arrival="1014.00" arrivalLane="nt14_np11_0" arrivalPos="75.00" arrivalSpeed="9.06" duration="457.00" routeLength="951.09" waitingTime="317.00" waitingCount="10" stopTime="0.00" timeLoss="379.19" rerouteNo="0" devices="tripinfo_f_0_3.23" vType="type1" speedFactor="1.02" vaporized=""/>
    <tripinfo id="f_0_1.6" depart="82.00" departLane="np16_nt1_0" departPos="29.95" departSpeed="0.00" departDelay="0.18" arrival="1018.00" arrivalLane="nt16_np8_0" arrivalPos="75.00" arrivalSpeed="20.39" duration="936.00" routeLength="1317.93" waitingTime="704.00" waitingCount="22" stopTime="0.00" timeLoss="848.27" rerouteNo="0" devices="tripinfo_f_0_1.6" vType="type1" speedFactor="1.05" vaporized=""/>