<?xml version="1.0" encoding="UTF-8"?>

<!-- generated on 2023-08-30 19:36:38 by Eclipse SUMO libsumo Version 1.18.0
<configuration xmlns:xsi="http://www.w3.org/2001/XMLSchema-instance" xsi:noNamespaceSchemaLocation="http://sumo.dlr.de/xsd/libsumoConfiguration.xsd">

    <input>
        <net-file value="/home/stefan/RESCO/./environments/arterial4x4/arterial4x4.net.xml"/>
        <route-files value="/home/stefan/RESCO/./environments/arterial4x4/arterial4x4_88.rou.xml"/>
    </input>

    <output>
        <tripinfo-output value="/home/stefan/results/RAINBOW-tr0-arterial4x4-0-drq_norm-wait_norm/tripinfo_88.xml"/>
        <tripinfo-output.write-unfinished value="true"/>
    </output>

    <processing>
        <time-to-teleport value="-1"/>
    </processing>

    <report>
        <no-warnings value="True"/>
        <no-step-log value="True"/>
    </report>

    <random_number>
        <random value="true"/>
    </random_number>

</configuration>
-->

<tripinfos xmlns:xsi="http://www.w3.org/2001/XMLSchema-instance" xsi:noNamespaceSchemaLocation="http://sumo.dlr.de/xsd/tripinfo_file.xsd">
    <tripinfo id="f_0_2.0" depart="0.00" departLane="np2_nt2_0" departPos="36.99" departSpeed="0.00" departDelay="0.00" arrival="3516.00" arrivalLane="nt15_np10_0" arrivalPos="75.00" arrivalSpeed="11.03" duration="3516.00" routeLength="914.09" waitingTime="3424.00" waitingCount="3" stopTime="0.00" timeLoss="3445.63" rerouteNo="0" devices="tripinfo_f_0_2.0" vType="type1" speedFactor="1.09" vaporized=""/>
    <tripinfo id="f_0_0.0" depart="0.00" departLane="np13_nt13_0" departPos="45.35" departSpeed="0.00" departDelay="0.00" arrival="-1.00" arrivalLane="" arrivalPos="-1.00" arrivalSpeed="-1.00" duration="3600.00" routeLength="221.45" waitingTime="3579.00" waitingCount="2" stopTime="0.00" timeLoss="3589.67" rerouteNo="0" devices="tripinfo_f_0_0.0" vType="type1" speedFactor="1.19" vaporized="end"/>
    <tripinfo id="f_0_1.0" depart="0.00" departLane="np16_nt1_0" departPos="29.26" departSpeed="0.00" departDelay="0.00" arrival="-1.00" arrivalLane="" arrivalPos="-1.00" arrivalSpeed="-1.00" duration="3600.00" routeLength="237.53" waitingTime="3582.00" waitingCount="1" stopTime="0.00" timeLoss="3587.30" rerouteNo="0" devices="tripinfo_f_0_1.0" vType="type1" speedFactor="1.02" vaporized="end"/>
    <tripinfo id="f_0_3.0" depart="0.00" departLane="np3_nt3_0" departPos="58.69" departSpeed="0.00" departDelay="0.00" arrival="-1.00" arrivalLane="" arrivalPos="-1.00" arrivalSpeed="-1.00" duration="3600.00" routeLength="4.91" waitingTime="3596.00" waitingCount="1" stopTime="0.00" timeLoss="3598.54" rerouteNo="0" devices="tripinfo_f_0_3.0" vType="type1" speedFactor="0.96" vaporized="end"/>
    <tripinfo id="f_0_2.1" depart="9.00" departLane="np2_nt2_0" departPos="57.53" departSpeed="0.00" departDelay="0.82" arrival="-1.00" arrivalLane="" arrivalPos="-1.00" arrivalSpeed="-1.00" duration="3591.00" routeLength="596.75" waitingTime="3517.00" waitingCount="4" stopTime="0.00" timeLoss="3536.51" rerouteNo="0" devices="tripinfo_f_0_2.1" vType="type1" speedFactor="0.89" vaporized="end"/>
    <tripinfo id="f_0_3.1" depart="9.00" departLane="np3_nt3_0" departPos="37.48" departSpeed="0.00" departDelay="0.82" arrival="-1.00" arrivalLane="" arrivalPos="-1.00" arrivalSpeed="-1.00" duration="3591.00" routeLength="18.61" waitingTime="3584.00" waitingCount="1" stopTime="0.00" timeLoss="3588.21" rerouteNo="0" devices="tripinfo_f_0_3.1" vType="type1" speedFactor="0.94" vaporized="end"/>
    <tripinfo id="f_0_0.1" depart="14.00" departLane="np13_nt13_0" departPos="27.00" departSpeed="0.00" departDelay="0.36" arrival="-1.00" arrivalLane="" arrivalPos="-1.00" arrivalSpeed="-1.00" duration="3586.00" routeLength="232.29" waitingTime="3569.00" waitingCount="1" stopTime="0.00" timeLoss="3573.93" rerouteNo="0" devices="tripinfo_f_0_0.1" vType="type1" speedFactor="1.05" vaporized="end"/>
    <tripinfo id="f_0_1.1" depart="14.00" departLane="np16_nt1_0" departPos="11.44" departSpeed="0.00" departDelay="0.36" arrival="-1.00" arrivalLane="" arrivalPos="-1.00" arrivalSpeed="-1.00" duration="3586.00" routeLength="247.86" waitingTime="3568.00" waitingCount="1" stopTime="0.00" timeLoss="3572.59" rerouteNo="0" devices="tripinfo_f_0_1.1" vType="type1" speedFactor="1.00" vaporized="end"/>
    <tripinfo id="f_0_2.2" depart="17.00" departLane="np2_nt2_0" departPos="13.31" departSpeed="0.00" departDelay="0.64" arrival="-1.00" arrivalLane="" arrivalPos="-1.00" arrivalSpeed="-1.00" duration="3583.00" routeLength="633.47" waitingTime="3508.00" waitingCount="4" stopTime="0.00" timeLoss="3535.24" rerouteNo="0" devices="tripinfo_f_0_2.2" vType="type1" speedFactor="1.09" vaporized="end"/>
    <tripinfo id="f_0_3.2" depart="17.00" departLane="np3_nt3_0" departPos="42.70" departSpeed="0.00" departDelay="0.64" arrival="-1.00" arrivalLane="" arrivalPos="-1.00" arrivalSpeed="-1.00" duration="3583.00" routeLength="5.89" waitingTime="3579.00" waitingCount="1" stopTime="0.00" timeLoss="3581.45" rerouteNo="0" devices="tripinfo_f_0_3.2" vType="type1" speedFactor="0.98" vaporized="end"/>
    <tripinfo id="f_0_2.3" depart="25.00" departLane="np2_nt2_0" departPos="2.53" departSpeed="0.00" departDelay="0.45" arrival="-1.00" arrivalLane="" arrivalPos="-1.00" arrivalSpeed="-1.00" duration="3575.00" routeLength="636.75" waitingTime="3503.00" waitingCount="3" stopTime="0.00" timeLoss="3522.84" rerouteNo="0" devices="tripinfo_f_0_2.3" vType="type1" speedFactor="1.00" vaporized="end"/>
    <tripinfo id="f_0_3.3" depart="25.00" departLane="np3_nt3_0" departPos="30.01" departSpeed="0.00" departDelay="0.45" arrival="-1.00" arrivalLane="" arrivalPos="-1.00" arrivalSpeed="-1.00" duration="3575.00" routeLength="11.09" waitingTime="3572.00" waitingCount="1" stopTime="0.00" timeLoss="3572.93" rerouteNo="0" devices="tripinfo_f_0_3.3" vType="type1" speedFactor="0.94" vaporized="end"/>
    <tripinfo id="f_0_0.2" depart="28.00" departLane="np13_nt13_0" departPos="45.38" departSpeed="0.00" departDelay="0.73" arrival="-1.00" arrivalLane="" arrivalPos="-1.00" arrivalSpeed="-1.00" duration="3572.00" routeLength="206.41" waitingTime="3556.00" waitingCount="1" stopTime="0.00" timeLoss="3560.04" rerouteNo="0" devices="tripinfo_f_0_0.2" vType="type1" speedFactor="0.94" vaporized="end"/>
    <tripinfo id="f_0_1.2" depart="28.00" departLane="np16_nt1_0" departPos="11.41" departSpeed="0.00" departDelay="0.73" arrival="-1.00" arrivalLane="" arrivalPos="-1.00" arrivalSpeed="-1.00" duration="3572.00" routeLength="240.39" waitingTime="3554.00" waitingCount="1" stopTime="0.00" timeLoss="3559.28" rerouteNo="0" devices="tripinfo_f_0_1.2" vType="type1" speedFactor="1.03" vaporized="end"/>
    <tripinfo id="f_0_2.4" depart="33.00" departLane="np2_nt2_0" departPos="30.88" departSpeed="0.00" departDelay="0.27" arrival="-1.00" arrivalLane="" arrivalPos="-1.00" arrivalSpeed="-1.00" duration="3567.00" routeLength="600.89" waitingTime="3495.00" waitingCount="3" stopTime="0.00" timeLoss="3515.01" rerouteNo="0" devices="tripinfo_f_0_2.4" vType="type1" speedFactor="0.93" vaporized="end"/>
    <tripinfo id="f_0_3.4" depart="33.00" departLane="np3_nt3_0" departPos="2.13" departSpeed="0.00" departDelay="0.27" arrival="-1.00" arrivalLane="" arrivalPos="-1.00" arrivalSpeed="-1.00" duration="3567.00" routeLength="31.47" waitingTime="3559.00" waitingCount="1" stopTime="0.00" timeLoss="3563.14" rerouteNo="0" devices="tripinfo_f_0_3.4" vType="type1" speedFactor="1.00" vaporized="end"/>
    <tripinfo id="f_0_0.3" depart="41.00" departLane="np13_nt13_0" departPos="60.13" departSpeed="0.00" departDelay="0.09" arrival="-1.00" arrivalLane="" arrivalPos="-1.00" arrivalSpeed="-1.00" duration="3559.00" routeLength="184.17" waitingTime="3542.00" waitingCount="1" stopTime="0.00" timeLoss="3548.68" rerouteNo="0" devices="tripinfo_f_0_0.3" vType="type1" speedFactor="0.99" vaporized="end"/>
    <tripinfo id="f_0_1.3" depart="41.00" departLane="np16_nt1_0" departPos="26.12" departSpeed="0.00" departDelay="0.09" arrival="-1.00" arrivalLane="" arrivalPos="-1.00" arrivalSpeed="-1.00" duration="3559.00" routeLength="218.17" waitingTime="3542.00" waitingCount="1" stopTime="0.00" timeLoss="3547.97" rerouteNo="0" devices="tripinfo_f_0_1.3" vType="type1" speedFactor="1.09" vaporized="end"/>
    <tripinfo id="f_0_2.5" depart="41.00" departLane="np2_nt2_0" departPos="28.14" departSpeed="0.00" departDelay="0.09" arrival="-1.00" arrivalLane="" arrivalPos="-1.00" arrivalSpeed="-1.00" duration="3559.00" routeLength="596.13" waitingTime="3494.00" waitingCount="3" stopTime="0.00" timeLoss="3513.15" rerouteNo="0" devices="tripinfo_f_0_2.5" vType="type1" speedFactor="1.05" vaporized="end"/>
    <tripinfo id="f_0_3.5" depart="41.00" departLane="np3_nt3_0" departPos="9.97" departSpeed="0.00" departDelay="0.09" arrival="-1.00" arrivalLane="" arrivalPos="-1.00" arrivalSpeed="-1.00" duration="3559.00" routeLength="16.12" waitingTime="3553.00" waitingCount="1" stopTime="0.00" timeLoss="3556.59" rerouteNo="0" devices="tripinfo_f_0_3.5" vType="type1" speedFactor="1.04" vaporized="end"/>
    <tripinfo id="f_0_2.6" depart="50.00" departLane="np2_nt2_0" departPos="11.44" departSpeed="0.00" departDelay="0.91" arrival="-1.00" arrivalLane="" arrivalPos="-1.00" arrivalSpeed="-1.00" duration="3550.00" routeLength="605.33" waitingTime="3481.00" waitingCount="3" stopTime="0.00" timeLoss="3499.63" rerouteNo="0" devices="tripinfo_f_0_2.6" vType="type1" speedFactor="0.98" vaporized="end"/>
    <tripinfo id="f_0_3.6" depart="50.00" departLane="np3_nt3_0" departPos="13.47" departSpeed="0.00" departDelay="0.91" arrival="-1.00" arrivalLane="" arrivalPos="-1.00" arrivalSpeed="-1.00" duration="3550.00" routeLength="5.12" waitingTime="3546.00" waitingCount="1" stopTime="0.00" timeLoss="3548.55" rerouteNo="0" devices="tripinfo_f_0_3.6" vType="type1" speedFactor="1.03" vaporized="end"/>
    <tripinfo id="f_0_0.4" depart="55.00" departLane="np13_nt13_0" departPos="2.83" departSpeed="0.00" departDelay="0.46" arrival="-1.00" arrivalLane="" arrivalPos="-1.00" arrivalSpeed="-1.00" duration="3545.00" routeLength="233.97" waitingTime="3525.00" waitingCount="1" stopTime="0.00" timeLoss="3530.91" rerouteNo="0" devices="tripinfo_f_0_0.4" vType="type1" speedFactor="0.89" vaporized="end"/>
    <tripinfo id="f_0_1.4" depart="55.00" departLane="np16_nt1_0" departPos="35.71" departSpeed="0.00" departDelay="0.46" arrival="-1.00" arrivalLane="" arrivalPos="-1.00" arrivalSpeed="-1.00" duration="3545.00" routeLength="201.09" waitingTime="3528.00" waitingCount="1" stopTime="0.00" timeLoss="3532.53" rerouteNo="0" devices="tripinfo_f_0_1.4" vType="type1" speedFactor="0.88" vaporized="end"/>
    <tripinfo id="f_0_2.7" depart="58.00" departLane="np2_nt2_0" departPos="42.66" departSpeed="0.00" departDelay="0.73" arrival="-1.00" arrivalLane="" arrivalPos="-1.00" arrivalSpeed="-1.00" duration="3542.00" routeLength="566.61" waitingTime="3465.00" waitingCount="3" stopTime="0.00" timeLoss="3487.01" rerouteNo="0" devices="tripinfo_f_0_2.7" vType="type1" speedFactor="0.83" vaporized="end"/>
    <tripinfo id="f_0_3.7" depart="58.00" departLane="np3_nt3_0" departPos="8.59" departSpeed="0.00" departDelay="0.73" arrival="-1.00" arrivalLane="" arrivalPos="-1.00" arrivalSpeed="-1.00" duration="3542.00" routeLength="2.50" waitingTime="3538.00" waitingCount="1" stopTime="0.00" timeLoss="3540.80" rerouteNo="0" devices="tripinfo_f_0_3.7" vType="type1" speedFactor="1.16" vaporized="end"/>
    <tripinfo id="f_0_2.8" depart="66.00" departLane="np2_nt2_0" departPos="10.12" departSpeed="0.00" departDelay="0.54" arrival="-1.00" arrivalLane="" arrivalPos="-1.00" arrivalSpeed="-1.00" duration="3534.00" routeLength="591.65" waitingTime="3463.00" waitingCount="3" stopTime="0.00" timeLoss="3487.87" rerouteNo="0" devices="tripinfo_f_0_2.8" vType="type1" speedFactor="1.05" vaporized="end"/>
    <tripinfo id="f_0_3.8" depart="66.00" departLane="np3_nt3_0" departPos="0.93" departSpeed="0.00" departDelay="0.54" arrival="-1.00" arrivalLane="" arrivalPos="-1.00" arrivalSpeed="-1.00" duration="3534.00" routeLength="2.66" waitingTime="3531.00" waitingCount="1" stopTime="0.00" timeLoss="3532.77" rerouteNo="0" devices="tripinfo_f_0_3.8" vType="type1" speedFactor="1.03" vaporized="end"/>
    <tripinfo id="f_0_0.5" depart="69.00" departLane="np13_nt13_0" departPos="29.47" departSpeed="0.00" departDelay="0.82" arrival="-1.00" arrivalLane="" arrivalPos="-1.00" arrivalSpeed="-1.00" duration="3531.00" routeLength="199.83" waitingTime="3515.00" waitingCount="1" stopTime="0.00" timeLoss="3519.78" rerouteNo="0" devices="tripinfo_f_0_0.5" vType="type1" speedFactor="0.98" vaporized="end"/>
    <tripinfo id="f_0_1.5" depart="69.00" departLane="np16_nt1_0" departPos="62.69" departSpeed="0.00" departDelay="0.82" arrival="-1.00" arrivalLane="" arrivalPos="-1.00" arrivalSpeed="-1.00" duration="3531.00" routeLength="166.60" waitingTime="3516.00" waitingCount="1" stopTime="0.00" timeLoss="3521.01" rerouteNo="0" devices="tripinfo_f_0_1.5" vType="type1" speedFactor="0.93" vaporized="end"/>
    <tripinfo id="f_0_2.9" depart="74.00" departLane="np2_nt2_0" departPos="0.59" departSpeed="0.00" departDelay="0.36" arrival="-1.00" arrivalLane="" arrivalPos="-1.00" arrivalSpeed="-1.00" duration="3526.00" routeLength="593.68" waitingTime="3458.00" waitingCount="3" stopTime="0.00" timeLoss="3478.23" rerouteNo="0" devices="tripinfo_f_0_2.9" vType="type1" speedFactor="1.01" vaporized="end"/>
    <tripinfo id="f_0_0.6" depart="82.00" departLane="np13_nt13_0" departPos="29.33" departSpeed="0.00" departDelay="0.18" arrival="-1.00" arrivalLane="" arrivalPos="-1.00" arrivalSpeed="-1.00" duration="3518.00" routeLength="192.46" waitingTime="3502.00" waitingCount="1" stopTime="0.00" timeLoss="3507.43" rerouteNo="0" devices="tripinfo_f_0_0.6" vType="type1" speedFactor="1.01" vaporized="end"/>
    <tripinfo id="f_0_1.6" depart="82.00" departLane="np16_nt1_0" departPos="6.84" departSpeed="0.00" departDelay="0.18" arrival="-1.00" arrivalLane="" arrivalPos="-1.00" arrivalSpeed="-1.00" duration="3518.00" routeLength="214.95" waitingTime="3501.00" waitingCount="1" stopTime="0.00" timeLoss="3506.12" rerouteNo="0" devices="tripinfo_f_0_1.6" vType="type1" speedFactor="0.99" vaporized="end"/>
    <tripinfo id="f_0_2.10" depart="82.00" departLane="np2_nt2_0" departPos="2.14" departSpeed="0.00" departDelay="0.18" arrival="-1.00" arrivalLane="" arrivalPos="-1.00" arrivalSpeed="-1.00" duration="3518.00" routeLength="584.63" waitingTime="3449.00" waitingCount="3" stopTime="0.00" timeLoss="3471.12" rerouteNo="0" devices="tripinfo_f_0_2.10" vType="type1" speedFactor="1.01" vaporized="end"/>
    <tripinfo id="f_0_2.11" depart="90.00" departLane="np2_nt2_0" departPos="12.74" departSpeed="0.00" departDelay="0.00" arrival="-1.00" arrivalLane="" arrivalPos="-1.00" arrivalSpeed="-1.00" duration="3510.00" routeLength="566.53" waitingTime="3447.00" waitingCount="3" stopTime="0.00" timeLoss="3467.15" rerouteNo="0" devices="tripinfo_f_0_2.11" vType="type1" speedFactor="1.07" vaporized="end"/>
    <tripinfo id="f_0_0.7" depart="96.00" departLane="np13_nt13_0" departPos="63.29" departSpeed="0.00" departDelay="0.55" arrival="-1.00" arrivalLane="" arrivalPos="-1.00" arrivalSpeed="-1.00" duration="3504.00" routeLength="3.51" waitingTime="3500.00" waitingCount="1" stopTime="0.00" timeLoss="3502.83" rerouteNo="0" devices="tripinfo_f_0_0.7" vType="type1" speedFactor="1.03" vaporized="end"/>
    <tripinfo id="f_0_1.7" depart="96.00" departLane="np16_nt1_0" departPos="29.68" departSpeed="0.00" departDelay="0.55" arrival="-1.00" arrivalLane="" arrivalPos="-1.00" arrivalSpeed="-1.00" duration="3504.00" routeLength="184.61" waitingTime="3490.00" waitingCount="1" stopTime="0.00" timeLoss="3494.96" rerouteNo="0" devices="tripinfo_f_0_1.7" vType="type1" speedFactor="1.15" vaporized="end"/>
    <tripinfo id="f_0_2.12" depart="99.00" departLane="np2_nt2_0" departPos="4.27" departSpeed="0.00" departDelay="0.82" arrival="-1.00" arrivalLane="" arrivalPos="-1.00" arrivalSpeed="-1.00" duration="3501.00" routeLength="567.49" waitingTime="3439.00" waitingCount="3" stopTime="0.00" timeLoss="3460.46" rerouteNo="0" devices="tripinfo_f_0_2.12" vType="type1" speedFactor="1.13" vaporized="end"/>
    <tripinfo id="f_0_2.13" depart="107.00" departLane="np2_nt2_0" departPos="30.48" departSpeed="0.00" departDelay="0.63" arrival="-1.00" arrivalLane="" arrivalPos="-1.00" arrivalSpeed="-1.00" duration="3493.00" routeLength="533.78" waitingTime="3424.00" waitingCount="3" stopTime="0.00" timeLoss="3445.49" rerouteNo="0" devices="tripinfo_f_0_2.13" vType="type1" speedFactor="0.90" vaporized="end"/>
    <tripinfo id="f_0_0.8" depart="110.00" departLane="np13_nt13_0" departPos="33.08" departSpeed="0.00" departDelay="0.91" arrival="-1.00" arrivalLane="" arrivalPos="-1.00" arrivalSpeed="-1.00" duration="3490.00" routeLength="26.22" waitingTime="3482.00" waitingCount="1" stopTime="0.00" timeLoss="3487.58" rerouteNo="0" devices="tripinfo_f_0_0.8" vType="type1" speedFactor="0.92" vaporized="end"/>
    <tripinfo id="f_0_1.8" depart="110.00" departLane="np16_nt1_0" departPos="19.15" departSpeed="0.00" departDelay="0.91" arrival="-1.00" arrivalLane="" arrivalPos="-1.00" arrivalSpeed="-1.00" duration="3490.00" routeLength="187.64" waitingTime="3475.00" waitingCount="1" stopTime="0.00" timeLoss="3479.48" rerouteNo="0" devices="tripinfo_f_0_1.8" vType="type1" speedFactor="0.99" vaporized="end"/>
    <tripinfo id="f_0_2.14" depart="115.00" departLane="np2_nt2_0" departPos="27.14" departSpeed="0.00" departDelay="0.45" arrival="-1.00" arrivalLane="" arrivalPos="-1.00" arrivalSpeed="-1.00" duration="3485.00" routeLength="529.62" waitingTime="3414.00" waitingCount="3" stopTime="0.00" timeLoss="3436.00" rerouteNo="0" devices="tripinfo_f_0_2.14" vType="type1" speedFactor="0.85" vaporized="end"/>
    <tripinfo id="f_0_0.9" depart="123.00" departLane="np13_nt13_0" departPos="5.40" departSpeed="0.00" departDelay="0.28" arrival="-1.00" arrivalLane="" arrivalPos="-1.00" arrivalSpeed="-1.00" duration="3477.00" routeLength="46.39" waitingTime="3468.00" waitingCount="1" stopTime="0.00" timeLoss="3473.70" rerouteNo="0" devices="tripinfo_f_0_0.9" vType="type1" speedFactor="1.01" vaporized="end"/>
    <tripinfo id="f_0_1.9" depart="123.00" departLane="np16_nt1_0" departPos="32.99" departSpeed="0.00" departDelay="0.28" arrival="-1.00" arrivalLane="" arrivalPos="-1.00" arrivalSpeed="-1.00" duration="3477.00" routeLength="166.30" waitingTime="3464.00" waitingCount="1" stopTime="0.00" timeLoss="3468.52" rerouteNo="0" devices="tripinfo_f_0_1.9" vType="type1" speedFactor="1.11" vaporized="end"/>
    <tripinfo id="f_0_2.15" depart="123.00" departLane="np2_nt2_0" departPos="35.90" departSpeed="0.00" departDelay="0.27" arrival="-1.00" arrivalLane="" arrivalPos="-1.00" arrivalSpeed="-1.00" duration="3477.00" routeLength="513.36" waitingTime="3411.00" waitingCount="3" stopTime="0.00" timeLoss="3432.04" rerouteNo="0" devices="tripinfo_f_0_2.15" vType="type1" speedFactor="0.90" vaporized="end"/>
    <tripinfo id="f_0_2.16" depart="131.00" departLane="np2_nt2_0" departPos="55.16" departSpeed="0.00" departDelay="0.09" arrival="-1.00" arrivalLane="" arrivalPos="-1.00" arrivalSpeed="-1.00" duration="3469.00" routeLength="486.60" waitingTime="3409.00" waitingCount="3" stopTime="0.00" timeLoss="3433.84" rerouteNo="0" devices="tripinfo_f_0_2.16" vType="type1" speedFactor="1.09" vaporized="end"/>
    <tripinfo id="f_0_0.10" depart="137.00" departLane="np13_nt13_0" departPos="29.46" departSpeed="0.00" departDelay="0.64" arrival="-1.00" arrivalLane="" arrivalPos="-1.00" arrivalSpeed="-1.00" duration="3463.00" routeLength="14.84" waitingTime="3456.00" waitingCount="1" stopTime="0.00" timeLoss="3461.29" rerouteNo="0" devices="tripinfo_f_0_0.10" vType="type1" speedFactor="1.05" vaporized="end"/>
    <tripinfo id="f_0_1.10" depart="137.00" departLane="np16_nt1_0" departPos="4.30" departSpeed="0.00" departDelay="0.64" arrival="-1.00" arrivalLane="" arrivalPos="-1.00" arrivalSpeed="-1.00" duration="3463.00" routeLength="187.49" waitingTime="3446.00" waitingCount="1" stopTime="0.00" timeLoss="3449.73" rerouteNo="0" devices="tripinfo_f_0_1.10" vType="type1" speedFactor="0.76" vaporized="end"/>
    <tripinfo id="f_0_2.17" depart="140.00" departLane="np2_nt2_0" departPos="10.42" departSpeed="0.00" departDelay="0.91" arrival="-1.00" arrivalLane="" arrivalPos="-1.00" arrivalSpeed="-1.00" duration="3460.00" routeLength="523.84" waitingTime="3392.00" waitingCount="3" stopTime="0.00" timeLoss="3413.85" rerouteNo="0" devices="tripinfo_f_0_2.17" vType="type1" speedFactor="0.90" vaporized="end"/>
    <tripinfo id="f_0_2.18" depart="148.00" departLane="np2_nt2_0" departPos="14.04" departSpeed="0.00" departDelay="0.72" arrival="-1.00" arrivalLane="" arrivalPos="-1.00" arrivalSpeed="-1.00" duration="3452.00" routeLength="512.72" waitingTime="3374.00" waitingCount="3" stopTime="0.00" timeLoss="3400.38" rerouteNo="0" devices="tripinfo_f_0_2.18" vType="type1" speedFactor="0.78" vaporized="end"/>
    <tripinfo id="f_0_0.11" depart="150.00" departLane="np13_nt13_0" departPos="13.06" departSpeed="0.00" departDelay="0.00" arrival="-1.00" arrivalLane="" arrivalPos="-1.00" arrivalSpeed="-1.00" duration="3450.00" routeLength="23.73" waitingTime="3442.00" waitingCount="1" stopTime="0.00" timeLoss="3447.86" rerouteNo="0" devices="tripinfo_f_0_0.11" vType="type1" speedFactor="1.04" vaporized="end"/>
    <tripinfo id="f_0_1.11" depart="150.00" departLane="np16_nt1_0" departPos="11.03" departSpeed="0.00" departDelay="0.00" arrival="-1.00" arrivalLane="" arrivalPos="-1.00" arrivalSpeed="-1.00" duration="3450.00" routeLength="173.26" waitingTime="3434.00" waitingCount="1" stopTime="0.00" timeLoss="3440.26" rerouteNo="0" devices="tripinfo_f_0_1.11" vType="type1" speedFactor="0.99" vaporized="end"/>
    <tripinfo id="f_0_2.19" depart="156.00" departLane="np2_nt2_0" departPos="15.33" departSpeed="0.00" departDelay="0.54" arrival="-1.00" arrivalLane="" arrivalPos="-1.00" arrivalSpeed="-1.00" duration="3444.00" routeLength="503.94" waitingTime="3374.00" waitingCount="3" stopTime="0.00" timeLoss="3399.31" rerouteNo="0" devices="tripinfo_f_0_2.19" vType="type1" speedFactor="0.89" vaporized="end"/>
    <tripinfo id="f_0_0.12" depart="164.00" departLane="np13_nt13_0" departPos="17.31" departSpeed="0.00" departDelay="0.37" arrival="-1.00" arrivalLane="" arrivalPos="-1.00" arrivalSpeed="-1.00" duration="3436.00" routeLength="11.98" waitingTime="3429.00" waitingCount="1" stopTime="0.00" timeLoss="3434.30" rerouteNo="0" devices="tripinfo_f_0_0.12" vType="type1" speedFactor="0.86" vaporized="end"/>
    <tripinfo id="f_0_1.12" depart="164.00" departLane="np16_nt1_0" departPos="61.57" departSpeed="0.00" departDelay="0.37" arrival="-1.00" arrivalLane="" arrivalPos="-1.00" arrivalSpeed="-1.00" duration="3436.00" routeLength="115.22" waitingTime="3426.00" waitingCount="1" stopTime="0.00" timeLoss="3430.13" rerouteNo="0" devices="tripinfo_f_0_1.12" vType="type1" speedFactor="1.18" vaporized="end"/>
    <tripinfo id="f_0_2.20" depart="164.00" departLane="np2_nt2_0" departPos="55.10" departSpeed="0.00" departDelay="0.36" arrival="-1.00" arrivalLane="" arrivalPos="-1.00" arrivalSpeed="-1.00" duration="3436.00" routeLength="456.66" waitingTime="3373.00" waitingCount="4" stopTime="0.00" timeLoss="3403.32" rerouteNo="0" devices="tripinfo_f_0_2.20" vType="type1" speedFactor="1.09" vaporized="end"/>
    <tripinfo id="f_0_2.21" depart="172.00" departLane="np2_nt2_0" departPos="45.48" departSpeed="0.00" departDelay="0.18" arrival="-1.00" arrivalLane="" arrivalPos="-1.00" arrivalSpeed="-1.00" duration="3428.00" routeLength="458.78" waitingTime="3370.00" waitingCount="3" stopTime="0.00" timeLoss="3395.02" rerouteNo="0" devices="tripinfo_f_0_2.21" vType="type1" speedFactor="1.08" vaporized="end"/>
    <tripinfo id="f_0_0.13" depart="178.00" departLane="np13_nt13_0" departPos="13.88" departSpeed="0.00" departDelay="0.73" arrival="-1.00" arrivalLane="" arrivalPos="-1.00" arrivalSpeed="-1.00" duration="3422.00" routeLength="7.92" waitingTime="3418.00" waitingCount="1" stopTime="0.00" timeLoss="3420.64" rerouteNo="0" devices="tripinfo_f_0_0.13" vType="type1" speedFactor="1.10" vaporized="end"/>
    <tripinfo id="f_0_1.13" depart="178.00" departLane="np16_nt1_0" departPos="33.81" departSpeed="0.00" departDelay="0.73" arrival="-1.00" arrivalLane="" arrivalPos="-1.00" arrivalSpeed="-1.00" duration="3422.00" routeLength="135.48" waitingTime="3409.00" waitingCount="1" stopTime="0.00" timeLoss="3414.02" rerouteNo="0" devices="tripinfo_f_0_1.13" vType="type1" speedFactor="0.97" vaporized="end"/>
    <tripinfo id="f_0_2.22" depart="180.00" departLane="np2_nt2_0" departPos="8.74" departSpeed="0.00" departDelay="0.00" arrival="-1.00" arrivalLane="" arrivalPos="-1.00" arrivalSpeed="-1.00" duration="3420.00" routeLength="488.02" waitingTime="3358.00" waitingCount="4" stopTime="0.00" timeLoss="3381.28" rerouteNo="0" devices="tripinfo_f_0_2.22" vType="type1" speedFactor="0.99" vaporized="end"/>
    <tripinfo id="f_0_2.23" depart="189.00" departLane="np2_nt2_0" departPos="20.88" departSpeed="0.00" departDelay="0.81" arrival="-1.00" arrivalLane="" arrivalPos="-1.00" arrivalSpeed="-1.00" duration="3411.00" routeLength="468.38" waitingTime="3351.00" waitingCount="3" stopTime="0.00" timeLoss="3375.68" rerouteNo="0" devices="tripinfo_f_0_2.23" vType="type1" speedFactor="1.05" vaporized="end"/>
    <tripinfo id="f_0_0.14" depart="191.00" departLane="np13_nt13_0" departPos="13.49" departSpeed="0.00" departDelay="0.10" arrival="-1.00" arrivalLane="" arrivalPos="-1.00" arrivalSpeed="-1.00" duration="3409.00" routeLength="0.80" waitingTime="3406.00" waitingCount="1" stopTime="0.00" timeLoss="3407.96" rerouteNo="0" devices="tripinfo_f_0_0.14" vType="type1" speedFactor="0.88" vaporized="end"/>
    <tripinfo id="f_0_1.14" depart="191.00" departLane="np16_nt1_0" departPos="50.58" departSpeed="0.00" departDelay="0.10" arrival="-1.00" arrivalLane="" arrivalPos="-1.00" arrivalSpeed="-1.00" duration="3409.00" routeLength="111.20" waitingTime="3398.00" waitingCount="1" stopTime="0.00" timeLoss="3402.48" rerouteNo="0" devices="tripinfo_f_0_1.14" vType="type1" speedFactor="1.01" vaporized="end"/>
    <tripinfo id="f_0_2.24" depart="197.00" departLane="np2_nt2_0" departPos="22.08" departSpeed="0.00" departDelay="0.63" arrival="-1.00" arrivalLane="" arrivalPos="-1.00" arrivalSpeed="-1.00" duration="3403.00" routeLength="459.68" waitingTime="3343.00" waitingCount="3" stopTime="0.00" timeLoss="3367.88" rerouteNo="0" devices="tripinfo_f_0_2.24" vType="type1" speedFactor="1.04" vaporized="end"/>
    <tripinfo id="f_0_0.15" depart="205.00" departLane="np13_nt13_0" departPos="3.83" departSpeed="0.00" departDelay="0.46" arrival="-1.00" arrivalLane="" arrivalPos="-1.00" arrivalSpeed="-1.00" duration="3395.00" routeLength="2.96" waitingTime="3392.00" waitingCount="1" stopTime="0.00" timeLoss="3393.85" rerouteNo="0" devices="tripinfo_f_0_0.15" vType="type1" speedFactor="0.96" vaporized="end"/>
    <tripinfo id="f_0_1.15" depart="205.00" departLane="np16_nt1_0" departPos="24.21" departSpeed="0.00" departDelay="0.46" arrival="-1.00" arrivalLane="" arrivalPos="-1.00" arrivalSpeed="-1.00" duration="3395.00" routeLength="130.07" waitingTime="3383.00" waitingCount="1" stopTime="0.00" timeLoss="3387.40" rerouteNo="0" devices="tripinfo_f_0_1.15" vType="type1" speedFactor="0.99" vaporized="end"/>
    <tripinfo id="f_0_2.25" depart="205.00" departLane="np2_nt2_0" departPos="36.77" departSpeed="0.00" departDelay="0.45" arrival="-1.00" arrivalLane="" arrivalPos="-1.00" arrivalSpeed="-1.00" duration="3395.00" routeLength="417.50" waitingTime="3351.00" waitingCount="3" stopTime="0.00" timeLoss="3362.26" rerouteNo="0" devices="tripinfo_f_0_2.25" vType="type1" speedFactor="0.97" vaporized="end"/>
    <tripinfo id="f_0_2.26" depart="213.00" departLane="np2_nt2_0" departPos="20.13" departSpeed="0.00" departDelay="0.27" arrival="-1.00" arrivalLane="" arrivalPos="-1.00" arrivalSpeed="-1.00" duration="3387.00" routeLength="426.65" waitingTime="3340.00" waitingCount="3" stopTime="0.00" timeLoss="3354.27" rerouteNo="0" devices="tripinfo_f_0_2.26" vType="type1" speedFactor="1.01" vaporized="end"/>
    <tripinfo id="f_0_1.16" depart="219.00" departLane="np16_nt1_0" departPos="31.06" departSpeed="0.00" departDelay="0.82" arrival="-1.00" arrivalLane="" arrivalPos="-1.00" arrivalSpeed="-1.00" duration="3381.00" routeLength="115.72" waitingTime="3370.00" waitingCount="1" stopTime="0.00" timeLoss="3374.67" rerouteNo="0" devices="tripinfo_f_0_1.16" vType="type1" speedFactor="1.09" vaporized="end"/>
    <tripinfo id="f_0_2.27" depart="221.00" departLane="np2_nt2_0" departPos="42.77" departSpeed="0.00" departDelay="0.09" arrival="-1.00" arrivalLane="" arrivalPos="-1.00" arrivalSpeed="-1.00" duration="3379.00" routeLength="396.51" waitingTime="3331.00" waitingCount="3" stopTime="0.00" timeLoss="3345.10" rerouteNo="0" devices="tripinfo_f_0_2.27" vType="type1" speedFactor="0.89" vaporized="end"/>
    <tripinfo id="f_0_2.28" depart="230.00" departLane="np2_nt2_0" departPos="11.39" departSpeed="0.00" departDelay="0.90" arrival="-1.00" arrivalLane="" arrivalPos="-1.00" arrivalSpeed="-1.00" duration="3370.00" routeLength="420.38" waitingTime="3322.00" waitingCount="3" stopTime="0.00" timeLoss="3337.49" rerouteNo="0" devices="tripinfo_f_0_2.28" vType="type1" speedFactor="0.99" vaporized="end"/>
    <tripinfo id="f_0_1.17" depart="232.00" departLane="np16_nt1_0" departPos="26.92" departSpeed="0.00" departDelay="0.19" arrival="-1.00" arrivalLane="" arrivalPos="-1.00" arrivalSpeed="-1.00" duration="3368.00" routeLength="112.36" waitingTime="3358.00" waitingCount="1" stopTime="0.00" timeLoss="3361.91" rerouteNo="0" devices="tripinfo_f_0_1.17" vType="type1" speedFactor="1.10" vaporized="end"/>