<?xml version="1.0" encoding="UTF-8"?>

<!-- generated on 2023-08-30 19:25:59 by Eclipse SUMO libsumo Version 1.18.0
<configuration xmlns:xsi="http://www.w3.org/2001/XMLSchema-instance" xsi:noNamespaceSchemaLocation="http://sumo.dlr.de/xsd/libsumoConfiguration.xsd">

    <input>
        <net-file value="/home/stefan/RESCO/./environments/arterial4x4/arterial4x4.net.xml"/>
        <route-files value="/home/stefan/RESCO/./environments/arterial4x4/arterial4x4_79.rou.xml"/>
    </input>

    <output>
        <tripinfo-output value="/home/stefan/results/RAINBOW-tr0-arterial4x4-0-drq_norm-wait_norm/tripinfo_79.xml"/>
        <tripinfo-output.write-unfinished value="true"/>
    </output>

    <processing>
        <time-to-teleport value="-1"/>
    </processing>

    <report>
        <no-warnings value="True"/>
        <no-step-log value="True"/>
    </report>

    <random_number>
        <random value="true"/>
    </random_number>

</configuration>
-->

<tripinfos xmlns:xsi="http://www.w3.org/2001/XMLSchema-instance" xsi:noNamespaceSchemaLocation="http://sumo.dlr.de/xsd/tripinfo_file.xsd">
    <tripinfo id="f_0_2.0" depart="0.00" departLane="np2_nt2_0" departPos="56.18" departSpeed="0.00" departDelay="0.00" arrival="212.00" arrivalLane="nt15_np10_0" arrivalPos="75.00" arrivalSpeed="9.87" duration="212.00" routeLength="894.90" waitingTime="114.00" waitingCount="3" stopTime="0.00" timeLoss="136.11" rerouteNo="0" devices="tripinfo_f_0_2.0" vType="type1" speedFactor="0.98" vaporized=""/>
    <tripinfo id="f_0_2.1" depart="9.00" departLane="np2_nt2_0" departPos="29.42" departSpeed="0.00" departDelay="0.82" arrival="1628.00" arrivalLane="nt15_np10_0" arrivalPos="75.00" arrivalSpeed="8.78" duration="1619.00" routeLength="921.66" waitingTime="1508.00" waitingCount="4" stopTime="0.00" timeLoss="1533.91" rerouteNo="0" devices="tripinfo_f_0_2.1" vType="type1" speedFactor="0.91" vaporized=""/>
    <tripinfo id="f_0_3.0" depart="0.00" departLane="np3_nt3_0" departPos="44.97" departSpeed="0.00" departDelay="0.00" arrival="1759.00" arrivalLane="nt14_np11_0" arrivalPos="75.00" arrivalSpeed="7.71" duration="1759.00" routeLength="906.12" waitingTime="1648.00" waitingCount="3" stopTime="0.00" timeLoss="1671.03" rerouteNo="0" devices="tripinfo_f_0_3.0" vType="type1" speedFactor="0.86" vaporized=""/>
    <tripinfo id="f_0_3.1" depart="9.00" departLane="np3_nt3_0" departPos="52.09" departSpeed="0.00" departDelay="0.82" arrival="1765.00" arrivalLane="nt14_np11_0" arrivalPos="75.00" arrivalSpeed="8.93" duration="1756.00" routeLength="899.00" waitingTime="1647.00" waitingCount="4" stopTime="0.00" timeLoss="1675.81" rerouteNo="0" devices="tripinfo_f_0_3.1" vType="type1" speedFactor="0.95" vaporized=""/>
    <tripinfo id="f_0_3.2" depart="17.00" departLane="np3_nt3_0" departPos="45.01" departSpeed="0.00" departDelay="0.64" arrival="1767.00" arrivalLane="nt14_np11_0" arrivalPos="75.00" arrivalSpeed="11.14" duration="1750.00" routeLength="906.08" waitingTime="1640.00" waitingCount="5" stopTime="0.00" timeLoss="1680.39" rerouteNo="0" devices="tripinfo_f_0_3.2" vType="type1" speedFactor="1.09" vaporized=""/>
    <tripinfo id="f_0_3.3" depart="25.00" departLane="np3_nt3_0" departPos="11.82" departSpeed="0.00" departDelay="0.45" arrival="1770.00" arrivalLane="nt14_np11_0" arrivalPos="75.00" arrivalSpeed="7.89" duration="1745.00" routeLength="939.27" waitingTime="1618.00" waitingCount="7" stopTime="0.00" timeLoss="1658.69" rerouteNo="0" devices="tripinfo_f_0_3.3" vType="type1" speedFactor="0.91" vaporized=""/>
    <tripinfo id="f_0_2.2" depart="17.00" departLane="np2_nt2_0" departPos="24.75" departSpeed="0.00" departDelay="0.64" arrival="2342.00" arrivalLane="nt15_np10_0" arrivalPos="75.00" arrivalSpeed="9.42" duration="2325.00" routeLength="926.33" waitingTime="2220.00" waitingCount="5" stopTime="0.00" timeLoss="2250.49" rerouteNo="0" devices="tripinfo_f_0_2.2" vType="type1" speedFactor="1.05" vaporized=""/>
    <tripinfo id="f_3_7.0" depart="900.00" departLane="np11_nt14_0" departPos="49.43" departSpeed="0.00" departDelay="0.00" arrival="2537.00" arrivalLane="nt3_np3_0" arrivalPos="64.60" arrivalSpeed="9.23" duration="1637.00" routeLength="901.66" waitingTime="1532.00" waitingCount="3" stopTime="0.00" timeLoss="1554.08" rerouteNo="0" devices="tripinfo_f_3_7.0" vType="type1" speedFactor="0.91" vaporized=""/>
    <tripinfo id="f_3_6.0" depart="900.00" departLane="np10_nt15_0" departPos="72.94" departSpeed="0.00" departDelay="0.00" arrival="3131.00" arrivalLane="nt2_np2_0" arrivalPos="64.60" arrivalSpeed="10.71" duration="2231.00" routeLength="878.14" waitingTime="2136.00" waitingCount="5" stopTime="0.00" timeLoss="2162.01" rerouteNo="0" devices="tripinfo_f_3_6.0" vType="type1" speedFactor="1.06" vaporized=""/>
    <tripinfo id="f_3_6.1" depart="913.00" departLane="np10_nt15_0" departPos="68.26" departSpeed="0.00" departDelay="0.00" arrival="3134.00" arrivalLane="nt2_np2_0" arrivalPos="64.60" arrivalSpeed="10.23" duration="2221.00" routeLength="882.82" waitingTime="2113.00" waitingCount="5" stopTime="0.00" timeLoss="2142.04" rerouteNo="0" devices="tripinfo_f_3_6.1" vType="type1" speedFactor="0.94" vaporized=""/>
    <tripinfo id="f_0_0.0" depart="0.00" departLane="np13_nt13_0" departPos="20.88" departSpeed="0.00" departDelay="0.00" arrival="-1.00" arrivalLane="" arrivalPos="-1.00" arrivalSpeed="-1.00" duration="3600.00" routeLength="1019.14" waitingTime="3470.00" waitingCount="6" stopTime="0.00" timeLoss="3505.90" rerouteNo="0" devices="tripinfo_f_0_0.0" vType="type1" speedFactor="0.80" vaporized="end"/>
    <tripinfo id="f_0_1.0" depart="0.00" departLane="np16_nt1_0" departPos="34.31" departSpeed="0.00" departDelay="0.00" arrival="-1.00" arrivalLane="" arrivalPos="-1.00" arrivalSpeed="-1.00" duration="3600.00" routeLength="356.14" waitingTime="3539.00" waitingCount="10" stopTime="0.00" timeLoss="3582.43" rerouteNo="0" devices="tripinfo_f_0_1.0" vType="type1" speedFactor="1.07" vaporized="end"/>
    <tripinfo id="f_0_0.1" depart="14.00" departLane="np13_nt13_0" departPos="20.32" departSpeed="0.00" departDelay="0.36" arrival="-1.00" arrivalLane="" arrivalPos="-1.00" arrivalSpeed="-1.00" duration="3586.00" routeLength="634.70" waitingTime="3509.00" waitingCount="5" stopTime="0.00" timeLoss="3543.61" rerouteNo="0" devices="tripinfo_f_0_0.1" vType="type1" speedFactor="0.96" vaporized="end"/>
    <tripinfo id="f_0_1.1" depart="14.00" departLane="np16_nt1_0" departPos="24.62" departSpeed="0.00" departDelay="0.36" arrival="-1.00" arrivalLane="" arrivalPos="-1.00" arrivalSpeed="-1.00" duration="3586.00" routeLength="442.18" waitingTime="3538.00" waitingCount="7" stopTime="0.00" timeLoss="3566.41" rerouteNo="0" devices="tripinfo_f_0_1.1" vType="type1" speedFactor="1.19" vaporized="end"/>
    <tripinfo id="f_0_2.3" depart="25.00" departLane="np2_nt2_0" departPos="14.16" departSpeed="0.00" departDelay="0.45" arrival="-1.00" arrivalLane="" arrivalPos="-1.00" arrivalSpeed="-1.00" duration="3575.00" routeLength="640.48" waitingTime="3493.00" waitingCount="5" stopTime="0.00" timeLoss="3516.72" rerouteNo="0" devices="tripinfo_f_0_2.3" vType="type1" speedFactor="0.90" vaporized="end"/>
    <tripinfo id="f_0_0.2" depart="28.00" departLane="np13_nt13_0" departPos="1.75" departSpeed="0.00" departDelay="0.73" arrival="-1.00" arrivalLane="" arrivalPos="-1.00" arrivalSpeed="-1.00" duration="3572.00" routeLength="608.27" waitingTime="3492.00" waitingCount="7" stopTime="0.00" timeLoss="3526.28" rerouteNo="0" devices="tripinfo_f_0_0.2" vType="type1" speedFactor="0.82" vaporized="end"/>
    <tripinfo id="f_0_1.2" depart="28.00" departLane="np16_nt1_0" departPos="37.84" departSpeed="0.00" departDelay="0.73" arrival="-1.00" arrivalLane="" arrivalPos="-1.00" arrivalSpeed="-1.00" duration="3572.00" routeLength="330.09" waitingTime="3511.00" waitingCount="9" stopTime="0.00" timeLoss="3554.71" rerouteNo="0" devices="tripinfo_f_0_1.2" vType="type1" speedFactor="1.01" vaporized="end"/>
    <tripinfo id="f_0_2.4" depart="33.00" departLane="np2_nt2_0" departPos="45.44" departSpeed="0.00" departDelay="0.27" arrival="-1.00" arrivalLane="" arrivalPos="-1.00" arrivalSpeed="-1.00" duration="3567.00" routeLength="601.70" waitingTime="3489.00" waitingCount="5" stopTime="0.00" timeLoss="3516.36" rerouteNo="0" devices="tripinfo_f_0_2.4" vType="type1" speedFactor="0.96" vaporized="end"/>
    <tripinfo id="f_0_3.4" depart="33.00" departLane="np3_nt3_0" departPos="31.70" departSpeed="0.00" departDelay="0.27" arrival="-1.00" arrivalLane="" arrivalPos="-1.00" arrivalSpeed="-1.00" duration="3567.00" routeLength="181.85" waitingTime="3532.00" waitingCount="5" stopTime="0.00" timeLoss="3555.41" rerouteNo="0" devices="tripinfo_f_0_3.4" vType="type1" speedFactor="1.06" vaporized="end"/>
    <tripinfo id="f_0_0.3" depart="41.00" departLane="np13_nt13_0" departPos="23.44" departSpeed="0.00" departDelay="0.09" arrival="-1.00" arrivalLane="" arrivalPos="-1.00" arrivalSpeed="-1.00" duration="3559.00" routeLength="579.08" waitingTime="3477.00" waitingCount="8" stopTime="0.00" timeLoss="3525.22" rerouteNo="0" devices="tripinfo_f_0_0.3" vType="type1" speedFactor="1.06" vaporized="end"/>
    <tripinfo id="f_0_1.3" depart="41.00" departLane="np16_nt1_0" departPos="37.96" departSpeed="0.00" departDelay="0.09" arrival="-1.00" arrivalLane="" arrivalPos="-1.00" arrivalSpeed="-1.00" duration="3559.00" routeLength="314.80" waitingTime="3492.00" waitingCount="11" stopTime="0.00" timeLoss="3541.71" rerouteNo="0" devices="tripinfo_f_0_1.3" vType="type1" speedFactor="0.97" vaporized="end"/>
    <tripinfo id="f_0_2.5" depart="41.00" departLane="np2_nt2_0" departPos="12.83" departSpeed="0.00" departDelay="0.09" arrival="-1.00" arrivalLane="" arrivalPos="-1.00" arrivalSpeed="-1.00" duration="3559.00" routeLength="626.80" waitingTime="3481.00" waitingCount="5" stopTime="0.00" timeLoss="3509.33" rerouteNo="0" devices="tripinfo_f_0_2.5" vType="type1" speedFactor="1.03" vaporized="end"/>
    <tripinfo id="f_0_3.5" depart="41.00" departLane="np3_nt3_0" departPos="6.65" departSpeed="0.00" departDelay="0.09" arrival="-1.00" arrivalLane="" arrivalPos="-1.00" arrivalSpeed="-1.00" duration="3559.00" routeLength="56.95" waitingTime="3531.00" waitingCount="5" stopTime="0.00" timeLoss="3552.70" rerouteNo="0" devices="tripinfo_f_0_3.5" vType="type1" speedFactor="0.98" vaporized="end"/>
    <tripinfo id="f_0_2.6" depart="50.00" departLane="np2_nt2_0" departPos="38.26" departSpeed="0.00" departDelay="0.91" arrival="-1.00" arrivalLane="" arrivalPos="-1.00" arrivalSpeed="-1.00" duration="3550.00" routeLength="593.88" waitingTime="3469.00" waitingCount="5" stopTime="0.00" timeLoss="3499.56" rerouteNo="0" devices="tripinfo_f_0_2.6" vType="type1" speedFactor="0.95" vaporized="end"/>
    <tripinfo id="f_0_3.6" depart="50.00" departLane="np3_nt3_0" departPos="5.13" departSpeed="0.00" departDelay="0.91" arrival="-1.00" arrivalLane="" arrivalPos="-1.00" arrivalSpeed="-1.00" duration="3550.00" routeLength="50.97" waitingTime="3523.00" waitingCount="5" stopTime="0.00" timeLoss="3544.48" rerouteNo="0" devices="tripinfo_f_0_3.6" vType="type1" speedFactor="1.02" vaporized="end"/>
    <tripinfo id="f_0_0.4" depart="55.00" departLane="np13_nt13_0" departPos="24.48" departSpeed="0.00" departDelay="0.46" arrival="-1.00" arrivalLane="" arrivalPos="-1.00" arrivalSpeed="-1.00" duration="3545.00" routeLength="242.32" waitingTime="3502.00" waitingCount="6" stopTime="0.00" timeLoss="3533.75" rerouteNo="0" devices="tripinfo_f_0_0.4" vType="type1" speedFactor="1.18" vaporized="end"/>
    <tripinfo id="f_0_1.4" depart="55.00" departLane="np16_nt1_0" departPos="10.21" departSpeed="0.00" departDelay="0.46" arrival="-1.00" arrivalLane="" arrivalPos="-1.00" arrivalSpeed="-1.00" duration="3545.00" routeLength="441.02" waitingTime="3485.00" waitingCount="7" stopTime="0.00" timeLoss="3518.06" rerouteNo="0" devices="tripinfo_f_0_1.4" vType="type1" speedFactor="0.85" vaporized="end"/>
    <tripinfo id="f_0_2.7" depart="58.00" departLane="np2_nt2_0" departPos="49.06" departSpeed="0.00" departDelay="0.73" arrival="-1.00" arrivalLane="" arrivalPos="-1.00" arrivalSpeed="-1.00" duration="3542.00" routeLength="575.58" waitingTime="3456.00" waitingCount="5" stopTime="0.00" timeLoss="3489.68" rerouteNo="0" devices="tripinfo_f_0_2.7" vType="type1" speedFactor="0.89" vaporized="end"/>
    <tripinfo id="f_0_3.7" depart="58.00" departLane="np3_nt3_0" departPos="6.70" departSpeed="0.00" departDelay="0.73" arrival="-1.00" arrivalLane="" arrivalPos="-1.00" arrivalSpeed="-1.00" duration="3542.00" routeLength="41.90" waitingTime="3512.00" waitingCount="6" stopTime="0.00" timeLoss="3537.32" rerouteNo="0" devices="tripinfo_f_0_3.7" vType="type1" speedFactor="1.03" vaporized="end"/>
    <tripinfo id="f_0_2.8" depart="66.00" departLane="np2_nt2_0" departPos="30.45" departSpeed="0.00" departDelay="0.54" arrival="-1.00" arrivalLane="" arrivalPos="-1.00" arrivalSpeed="-1.00" duration="3534.00" routeLength="586.69" waitingTime="3442.00" waitingCount="5" stopTime="0.00" timeLoss="3476.20" rerouteNo="0" devices="tripinfo_f_0_2.8" vType="type1" speedFactor="0.81" vaporized="end"/>
    <tripinfo id="f_0_3.8" depart="66.00" departLane="np3_nt3_0" departPos="0.00" departSpeed="0.00" departDelay="0.54" arrival="-1.00" arrivalLane="" arrivalPos="-1.00" arrivalSpeed="-1.00" duration="3534.00" routeLength="41.10" waitingTime="3503.00" waitingCount="6" stopTime="0.00" timeLoss="3529.37" rerouteNo="0" devices="tripinfo_f_0_3.8" vType="type1" speedFactor="1.03" vaporized="end"/>
    <tripinfo id="f_0_0.5" depart="69.00" departLane="np13_nt13_0" departPos="0.78" departSpeed="0.00" departDelay="0.82" arrival="-1.00" arrivalLane="" arrivalPos="-1.00" arrivalSpeed="-1.00" duration="3531.00" routeLength="258.51" waitingTime="3492.00" waitingCount="5" stopTime="0.00" timeLoss="3517.43" rerouteNo="0" devices="tripinfo_f_0_0.5" vType="type1" speedFactor="1.03" vaporized="end"/>
    <tripinfo id="f_0_1.5" depart="69.00" departLane="np16_nt1_0" departPos="27.25" departSpeed="0.00" departDelay="0.82" arrival="-1.00" arrivalLane="" arrivalPos="-1.00" arrivalSpeed="-1.00" duration="3531.00" routeLength="393.05" waitingTime="3473.00" waitingCount="8" stopTime="0.00" timeLoss="3512.40" rerouteNo="0" devices="tripinfo_f_0_1.5" vType="type1" speedFactor="1.12" vaporized="end"/>
    <tripinfo id="f_0_2.9" depart="74.00" departLane="np2_nt2_0" departPos="27.33" departSpeed="0.00" departDelay="0.36" arrival="-1.00" arrivalLane="" arrivalPos="-1.00" arrivalSpeed="-1.00" duration="3526.00" routeLength="582.31" waitingTime="3439.00" waitingCount="6" stopTime="0.00" timeLoss="3477.69" rerouteNo="0" devices="tripinfo_f_0_2.9" vType="type1" speedFactor="0.98" vaporized="end"/>
    <tripinfo id="f_0_3.9" depart="147.00" departLane="np3_nt3_0" departPos="0.77" departSpeed="0.00" departDelay="73.36" arrival="-1.00" arrivalLane="" arrivalPos="-1.00" arrivalSpeed="-1.00" duration="3453.00" routeLength="32.82" waitingTime="3424.00" waitingCount="4" stopTime="0.00" timeLoss="3448.43" rerouteNo="0" devices="tripinfo_f_0_3.9" vType="type1" speedFactor="0.84" vaporized="end"/>
    <tripinfo id="f_0_0.6" depart="82.00" departLane="np13_nt13_0" departPos="12.72" departSpeed="0.00" departDelay="0.18" arrival="-1.00" arrivalLane="" arrivalPos="-1.00" arrivalSpeed="-1.00" duration="3518.00" routeLength="239.08" waitingTime="3476.00" waitingCount="7" stopTime="0.00" timeLoss="3503.98" rerouteNo="0" devices="tripinfo_f_0_0.6" vType="type1" speedFactor="0.92" vaporized="end"/>
    <tripinfo id="f_0_1.6" depart="82.00" departLane="np16_nt1_0" departPos="8.27" departSpeed="0.00" departDelay="0.18" arrival="-1.00" arrivalLane="" arrivalPos="-1.00" arrivalSpeed="-1.00" duration="3518.00" routeLength="398.16" waitingTime="3458.00" waitingCount="7" stopTime="0.00" timeLoss="3495.44" rerouteNo="0" devices="tripinfo_f_0_1.6" vType="type1" speedFactor="0.92" vaporized="end"/>
    <tripinfo id="f_0_2.10" depart="82.00" departLane="np2_nt2_0" departPos="45.46" departSpeed="0.00" departDelay="0.18" arrival="-1.00" arrivalLane="" arrivalPos="-1.00" arrivalSpeed="-1.00" duration="3518.00" routeLength="556.68" waitingTime="3432.00" waitingCount="5" stopTime="0.00" timeLoss="3470.04" rerouteNo="0" devices="tripinfo_f_0_2.10" vType="type1" speedFactor="0.93" vaporized="end"/>
    <tripinfo id="f_0_3.10" depart="149.00" departLane="np3_nt3_0" departPos="0.00" departSpeed="0.00" departDelay="67.18" arrival="-1.00" arrivalLane="" arrivalPos="-1.00" arrivalSpeed="-1.00" duration="3451.00" routeLength="26.09" waitingTime="3424.00" waitingCount="4" stopTime="0.00" timeLoss="3447.86" rerouteNo="0" devices="tripinfo_f_0_3.10" vType="type1" speedFactor="1.11" vaporized="end"/>
    <tripinfo id="f_0_2.11" depart="90.00" departLane="np2_nt2_0" departPos="4.20" departSpeed="0.00" departDelay="0.00" arrival="-1.00" arrivalLane="" arrivalPos="-1.00" arrivalSpeed="-1.00" duration="3510.00" routeLength="590.43" waitingTime="3423.00" waitingCount="5" stopTime="0.00" timeLoss="3469.52" rerouteNo="0" devices="tripinfo_f_0_2.11" vType="type1" speedFactor="1.18" vaporized="end"/>
    <tripinfo id="f_0_3.11" depart="637.00" departLane="np3_nt3_0" departPos="0.00" departSpeed="0.00" departDelay="547.00" arrival="-1.00" arrivalLane="" arrivalPos="-1.00" arrivalSpeed="-1.00" duration="2963.00" routeLength="18.59" waitingTime="2941.00" waitingCount="4" stopTime="0.00" timeLoss="2959.82" rerouteNo="0" devices="tripinfo_f_0_3.11" vType="type1" speedFactor="0.78" vaporized="end"/>
    <tripinfo id="f_0_0.7" depart="96.00" departLane="np13_nt13_0" departPos="11.20" departSpeed="0.00" departDelay="0.55" arrival="-1.00" arrivalLane="" arrivalPos="-1.00" arrivalSpeed="-1.00" duration="3504.00" routeLength="233.09" waitingTime="3458.00" waitingCount="6" stopTime="0.00" timeLoss="3492.96" rerouteNo="0" devices="tripinfo_f_0_0.7" vType="type1" speedFactor="1.16" vaporized="end"/>
    <tripinfo id="f_0_1.7" depart="96.00" departLane="np16_nt1_0" departPos="16.24" departSpeed="0.00" departDelay="0.55" arrival="-1.00" arrivalLane="" arrivalPos="-1.00" arrivalSpeed="-1.00" duration="3504.00" routeLength="308.88" waitingTime="3436.00" waitingCount="6" stopTime="0.00" timeLoss="3489.33" rerouteNo="0" devices="tripinfo_f_0_1.7" vType="type1" speedFactor="1.13" vaporized="end"/>
    <tripinfo id="f_0_2.12" depart="99.00" departLane="np2_nt2_0" departPos="21.13" departSpeed="0.00" departDelay="0.82" arrival="-1.00" arrivalLane="" arrivalPos="-1.00" arrivalSpeed="-1.00" duration="3501.00" routeLength="566.00" waitingTime="3414.00" waitingCount="5" stopTime="0.00" timeLoss="3451.43" rerouteNo="0" devices="tripinfo_f_0_2.12" vType="type1" speedFactor="0.92" vaporized="end"/>
    <tripinfo id="f_0_3.12" depart="758.00" departLane="np3_nt3_0" departPos="0.95" departSpeed="0.00" departDelay="659.82" arrival="-1.00" arrivalLane="" arrivalPos="-1.00" arrivalSpeed="-1.00" duration="2842.00" routeLength="10.14" waitingTime="2826.00" waitingCount="2" stopTime="0.00" timeLoss="2840.06" rerouteNo="0" devices="tripinfo_f_0_3.12" vType="type1" speedFactor="0.98" vaporized="end"/>
    <tripinfo id="f_0_2.13" depart="107.00" departLane="np2_nt2_0" departPos="10.75" departSpeed="0.00" departDelay="0.63" arrival="-1.00" arrivalLane="" arrivalPos="-1.00" arrivalSpeed="-1.00" duration="3493.00" routeLength="568.88" waitingTime="3403.00" waitingCount="5" stopTime="0.00" timeLoss="3449.13" rerouteNo="0" devices="tripinfo_f_0_2.13" vType="type1" speedFactor="1.05" vaporized="end"/>
    <tripinfo id="f_0_3.13" depart="2538.00" departLane="np3_nt3_0" departPos="0.00" departSpeed="0.00" departDelay="2431.63" arrival="-1.00" arrivalLane="" arrivalPos="-1.00" arrivalSpeed="-1.00" duration="1062.00" routeLength="3.59" waitingTime="1055.00" waitingCount="2" stopTime="0.00" timeLoss="1060.67" rerouteNo="0" devices="tripinfo_f_0_3.13" vType="type1" speedFactor="0.97" vaporized="end"/>
    <tripinfo id="f_0_0.8" depart="110.00" departLane="np13_nt13_0" departPos="0.00" departSpeed="0.00" departDelay="0.91" arrival="-1.00" arrivalLane="" arrivalPos="-1.00" arrivalSpeed="-1.00" duration="3490.00" routeLength="236.79" waitingTime="3439.00" waitingCount="7" stopTime="0.00" timeLoss="3479.40" rerouteNo="0" devices="tripinfo_f_0_0.8" vType="type1" speedFactor="1.23" vaporized="end"/>
    <tripinfo id="f_0_1.8" depart="110.00" departLane="np16_nt1_0" departPos="2.95" departSpeed="0.00" departDelay="0.91" arrival="-1.00" arrivalLane="" arrivalPos="-1.00" arrivalSpeed="-1.00" duration="3490.00" routeLength="290.32" waitingTime="3421.00" waitingCount="6" stopTime="0.00" timeLoss="3474.60" rerouteNo="0" devices="tripinfo_f_0_1.8" vType="type1" speedFactor="1.01" vaporized="end"/>
    <tripinfo id="f_0_2.14" depart="115.00" departLane="np2_nt2_0" departPos="6.66" departSpeed="0.00" departDelay="0.45" arrival="-1.00" arrivalLane="" arrivalPos="-1.00" arrivalSpeed="-1.00" duration="3485.00" routeLength="565.47" waitingTime="3391.00" waitingCount="5" stopTime="0.00" timeLoss="3438.74" rerouteNo="0" devices="tripinfo_f_0_2.14" vType="type1" speedFactor="0.99" vaporized="end"/>
    <tripinfo id="f_0_0.9" depart="196.00" departLane="np13_nt13_0" departPos="0.00" departSpeed="0.00" departDelay="73.28" arrival="-1.00" arrivalLane="" arrivalPos="-1.00" arrivalSpeed="-1.00" duration="3404.00" routeLength="229.29" waitingTime="3355.00" waitingCount="6" stopTime="0.00" timeLoss="3391.31" rerouteNo="0" devices="tripinfo_f_0_0.9" vType="type1" speedFactor="0.98" vaporized="end"/>
    <tripinfo id="f_0_1.9" depart="123.00" departLane="np16_nt1_0" departPos="4.53" departSpeed="0.00" departDelay="0.28" arrival="-1.00" arrivalLane="" arrivalPos="-1.00" arrivalSpeed="-1.00" duration="3477.00" routeLength="262.20" waitingTime="3410.00" waitingCount="6" stopTime="0.00" timeLoss="3461.62" rerouteNo="0" devices="tripinfo_f_0_1.9" vType="type1" speedFactor="0.91" vaporized="end"/>
    <tripinfo id="f_0_2.15" depart="123.00" departLane="np2_nt2_0" departPos="35.10" departSpeed="0.00" departDelay="0.27" arrival="-1.00" arrivalLane="" arrivalPos="-1.00" arrivalSpeed="-1.00" duration="3477.00" routeLength="529.53" waitingTime="3387.00" waitingCount="5" stopTime="0.00" timeLoss="3433.78" rerouteNo="0" devices="tripinfo_f_0_2.15" vType="type1" speedFactor="0.97" vaporized="end"/>
    <tripinfo id="f_0_2.16" depart="131.00" departLane="np2_nt2_0" departPos="24.05" departSpeed="0.00" departDelay="0.09" arrival="-1.00" arrivalLane="" arrivalPos="-1.00" arrivalSpeed="-1.00" duration="3469.00" routeLength="533.08" waitingTime="3380.00" waitingCount="5" stopTime="0.00" timeLoss="3420.64" rerouteNo="0" devices="tripinfo_f_0_2.16" vType="type1" speedFactor="0.88" vaporized="end"/>
    <tripinfo id="f_0_0.10" depart="200.00" departLane="np13_nt13_0" departPos="0.00" departSpeed="0.00" departDelay="63.64" arrival="-1.00" arrivalLane="" arrivalPos="-1.00" arrivalSpeed="-1.00" duration="3400.00" routeLength="221.79" waitingTime="3345.00" waitingCount="7" stopTime="0.00" timeLoss="3389.21" rerouteNo="0" devices="tripinfo_f_0_0.10" vType="type1" speedFactor="1.13" vaporized="end"/>
    <tripinfo id="f_0_1.10" depart="176.00" departLane="np16_nt1_0" departPos="0.82" departSpeed="0.00" departDelay="39.64" arrival="-1.00" arrivalLane="" arrivalPos="-1.00" arrivalSpeed="-1.00" duration="3424.00" routeLength="242.17" waitingTime="3357.00" waitingCount="5" stopTime="0.00" timeLoss="3409.64" rerouteNo="0" devices="tripinfo_f_0_1.10" vType="type1" speedFactor="0.91" vaporized="end"/>
    <tripinfo id="f_0_2.17" depart="140.00" departLane="np2_nt2_0" departPos="28.87" departSpeed="0.00" departDelay="0.91" arrival="-1.00" arrivalLane="" arrivalPos="-1.00" arrivalSpeed="-1.00" duration="3460.00" routeLength="520.75" waitingTime="3374.00" waitingCount="6" stopTime="0.00" timeLoss="3423.22" rerouteNo="0" devices="tripinfo_f_0_2.17" vType="type1" speedFactor="1.12" vaporized="end"/>
    <tripinfo id="f_0_2.18" depart="148.00" departLane="np2_nt2_0" departPos="31.75" departSpeed="0.00" departDelay="0.72" arrival="-1.00" arrivalLane="" arrivalPos="-1.00" arrivalSpeed="-1.00" duration="3452.00" routeLength="510.37" waitingTime="3366.00" waitingCount="5" stopTime="0.00" timeLoss="3415.78" rerouteNo="0" devices="tripinfo_f_0_2.18" vType="type1" speedFactor="1.12" vaporized="end"/>
    <tripinfo id="f_0_0.11" depart="846.00" departLane="np13_nt13_0" departPos="0.00" departSpeed="0.00" departDelay="696.00" arrival="-1.00" arrivalLane="" arrivalPos="-1.00" arrivalSpeed="-1.00" duration="2754.00" routeLength="214.29" waitingTime="2703.00" waitingCount="6" stopTime="0.00" timeLoss="2742.72" rerouteNo="0" devices="tripinfo_f_0_0.11" vType="type1" speedFactor="1.04" vaporized="end"/>
    <tripinfo id="f_0_1.11" depart="180.00" departLane="np16_nt1_0" departPos="0.03" departSpeed="0.00" departDelay="30.00" arrival="-1.00" arrivalLane="" arrivalPos="-1.00" arrivalSpeed="-1.00" duration="3420.00" routeLength="223.97" waitingTime="3355.00" waitingCount="5" stopTime="0.00" timeLoss="3408.37" rerouteNo="0" devices="tripinfo_f_0_1.11" vType="type1" speedFactor="1.05" vaporized="end"/>
    <tripinfo id="f_0_2.19" depart="156.00" departLane="np2_nt2_0" departPos="40.35" departSpeed="0.00" departDelay="0.54" arrival="-1.00" arrivalLane="" arrivalPos="-1.00" arrivalSpeed="-1.00" duration="3444.00" routeLength="494.28" waitingTime="3355.00" waitingCount="5" stopTime="0.00" timeLoss="3401.60" rerouteNo="0" devices="tripinfo_f_0_2.19" vType="type1" speedFactor="0.93" vaporized="end"/>
    <tripinfo id="f_0_0.12" depart="895.00" departLane="np13_nt13_0" departPos="0.00" departSpeed="0.00" departDelay="731.37" arrival="-1.00" arrivalLane="" arrivalPos="-1.00" arrivalSpeed="-1.00" duration="2705.00" routeLength="66.80" waitingTime="2670.00" waitingCount="7" stopTime="0.00" timeLoss="2700.57" rerouteNo="0" devices="tripinfo_f_0_0.12" vType="type1" speedFactor="0.97" vaporized="end"/>
    <tripinfo id="f_0_1.12" depart="762.00" departLane="np16_nt1_0" departPos="51.33" departSpeed="0.00" departDelay="598.37" arrival="-1.00" arrivalLane="" arrivalPos="-1.00" arrivalSpeed="-1.00" duration="2838.00" routeLength="303.83" waitingTime="2787.00" waitingCount="6" stopTime="0.00" timeLoss="2822.79" rerouteNo="0" devices="tripinfo_f_0_1.12" vType="type1" speedFactor="1.07" vaporized="end"/>
    <tripinfo id="f_0_2.20" depart="164.00" departLane="np2_nt2_0" departPos="42.74" departSpeed="0.00" departDelay="0.36" arrival="-1.00" arrivalLane="" arrivalPos="-1.00" arrivalSpeed="-1.00" duration="3436.00" routeLength="484.38" waitingTime="3351.00" waitingCount="5" stopTime="0.00" timeLoss="3404.03" rerouteNo="0" devices="tripinfo_f_0_2.20" vType="type1" speedFactor="1.21" vaporized="end"/>
    <tripinfo id="f_0_2.21" depart="172.00" departLane="np2_nt2_0" departPos="45.90" departSpeed="0.00" departDelay="0.18" arrival="-1.00" arrivalLane="" arrivalPos="-1.00" arrivalSpeed="-1.00" duration="3428.00" routeLength="473.73" waitingTime="3344.00" waitingCount="6" stopTime="0.00" timeLoss="3393.66" rerouteNo="0" devices="tripinfo_f_0_2.21" vType="type1" speedFactor="1.09" vaporized="end"/>
    <tripinfo id="f_0_0.13" depart="900.00" departLane="np13_nt13_0" departPos="0.00" departSpeed="0.00" departDelay="722.73" arrival="-1.00" arrivalLane="" arrivalPos="-1.00" arrivalSpeed="-1.00" duration="2700.00" routeLength="59.30" waitingTime="2661.00" waitingCount="5" stopTime="0.00" timeLoss="2696.26" rerouteNo="0" devices="tripinfo_f_0_0.13" vType="type1" speedFactor="1.08" vaporized="end"/>
    <tripinfo id="f_0_1.13" depart="763.00" departLane="np16_nt1_0" departPos="62.48" departSpeed="0.00" departDelay="585.73" arrival="-1.00" arrivalLane="" arrivalPos="-1.00" arrivalSpeed="-1.00" duration="2837.00" routeLength="319.49" waitingTime="2788.00" waitingCount="6" stopTime="0.00" timeLoss="2818.69" rerouteNo="0" devices="tripinfo_f_0_1.13" vType="type1" speedFactor="0.92" vaporized="end"/>
    <tripinfo id="f_0_2.22" depart="180.00" departLane="np2_nt2_0" departPos="52.76" departSpeed="0.00" departDelay="0.00" arrival="-1.00" arrivalLane="" arrivalPos="-1.00" arrivalSpeed="-1.00" duration="3420.00" routeLength="459.36" waitingTime="3333.00" waitingCount="7" stopTime="0.00" timeLoss="3381.91" rerouteNo="0" devices="tripinfo_f_0_2.22" vType="type1" speedFactor="0.95" vaporized="end"/>
    <tripinfo id="f_0_2.23" depart="189.00" departLane="np2_nt2_0" departPos="45.67" departSpeed="0.00" departDelay="0.81" arrival="-1.00" arrivalLane="" arrivalPos="-1.00" arrivalSpeed="-1.00" duration="3411.00" routeLength="458.95" waitingTime="3323.00" waitingCount="5" stopTime="0.00" timeLoss="3366.59" rerouteNo="0" devices="tripinfo_f_0_2.23" vType="type1" speedFactor="0.80" vaporized="end"/>
    <tripinfo id="f_0_0.14" depart="1771.00" departLane="np13_nt13_0" departPos="0.00" departSpeed="0.00" departDelay="1580.10" arrival="-1.00" arrivalLane="" arrivalPos="-1.00" arrivalSpeed="-1.00" duration="1829.00" routeLength="51.80" waitingTime="1795.00" waitingCount="3" stopTime="0.00" timeLoss="1824.85" rerouteNo="0" devices="tripinfo_f_0_0.14" vType="type1" speedFactor="0.82" vaporized="end"/>
    <tripinfo id="f_0_1.14" depart="766.00" departLane="np16_nt1_0" departPos="0.00" departSpeed="0.00" departDelay="575.10" arrival="-1.00" arrivalLane="" arrivalPos="-1.00" arrivalSpeed="-1.00" duration="2834.00" routeLength="208.23" waitingTime="2776.00" waitingCount="4" stopTime="0.00" timeLoss="2820.66" rerouteNo="0" devices="tripinfo_f_0_1.14" vType="type1" speedFactor="0.84" vaporized="end"/>
    <tripinfo id="f_0_2.24" depart="197.00" departLane="np2_nt2_0" departPos="24.29" departSpeed="0.00" departDelay="0.63" arrival="-1.00" arrivalLane="" arrivalPos="-1.00" arrivalSpeed="-1.00" duration="3403.00" routeLength="472.82" waitingTime="3317.00" waitingCount="5" stopTime="0.00" timeLoss="3368.23" rerouteNo="0" devices="tripinfo_f_0_2.24" vType="type1" speedFactor="1.06" vaporized="end"/>