<?xml version="1.0" encoding="UTF-8"?>

<!-- generated on 2023-08-30 19:41:19 by Eclipse SUMO libsumo Version 1.18.0
<configuration xmlns:xsi="http://www.w3.org/2001/XMLSchema-instance" xsi:noNamespaceSchemaLocation="http://sumo.dlr.de/xsd/libsumoConfiguration.xsd">

    <input>
        <net-file value="/home/stefan/RESCO/./environments/arterial4x4/arterial4x4.net.xml"/>
        <route-files value="/home/stefan/RESCO/./environments/arterial4x4/arterial4x4_92.rou.xml"/>
    </input>

    <output>
        <tripinfo-output value="/home/stefan/results/RAINBOW-tr0-arterial4x4-0-drq_norm-wait_norm/tripinfo_92.xml"/>
        <tripinfo-output.write-unfinished value="true"/>
    </output>

    <processing>
        <time-to-teleport value="-1"/>
    </processing>

    <report>
        <no-warnings value="True"/>
        <no-step-log value="True"/>
    </report>

    <random_number>
        <random value="true"/>
    </random_number>

</configuration>
-->

<tripinfos xmlns:xsi="http://www.w3.org/2001/XMLSchema-instance" xsi:noNamespaceSchemaLocation="http://sumo.dlr.de/xsd/tripinfo_file.xsd">
    <tripinfo id="f_0_2.0" depart="0.00" departLane="np2_nt2_0" departPos="10.30" departSpeed="0.00" departDelay="0.00" arrival="3328.00" arrivalLane="nt15_np10_0" arrivalPos="75.00" arrivalSpeed="8.40" duration="3328.00" routeLength="940.78" waitingTime="3219.00" waitingCount="4" stopTime="0.00" timeLoss="3243.10" rerouteNo="0" devices="tripinfo_f_0_2.0" vType="type1" speedFactor="0.93" vaporized=""/>
    <tripinfo id="f_0_2.1" depart="9.00" departLane="np2_nt2_0" departPos="17.06" departSpeed="0.00" departDelay="0.82" arrival="3330.00" arrivalLane="nt15_np10_0" arrivalPos="75.00" arrivalSpeed="8.51" duration="3321.00" routeLength="934.02" waitingTime="3215.00" waitingCount="4" stopTime="0.00" timeLoss="3241.60" rerouteNo="0" devices="tripinfo_f_0_2.1" vType="type1" speedFactor="0.99" vaporized=""/>
    <tripinfo id="f_0_2.2" depart="17.00" departLane="np2_nt2_0" departPos="5.97" departSpeed="0.00" departDelay="0.64" arrival="3332.00" arrivalLane="nt15_np10_0" arrivalPos="75.00" arrivalSpeed="10.58" duration="3315.00" routeLength="945.11" waitingTime="3211.00" waitingCount="5" stopTime="0.00" timeLoss="3245.36" rerouteNo="0" devices="tripinfo_f_0_2.2" vType="type1" speedFactor="1.14" vaporized=""/>
    <tripinfo id="f_0_2.3" depart="25.00" departLane="np2_nt2_0" departPos="28.11" departSpeed="0.00" departDelay="0.45" arrival="3334.00" arrivalLane="nt15_np10_0" arrivalPos="75.00" arrivalSpeed="10.04" duration="3309.00" routeLength="922.97" waitingTime="3198.00" waitingCount="5" stopTime="0.00" timeLoss="3226.81" rerouteNo="0" devices="tripinfo_f_0_2.3" vType="type1" speedFactor="0.94" vaporized=""/>
    <tripinfo id="f_0_2.4" depart="33.00" departLane="np2_nt2_0" departPos="14.74" departSpeed="0.00" departDelay="0.27" arrival="3337.00" arrivalLane="nt15_np10_0" arrivalPos="75.00" arrivalSpeed="8.65" duration="3304.00" routeLength="936.34" waitingTime="3185.00" waitingCount="6" stopTime="0.00" timeLoss="3223.48" rerouteNo="0" devices="tripinfo_f_0_2.4" vType="type1" speedFactor="0.98" vaporized=""/>
    <tripinfo id="f_0_2.5" depart="41.00" departLane="np2_nt2_0" departPos="30.33" departSpeed="0.00" departDelay="0.09" arrival="3339.00" arrivalLane="nt15_np10_0" arrivalPos="75.00" arrivalSpeed="9.60" duration="3298.00" routeLength="920.75" waitingTime="3175.00" waitingCount="7" stopTime="0.00" timeLoss="3216.47" rerouteNo="0" devices="tripinfo_f_0_2.5" vType="type1" speedFactor="0.95" vaporized=""/>
    <tripinfo id="f_0_2.6" depart="50.00" departLane="np2_nt2_0" departPos="44.35" departSpeed="0.00" departDelay="0.91" arrival="3341.00" arrivalLane="nt15_np10_0" arrivalPos="75.00" arrivalSpeed="11.60" duration="3291.00" routeLength="906.73" waitingTime="3169.00" waitingCount="7" stopTime="0.00" timeLoss="3219.91" rerouteNo="0" devices="tripinfo_f_0_2.6" vType="type1" speedFactor="1.08" vaporized=""/>
    <tripinfo id="f_0_2.7" depart="58.00" departLane="np2_nt2_0" departPos="57.43" departSpeed="0.00" departDelay="0.73" arrival="3343.00" arrivalLane="nt15_np10_0" arrivalPos="75.00" arrivalSpeed="10.48" duration="3285.00" routeLength="893.65" waitingTime="3162.00" waitingCount="8" stopTime="0.00" timeLoss="3213.57" rerouteNo="0" devices="tripinfo_f_0_2.7" vType="type1" speedFactor="1.05" vaporized=""/>
    <tripinfo id="f_0_2.8" depart="66.00" departLane="np2_nt2_0" departPos="33.85" departSpeed="0.00" departDelay="0.54" arrival="3347.00" arrivalLane="nt15_np10_0" arrivalPos="75.00" arrivalSpeed="8.02" duration="3281.00" routeLength="917.23" waitingTime="3136.00" waitingCount="7" stopTime="0.00" timeLoss="3188.98" rerouteNo="0" devices="tripinfo_f_0_2.8" vType="type1" speedFactor="0.83" vaporized=""/>
    <tripinfo id="f_0_2.9" depart="74.00" departLane="np2_nt2_0" departPos="20.22" departSpeed="0.00" departDelay="0.36" arrival="3349.00" arrivalLane="nt15_np10_0" arrivalPos="75.00" arrivalSpeed="11.21" duration="3275.00" routeLength="930.86" waitingTime="3134.00" waitingCount="8" stopTime="0.00" timeLoss="3206.00" rerouteNo="0" devices="tripinfo_f_0_2.9" vType="type1" speedFactor="1.13" vaporized=""/>
    <tripinfo id="f_0_2.10" depart="82.00" departLane="np2_nt2_0" departPos="5.14" departSpeed="0.00" departDelay="0.18" arrival="3351.00" arrivalLane="nt15_np10_0" arrivalPos="75.00" arrivalSpeed="8.98" duration="3269.00" routeLength="945.94" waitingTime="3113.00" waitingCount="9" stopTime="0.00" timeLoss="3188.15" rerouteNo="0" devices="tripinfo_f_0_2.10" vType="type1" speedFactor="0.99" vaporized=""/>
    <tripinfo id="f_0_2.11" depart="90.00" departLane="np2_nt2_0" departPos="28.71" departSpeed="0.00" departDelay="0.00" arrival="3447.00" arrivalLane="nt15_np10_0" arrivalPos="75.00" arrivalSpeed="9.69" duration="3357.00" routeLength="922.37" waitingTime="3201.00" waitingCount="11" stopTime="0.00" timeLoss="3283.68" rerouteNo="0" devices="tripinfo_f_0_2.11" vType="type1" speedFactor="1.05" vaporized=""/>
    <tripinfo id="f_0_2.12" depart="99.00" departLane="np2_nt2_0" departPos="26.48" departSpeed="0.00" departDelay="0.82" arrival="3449.00" arrivalLane="nt15_np10_0" arrivalPos="75.00" arrivalSpeed="8.73" duration="3350.00" routeLength="924.60" waitingTime="3186.00" waitingCount="11" stopTime="0.00" timeLoss="3269.59" rerouteNo="0" devices="tripinfo_f_0_2.12" vType="type1" speedFactor="0.97" vaporized=""/>
    <tripinfo id="f_0_2.13" depart="107.00" departLane="np2_nt2_0" departPos="20.43" departSpeed="0.00" departDelay="0.63" arrival="3452.00" arrivalLane="nt15_np10_0" arrivalPos="75.00" arrivalSpeed="10.93" duration="3345.00" routeLength="930.65" waitingTime="3173.00" waitingCount="12" stopTime="0.00" timeLoss="3268.36" rerouteNo="0" devices="tripinfo_f_0_2.13" vType="type1" speedFactor="1.03" vaporized=""/>
    <tripinfo id="f_0_2.14" depart="115.00" departLane="np2_nt2_0" departPos="17.42" departSpeed="0.00" departDelay="0.45" arrival="3454.00" arrivalLane="nt15_np10_0" arrivalPos="75.00" arrivalSpeed="8.73" duration="3339.00" routeLength="933.66" waitingTime="3157.00" waitingCount="13" stopTime="0.00" timeLoss="3257.16" rerouteNo="0" devices="tripinfo_f_0_2.14" vType="type1" speedFactor="0.95" vaporized=""/>
    <tripinfo id="f_0_2.15" depart="123.00" departLane="np2_nt2_0" departPos="55.30" departSpeed="0.00" departDelay="0.27" arrival="3456.00" arrivalLane="nt15_np10_0" arrivalPos="75.00" arrivalSpeed="10.82" duration="3333.00" routeLength="895.78" waitingTime="3145.00" waitingCount="14" stopTime="0.00" timeLoss="3257.03" rerouteNo="0" devices="tripinfo_f_0_2.15" vType="type1" speedFactor="0.99" vaporized=""/>
    <tripinfo id="f_0_2.16" depart="131.00" departLane="np2_nt2_0" departPos="49.47" departSpeed="0.00" departDelay="0.09" arrival="3458.00" arrivalLane="nt15_np10_0" arrivalPos="75.00" arrivalSpeed="10.34" duration="3327.00" routeLength="901.61" waitingTime="3138.00" waitingCount="14" stopTime="0.00" timeLoss="3250.32" rerouteNo="0" devices="tripinfo_f_0_2.16" vType="type1" speedFactor="0.99" vaporized=""/>
    <tripinfo id="f_0_0.0" depart="0.00" departLane="np13_nt13_0" departPos="57.18" departSpeed="0.00" departDelay="0.00" arrival="-1.00" arrivalLane="" arrivalPos="-1.00" arrivalSpeed="-1.00" duration="3600.00" routeLength="9.62" waitingTime="3596.00" waitingCount="1" stopTime="0.00" timeLoss="3598.56" rerouteNo="0" devices="tripinfo_f_0_0.0" vType="type1" speedFactor="1.10" vaporized="end"/>
    <tripinfo id="f_0_1.0" depart="0.00" departLane="np16_nt1_0" departPos="25.12" departSpeed="0.00" departDelay="0.00" arrival="-1.00" arrivalLane="" arrivalPos="-1.00" arrivalSpeed="-1.00" duration="3600.00" routeLength="267.16" waitingTime="3573.00" waitingCount="2" stopTime="0.00" timeLoss="3582.84" rerouteNo="0" devices="tripinfo_f_0_1.0" vType="type1" speedFactor="0.83" vaporized="end"/>
    <tripinfo id="f_0_3.0" depart="0.00" departLane="np3_nt3_0" departPos="3.82" departSpeed="0.00" departDelay="0.00" arrival="-1.00" arrivalLane="" arrivalPos="-1.00" arrivalSpeed="-1.00" duration="3600.00" routeLength="59.78" waitingTime="3590.00" waitingCount="1" stopTime="0.00" timeLoss="3592.88" rerouteNo="0" devices="tripinfo_f_0_3.0" vType="type1" speedFactor="0.89" vaporized="end"/>
    <tripinfo id="f_0_3.1" depart="9.00" departLane="np3_nt3_0" departPos="32.59" departSpeed="0.00" departDelay="0.82" arrival="-1.00" arrivalLane="" arrivalPos="-1.00" arrivalSpeed="-1.00" duration="3591.00" routeLength="23.51" waitingTime="3584.00" waitingCount="1" stopTime="0.00" timeLoss="3588.04" rerouteNo="0" devices="tripinfo_f_0_3.1" vType="type1" speedFactor="1.09" vaporized="end"/>
    <tripinfo id="f_0_0.1" depart="14.00" departLane="np13_nt13_0" departPos="0.36" departSpeed="0.00" departDelay="0.36" arrival="-1.00" arrivalLane="" arrivalPos="-1.00" arrivalSpeed="-1.00" duration="3586.00" routeLength="58.94" waitingTime="3577.00" waitingCount="1" stopTime="0.00" timeLoss="3581.06" rerouteNo="0" devices="tripinfo_f_0_0.1" vType="type1" speedFactor="0.75" vaporized="end"/>
    <tripinfo id="f_0_1.1" depart="14.00" departLane="np16_nt1_0" departPos="53.20" departSpeed="0.00" departDelay="0.36" arrival="-1.00" arrivalLane="" arrivalPos="-1.00" arrivalSpeed="-1.00" duration="3586.00" routeLength="213.60" waitingTime="3565.00" waitingCount="2" stopTime="0.00" timeLoss="3572.96" rerouteNo="0" devices="tripinfo_f_0_1.1" vType="type1" speedFactor="0.89" vaporized="end"/>
    <tripinfo id="f_0_3.2" depart="17.00" departLane="np3_nt3_0" departPos="43.12" departSpeed="0.00" departDelay="0.64" arrival="-1.00" arrivalLane="" arrivalPos="-1.00" arrivalSpeed="-1.00" duration="3583.00" routeLength="5.47" waitingTime="3577.00" waitingCount="1" stopTime="0.00" timeLoss="3581.53" rerouteNo="0" devices="tripinfo_f_0_3.2" vType="type1" speedFactor="1.07" vaporized="end"/>
    <tripinfo id="f_0_3.3" depart="25.00" departLane="np3_nt3_0" departPos="24.81" departSpeed="0.00" departDelay="0.45" arrival="-1.00" arrivalLane="" arrivalPos="-1.00" arrivalSpeed="-1.00" duration="3575.00" routeLength="16.29" waitingTime="3570.00" waitingCount="1" stopTime="0.00" timeLoss="3572.55" rerouteNo="0" devices="tripinfo_f_0_3.3" vType="type1" speedFactor="1.02" vaporized="end"/>
    <tripinfo id="f_0_0.2" depart="28.00" departLane="np13_nt13_0" departPos="29.97" departSpeed="0.00" departDelay="0.73" arrival="-1.00" arrivalLane="" arrivalPos="-1.00" arrivalSpeed="-1.00" duration="3572.00" routeLength="21.83" waitingTime="3565.00" waitingCount="1" stopTime="0.00" timeLoss="3569.80" rerouteNo="0" devices="tripinfo_f_0_0.2" vType="type1" speedFactor="0.91" vaporized="end"/>
    <tripinfo id="f_0_1.2" depart="28.00" departLane="np16_nt1_0" departPos="61.86" departSpeed="0.00" departDelay="0.73" arrival="-1.00" arrivalLane="" arrivalPos="-1.00" arrivalSpeed="-1.00" duration="3572.00" routeLength="197.43" waitingTime="3555.00" waitingCount="2" stopTime="0.00" timeLoss="3561.72" rerouteNo="0" devices="tripinfo_f_0_1.2" vType="type1" speedFactor="1.06" vaporized="end"/>
    <tripinfo id="f_0_3.4" depart="33.00" departLane="np3_nt3_0" departPos="1.48" departSpeed="0.00" departDelay="0.27" arrival="-1.00" arrivalLane="" arrivalPos="-1.00" arrivalSpeed="-1.00" duration="3567.00" routeLength="32.12" waitingTime="3560.00" waitingCount="1" stopTime="0.00" timeLoss="3562.89" rerouteNo="0" devices="tripinfo_f_0_3.4" vType="type1" speedFactor="0.94" vaporized="end"/>
    <tripinfo id="f_0_0.3" depart="41.00" departLane="np13_nt13_0" departPos="18.07" departSpeed="0.00" departDelay="0.09" arrival="-1.00" arrivalLane="" arrivalPos="-1.00" arrivalSpeed="-1.00" duration="3559.00" routeLength="26.23" waitingTime="3552.00" waitingCount="1" stopTime="0.00" timeLoss="3556.65" rerouteNo="0" devices="tripinfo_f_0_0.3" vType="type1" speedFactor="0.97" vaporized="end"/>
    <tripinfo id="f_0_1.3" depart="41.00" departLane="np16_nt1_0" departPos="30.19" departSpeed="0.00" departDelay="0.09" arrival="-1.00" arrivalLane="" arrivalPos="-1.00" arrivalSpeed="-1.00" duration="3559.00" routeLength="221.61" waitingTime="3534.00" waitingCount="2" stopTime="0.00" timeLoss="3544.11" rerouteNo="0" devices="tripinfo_f_0_1.3" vType="type1" speedFactor="0.80" vaporized="end"/>
    <tripinfo id="f_0_3.5" depart="41.00" departLane="np3_nt3_0" departPos="20.58" departSpeed="0.00" departDelay="0.09" arrival="-1.00" arrivalLane="" arrivalPos="-1.00" arrivalSpeed="-1.00" duration="3559.00" routeLength="5.52" waitingTime="3555.00" waitingCount="1" stopTime="0.00" timeLoss="3557.55" rerouteNo="0" devices="tripinfo_f_0_3.5" vType="type1" speedFactor="1.11" vaporized="end"/>
    <tripinfo id="f_0_3.6" depart="50.00" departLane="np3_nt3_0" departPos="0.95" departSpeed="0.00" departDelay="0.91" arrival="-1.00" arrivalLane="" arrivalPos="-1.00" arrivalSpeed="-1.00" duration="3550.00" routeLength="17.64" waitingTime="3545.00" waitingCount="1" stopTime="0.00" timeLoss="3547.15" rerouteNo="0" devices="tripinfo_f_0_3.6" vType="type1" speedFactor="0.87" vaporized="end"/>
    <tripinfo id="f_0_0.4" depart="55.00" departLane="np13_nt13_0" departPos="28.55" departSpeed="0.00" departDelay="0.46" arrival="-1.00" arrivalLane="" arrivalPos="-1.00" arrivalSpeed="-1.00" duration="3545.00" routeLength="8.25" waitingTime="3540.00" waitingCount="1" stopTime="0.00" timeLoss="3543.57" rerouteNo="0" devices="tripinfo_f_0_0.4" vType="type1" speedFactor="0.96" vaporized="end"/>
    <tripinfo id="f_0_1.4" depart="55.00" departLane="np16_nt1_0" departPos="49.10" departSpeed="0.00" departDelay="0.46" arrival="-1.00" arrivalLane="" arrivalPos="-1.00" arrivalSpeed="-1.00" duration="3545.00" routeLength="195.20" waitingTime="3524.00" waitingCount="2" stopTime="0.00" timeLoss="3534.56" rerouteNo="0" devices="tripinfo_f_0_1.4" vType="type1" speedFactor="1.03" vaporized="end"/>
    <tripinfo id="f_0_3.7" depart="58.00" departLane="np3_nt3_0" departPos="5.79" departSpeed="0.00" departDelay="0.73" arrival="-1.00" arrivalLane="" arrivalPos="-1.00" arrivalSpeed="-1.00" duration="3542.00" routeLength="5.30" waitingTime="3538.00" waitingCount="1" stopTime="0.00" timeLoss="3540.54" rerouteNo="0" devices="tripinfo_f_0_3.7" vType="type1" speedFactor="1.05" vaporized="end"/>
    <tripinfo id="f_0_3.8" depart="66.00" departLane="np3_nt3_0" departPos="0.00" departSpeed="0.00" departDelay="0.54" arrival="-1.00" arrivalLane="" arrivalPos="-1.00" arrivalSpeed="-1.00" duration="3534.00" routeLength="3.59" waitingTime="3531.00" waitingCount="1" stopTime="0.00" timeLoss="3532.70" rerouteNo="0" devices="tripinfo_f_0_3.8" vType="type1" speedFactor="1.07" vaporized="end"/>
    <tripinfo id="f_0_0.5" depart="69.00" departLane="np13_nt13_0" departPos="27.31" departSpeed="0.00" departDelay="0.82" arrival="-1.00" arrivalLane="" arrivalPos="-1.00" arrivalSpeed="-1.00" duration="3531.00" routeLength="1.98" waitingTime="3528.00" waitingCount="1" stopTime="0.00" timeLoss="3529.90" rerouteNo="0" devices="tripinfo_f_0_0.5" vType="type1" speedFactor="0.96" vaporized="end"/>
    <tripinfo id="f_0_1.5" depart="69.00" departLane="np16_nt1_0" departPos="38.21" departSpeed="0.00" departDelay="0.82" arrival="-1.00" arrivalLane="" arrivalPos="-1.00" arrivalSpeed="-1.00" duration="3531.00" routeLength="198.58" waitingTime="3511.00" waitingCount="2" stopTime="0.00" timeLoss="3521.86" rerouteNo="0" devices="tripinfo_f_0_1.5" vType="type1" speedFactor="1.22" vaporized="end"/>
    <tripinfo id="f_0_0.6" depart="82.00" departLane="np13_nt13_0" departPos="14.12" departSpeed="0.00" departDelay="0.18" arrival="-1.00" arrivalLane="" arrivalPos="-1.00" arrivalSpeed="-1.00" duration="3518.00" routeLength="7.67" waitingTime="3515.00" waitingCount="1" stopTime="0.00" timeLoss="3516.63" rerouteNo="0" devices="tripinfo_f_0_0.6" vType="type1" speedFactor="1.03" vaporized="end"/>
    <tripinfo id="f_0_1.6" depart="82.00" departLane="np16_nt1_0" departPos="33.33" departSpeed="0.00" departDelay="0.18" arrival="-1.00" arrivalLane="" arrivalPos="-1.00" arrivalSpeed="-1.00" duration="3518.00" routeLength="195.97" waitingTime="3495.00" waitingCount="2" stopTime="0.00" timeLoss="3507.46" rerouteNo="0" devices="tripinfo_f_0_1.6" vType="type1" speedFactor="1.03" vaporized="end"/>
    <tripinfo id="f_0_0.7" depart="96.00" departLane="np13_nt13_0" departPos="0.00" departSpeed="0.00" departDelay="0.55" arrival="-1.00" arrivalLane="" arrivalPos="-1.00" arrivalSpeed="-1.00" duration="3504.00" routeLength="14.29" waitingTime="3498.00" waitingCount="1" stopTime="0.00" timeLoss="3502.25" rerouteNo="0" devices="tripinfo_f_0_0.7" vType="type1" speedFactor="0.95" vaporized="end"/>
    <tripinfo id="f_0_1.7" depart="96.00" departLane="np16_nt1_0" departPos="6.21" departSpeed="0.00" departDelay="0.55" arrival="-1.00" arrivalLane="" arrivalPos="-1.00" arrivalSpeed="-1.00" duration="3504.00" routeLength="215.59" waitingTime="3480.00" waitingCount="2" stopTime="0.00" timeLoss="3492.57" rerouteNo="0" devices="tripinfo_f_0_1.7" vType="type1" speedFactor="1.03" vaporized="end"/>
    <tripinfo id="f_0_0.8" depart="110.00" departLane="np13_nt13_0" departPos="0.00" departSpeed="0.00" departDelay="0.91" arrival="-1.00" arrivalLane="" arrivalPos="-1.00" arrivalSpeed="-1.00" duration="3490.00" routeLength="6.79" waitingTime="3486.00" waitingCount="1" stopTime="0.00" timeLoss="3488.66" rerouteNo="0" devices="tripinfo_f_0_0.8" vType="type1" speedFactor="1.01" vaporized="end"/>
    <tripinfo id="f_0_1.8" depart="110.00" departLane="np16_nt1_0" departPos="38.04" departSpeed="0.00" departDelay="0.91" arrival="-1.00" arrivalLane="" arrivalPos="-1.00" arrivalSpeed="-1.00" duration="3490.00" routeLength="176.25" waitingTime="3468.00" waitingCount="2" stopTime="0.00" timeLoss="3481.31" rerouteNo="0" devices="tripinfo_f_0_1.8" vType="type1" speedFactor="1.15" vaporized="end"/>
    <tripinfo id="f_0_1.9" depart="123.00" departLane="np16_nt1_0" departPos="50.23" departSpeed="0.00" departDelay="0.28" arrival="-1.00" arrivalLane="" arrivalPos="-1.00" arrivalSpeed="-1.00" duration="3477.00" routeLength="156.57" waitingTime="3453.00" waitingCount="2" stopTime="0.00" timeLoss="3468.38" rerouteNo="0" devices="tripinfo_f_0_1.9" vType="type1" speedFactor="1.03" vaporized="end"/>
    <tripinfo id="f_0_1.10" depart="137.00" departLane="np16_nt1_0" departPos="22.97" departSpeed="0.00" departDelay="0.64" arrival="-1.00" arrivalLane="" arrivalPos="-1.00" arrivalSpeed="-1.00" duration="3463.00" routeLength="176.32" waitingTime="3439.00" waitingCount="2" stopTime="0.00" timeLoss="3453.97" rerouteNo="0" devices="tripinfo_f_0_1.10" vType="type1" speedFactor="1.10" vaporized="end"/>
    <tripinfo id="f_0_2.17" depart="140.00" departLane="np2_nt2_0" departPos="31.30" departSpeed="0.00" departDelay="0.91" arrival="-1.00" arrivalLane="" arrivalPos="-1.00" arrivalSpeed="-1.00" duration="3460.00" routeLength="622.98" waitingTime="3297.00" waitingCount="13" stopTime="0.00" timeLoss="3401.39" rerouteNo="0" devices="tripinfo_f_0_2.17" vType="type1" speedFactor="0.87" vaporized="end"/>
    <tripinfo id="f_0_2.18" depart="148.00" departLane="np2_nt2_0" departPos="13.16" departSpeed="0.00" departDelay="0.72" arrival="-1.00" arrivalLane="" arrivalPos="-1.00" arrivalSpeed="-1.00" duration="3452.00" routeLength="633.62" waitingTime="3285.00" waitingCount="12" stopTime="0.00" timeLoss="3400.05" rerouteNo="0" devices="tripinfo_f_0_2.18" vType="type1" speedFactor="1.00" vaporized="end"/>
    <tripinfo id="f_0_1.11" depart="150.00" departLane="np16_nt1_0" departPos="16.74" departSpeed="0.00" departDelay="0.00" arrival="-1.00" arrivalLane="" arrivalPos="-1.00" arrivalSpeed="-1.00" duration="3450.00" routeLength="175.05" waitingTime="3426.00" waitingCount="2" stopTime="0.00" timeLoss="3439.90" rerouteNo="0" devices="tripinfo_f_0_1.11" vType="type1" speedFactor="0.96" vaporized="end"/>
    <tripinfo id="f_0_2.19" depart="156.00" departLane="np2_nt2_0" departPos="40.47" departSpeed="0.00" departDelay="0.54" arrival="-1.00" arrivalLane="" arrivalPos="-1.00" arrivalSpeed="-1.00" duration="3444.00" routeLength="598.80" waitingTime="3278.00" waitingCount="12" stopTime="0.00" timeLoss="3396.82" rerouteNo="0" devices="tripinfo_f_0_2.19" vType="type1" speedFactor="1.04" vaporized="end"/>
    <tripinfo id="f_0_1.12" depart="164.00" departLane="np16_nt1_0" departPos="61.05" departSpeed="0.00" departDelay="0.37" arrival="-1.00" arrivalLane="" arrivalPos="-1.00" arrivalSpeed="-1.00" duration="3436.00" routeLength="123.23" waitingTime="3414.00" waitingCount="2" stopTime="0.00" timeLoss="3429.58" rerouteNo="0" devices="tripinfo_f_0_1.12" vType="type1" speedFactor="1.14" vaporized="end"/>
    <tripinfo id="f_0_2.20" depart="164.00" departLane="np2_nt2_0" departPos="20.82" departSpeed="0.00" departDelay="0.36" arrival="-1.00" arrivalLane="" arrivalPos="-1.00" arrivalSpeed="-1.00" duration="3436.00" routeLength="610.95" waitingTime="3267.00" waitingCount="12" stopTime="0.00" timeLoss="3393.48" rerouteNo="0" devices="tripinfo_f_0_2.20" vType="type1" speedFactor="1.18" vaporized="end"/>
    <tripinfo id="f_0_2.21" depart="172.00" departLane="np2_nt2_0" departPos="63.73" departSpeed="0.00" departDelay="0.18" arrival="-1.00" arrivalLane="" arrivalPos="-1.00" arrivalSpeed="-1.00" duration="3428.00" routeLength="560.55" waitingTime="3255.00" waitingCount="12" stopTime="0.00" timeLoss="3380.97" rerouteNo="0" devices="tripinfo_f_0_2.21" vType="type1" speedFactor="0.96" vaporized="end"/>
    <tripinfo id="f_0_1.13" depart="178.00" departLane="np16_nt1_0" departPos="8.15" departSpeed="0.00" departDelay="0.73" arrival="-1.00" arrivalLane="" arrivalPos="-1.00" arrivalSpeed="-1.00" duration="3422.00" routeLength="168.63" waitingTime="3396.00" waitingCount="2" stopTime="0.00" timeLoss="3411.98" rerouteNo="0" devices="tripinfo_f_0_1.13" vType="type1" speedFactor="0.93" vaporized="end"/>
    <tripinfo id="f_0_2.22" depart="180.00" departLane="np2_nt2_0" departPos="12.78" departSpeed="0.00" departDelay="0.00" arrival="-1.00" arrivalLane="" arrivalPos="-1.00" arrivalSpeed="-1.00" duration="3420.00" routeLength="603.99" waitingTime="3236.00" waitingCount="11" stopTime="0.00" timeLoss="3369.23" rerouteNo="0" devices="tripinfo_f_0_2.22" vType="type1" speedFactor="0.98" vaporized="end"/>
    <tripinfo id="f_0_2.23" depart="189.00" departLane="np2_nt2_0" departPos="9.59" departSpeed="0.00" departDelay="0.81" arrival="-1.00" arrivalLane="" arrivalPos="-1.00" arrivalSpeed="-1.00" duration="3411.00" routeLength="599.68" waitingTime="3227.00" waitingCount="12" stopTime="0.00" timeLoss="3366.57" rerouteNo="0" devices="tripinfo_f_0_2.23" vType="type1" speedFactor="1.11" vaporized="end"/>
    <tripinfo id="f_0_1.14" depart="191.00" departLane="np16_nt1_0" departPos="17.18" departSpeed="0.00" departDelay="0.10" arrival="-1.00" arrivalLane="" arrivalPos="-1.00" arrivalSpeed="-1.00" duration="3409.00" routeLength="152.10" waitingTime="3386.00" waitingCount="2" stopTime="0.00" timeLoss="3399.93" rerouteNo="0" devices="tripinfo_f_0_1.14" vType="type1" speedFactor="0.94" vaporized="end"/>
    <tripinfo id="f_0_2.24" depart="197.00" departLane="np2_nt2_0" departPos="15.31" departSpeed="0.00" departDelay="0.63" arrival="-1.00" arrivalLane="" arrivalPos="-1.00" arrivalSpeed="-1.00" duration="3403.00" routeLength="586.46" waitingTime="3227.00" waitingCount="11" stopTime="0.00" timeLoss="3355.88" rerouteNo="0" devices="tripinfo_f_0_2.24" vType="type1" speedFactor="1.02" vaporized="end"/>
    <tripinfo id="f_0_1.15" depart="205.00" departLane="np16_nt1_0" departPos="66.98" departSpeed="0.00" departDelay="0.46" arrival="-1.00" arrivalLane="" arrivalPos="-1.00" arrivalSpeed="-1.00" duration="3395.00" routeLength="94.80" waitingTime="3375.00" waitingCount="2" stopTime="0.00" timeLoss="3389.22" rerouteNo="0" devices="tripinfo_f_0_1.15" vType="type1" speedFactor="0.99" vaporized="end"/>
    <tripinfo id="f_0_2.25" depart="205.00" departLane="np2_nt2_0" departPos="32.39" departSpeed="0.00" departDelay="0.45" arrival="-1.00" arrivalLane="" arrivalPos="-1.00" arrivalSpeed="-1.00" duration="3395.00" routeLength="561.88" waitingTime="3220.00" waitingCount="11" stopTime="0.00" timeLoss="3354.68" rerouteNo="0" devices="tripinfo_f_0_2.25" vType="type1" speedFactor="1.13" vaporized="end"/>
    <tripinfo id="f_0_2.26" depart="213.00" departLane="np2_nt2_0" departPos="38.67" departSpeed="0.00" departDelay="0.27" arrival="-1.00" arrivalLane="" arrivalPos="-1.00" arrivalSpeed="-1.00" duration="3387.00" routeLength="548.10" waitingTime="3219.00" waitingCount="13" stopTime="0.00" timeLoss="3342.85" rerouteNo="0" devices="tripinfo_f_0_2.26" vType="type1" speedFactor="0.99" vaporized="end"/>
    <tripinfo id="f_0_1.16" depart="219.00" departLane="np16_nt1_0" departPos="16.68" departSpeed="0.00" departDelay="0.82" arrival="-1.00" arrivalLane="" arrivalPos="-1.00" arrivalSpeed="-1.00" duration="3381.00" routeLength="137.60" waitingTime="3357.00" waitingCount="2" stopTime="0.00" timeLoss="3371.43" rerouteNo="0" devices="tripinfo_f_0_1.16" vType="type1" speedFactor="0.80" vaporized="end"/>
    <tripinfo id="f_0_2.27" depart="221.00" departLane="np2_nt2_0" departPos="9.88" departSpeed="0.00" departDelay="0.09" arrival="-1.00" arrivalLane="" arrivalPos="-1.00" arrivalSpeed="-1.00" duration="3379.00" routeLength="546.88" waitingTime="3209.00" waitingCount="13" stopTime="0.00" timeLoss="3339.89" rerouteNo="0" devices="tripinfo_f_0_2.27" vType="type1" speedFactor="1.13" vaporized="end"/>
    <tripinfo id="f_0_2.28" depart="230.00" departLane="np2_nt2_0" departPos="48.86" departSpeed="0.00" departDelay="0.90" arrival="-1.00" arrivalLane="" arrivalPos="-1.00" arrivalSpeed="-1.00" duration="3370.00" routeLength="500.40" waitingTime="3205.00" waitingCount="12" stopTime="0.00" timeLoss="3335.58" rerouteNo="0" devices="tripinfo_f_0_2.28" vType="type1" speedFactor="1.17" vaporized="end"/>
    <tripinfo id="f_0_1.17" depart="232.00" departLane="np16_nt1_0" departPos="38.68" departSpeed="0.00" departDelay="0.19" arrival="-1.00" arrivalLane="" arrivalPos="-1.00" arrivalSpeed="-1.00" duration="3368.00" routeLength="108.11" waitingTime="3347.00" waitingCount="2" stopTime="0.00" timeLoss="3361.26" rerouteNo="0" devices="tripinfo_f_0_1.17" vType="type1" speedFactor="0.94" vaporized="end"/>
    <tripinfo id="f_0_2.29" depart="238.00" departLane="np2_nt2_0" departPos="60.68" departSpeed="0.00" departDelay="0.72" arrival="-1.00" arrivalLane="" arrivalPos="-1.00" arrivalSpeed="-1.00" duration="3362.00" routeLength="473.58" waitingTime="3210.00" waitingCount="15" stopTime="0.00" timeLoss="3327.99" rerouteNo="0" devices="tripinfo_f_0_2.29" vType="type1" speedFactor="1.09" vaporized="end"/>
    <tripinfo id="f_0_1.18" depart="246.00" departLane="np16_nt1_0" departPos="46.87" departSpeed="0.00" departDelay="0.55" arrival="-1.00" arrivalLane="" arrivalPos="-1.00" arrivalSpeed="-1.00" duration="3354.00" routeLength="92.42" waitingTime="3333.00" waitingCount="2" stopTime="0.00" timeLoss="3348.29" rerouteNo="0" devices="tripinfo_f_0_1.18" vType="type1" speedFactor="0.98" vaporized="end"/>
    <tripinfo id="f_0_2.30" depart="246.00" departLane="np2_nt2_0" departPos="33.21" departSpeed="0.00" departDelay="0.54" arrival="-1.00" arrivalLane="" arrivalPos="-1.00" arrivalSpeed="-1.00" duration="3354.00" routeLength="486.05" waitingTime="3257.00" waitingCount="10" stopTime="0.00" timeLoss="3317.93" rerouteNo="0" devices="tripinfo_f_0_2.30" vType="type1" speedFactor="1.07" vaporized="end"/>
    <tripinfo id="f_0_2.31" depart="254.00" departLane="np2_nt2_0" departPos="4.16" departSpeed="0.00" departDelay="0.36" arrival="-1.00" arrivalLane="" arrivalPos="-1.00" arrivalSpeed="-1.00" duration="3346.00" routeLength="507.58" waitingTime="3236.00" waitingCount="10" stopTime="0.00" timeLoss="3294.75" rerouteNo="0" devices="tripinfo_f_0_2.31" vType="type1" speedFactor="0.79" vaporized="end"/>
    <tripinfo id="f_0_1.19" depart="260.00" departLane="np16_nt1_0" departPos="23.32" departSpeed="0.00" departDelay="0.92" arrival="-1.00" arrivalLane="" arrivalPos="-1.00" arrivalSpeed="-1.00" duration="3340.00" routeLength="108.46" waitingTime="3317.00" waitingCount="2" stopTime="0.00" timeLoss="3333.89" rerouteNo="0" devices="tripinfo_f_0_1.19" vType="type1" speedFactor="1.06" vaporized="end"/>
    <tripinfo id="f_0_2.32" depart="262.00" departLane="np2_nt2_0" departPos="46.61" departSpeed="0.00" departDelay="0.18" arrival="-1.00" arrivalLane="" arrivalPos="-1.00" arrivalSpeed="-1.00" duration="3338.00" routeLength="456.91" waitingTime="3230.00" waitingCount="10" stopTime="0.00" timeLoss="3308.56" rerouteNo="0" devices="tripinfo_f_0_2.32" vType="type1" speedFactor="1.23" vaporized="end"/>