<?xml version="1.0" encoding="UTF-8"?>

<!-- generated on 2023-08-30 18:41:38 by Eclipse SUMO libsumo Version 1.18.0
<configuration xmlns:xsi="http://www.w3.org/2001/XMLSchema-instance" xsi:noNamespaceSchemaLocation="http://sumo.dlr.de/xsd/libsumoConfiguration.xsd">

    <input>
        <net-file value="/home/stefan/RESCO/./environments/arterial4x4/arterial4x4.net.xml"/>
        <route-files value="/home/stefan/RESCO/./environments/arterial4x4/arterial4x4_42.rou.xml"/>
    </input>

    <output>
        <tripinfo-output value="/home/stefan/results/RAINBOW-tr0-arterial4x4-0-drq_norm-wait_norm/tripinfo_42.xml"/>
        <tripinfo-output.write-unfinished value="true"/>
    </output>

    <processing>
        <time-to-teleport value="-1"/>
    </processing>

    <report>
        <no-warnings value="True"/>
        <no-step-log value="True"/>
    </report>

    <random_number>
        <random value="true"/>
    </random_number>

</configuration>
-->

<tripinfos xmlns:xsi="http://www.w3.org/2001/XMLSchema-instance" xsi:noNamespaceSchemaLocation="http://sumo.dlr.de/xsd/tripinfo_file.xsd">
    <tripinfo id="f_0_0.0" depart="0.00" departLane="np13_nt13_0" departPos="22.84" departSpeed="0.00" departDelay="0.00" arrival="163.00" arrivalLane="nt4_np5_0" arrivalPos="75.00" arrivalSpeed="17.97" duration="163.00" routeLength="1325.05" waitingTime="34.00" waitingCount="4" stopTime="0.00" timeLoss="63.40" rerouteNo="0" devices="tripinfo_f_0_0.0" vType="type1" speedFactor="0.92" vaporized=""/>
    <tripinfo id="f_0_3.0" depart="0.00" departLane="np3_nt3_0" departPos="50.83" departSpeed="0.00" departDelay="0.00" arrival="176.00" arrivalLane="nt14_np11_0" arrivalPos="75.00" arrivalSpeed="11.05" duration="176.00" routeLength="900.26" waitingTime="92.00" waitingCount="2" stopTime="0.00" timeLoss="111.45" rerouteNo="0" devices="tripinfo_f_0_3.0" vType="type1" speedFactor="1.17" vaporized=""/>
    <tripinfo id="f_0_2.0" depart="0.00" departLane="np2_nt2_0" departPos="35.19" departSpeed="0.00" departDelay="0.00" arrival="193.00" arrivalLane="nt15_np10_0" arrivalPos="75.00" arrivalSpeed="9.30" duration="193.00" routeLength="915.89" waitingTime="77.00" waitingCount="3" stopTime="0.00" timeLoss="103.72" rerouteNo="0" devices="tripinfo_f_0_2.0" vType="type1" speedFactor="0.86" vaporized=""/>
    <tripinfo id="f_0_3.1" depart="9.00" departLane="np3_nt3_0" departPos="28.90" departSpeed="0.00" departDelay="0.82" arrival="199.00" arrivalLane="nt14_np11_0" arrivalPos="75.00" arrivalSpeed="9.07" duration="190.00" routeLength="922.19" waitingTime="89.00" waitingCount="4" stopTime="0.00" timeLoss="108.65" rerouteNo="0" devices="tripinfo_f_0_3.1" vType="type1" speedFactor="0.95" vaporized=""/>
    <tripinfo id="f_0_3.2" depart="17.00" departLane="np3_nt3_0" departPos="50.72" departSpeed="0.00" departDelay="0.64" arrival="206.00" arrivalLane="nt14_np11_0" arrivalPos="75.00" arrivalSpeed="8.32" duration="189.00" routeLength="900.37" waitingTime="78.00" waitingCount="3" stopTime="0.00" timeLoss="100.39" rerouteNo="0" devices="tripinfo_f_0_3.2" vType="type1" speedFactor="0.86" vaporized=""/>
    <tripinfo id="f_0_0.1" depart="14.00" departLane="np13_nt13_0" departPos="49.71" departSpeed="0.00" departDelay="0.36" arrival="208.00" arrivalLane="nt4_np5_0" arrivalPos="75.00" arrivalSpeed="22.70" duration="194.00" routeLength="1298.18" waitingTime="76.00" waitingCount="4" stopTime="0.00" timeLoss="114.08" rerouteNo="0" devices="tripinfo_f_0_0.1" vType="type1" speedFactor="1.14" vaporized=""/>
    <tripinfo id="f_0_3.3" depart="25.00" departLane="np3_nt3_0" departPos="1.69" departSpeed="0.00" departDelay="0.45" arrival="217.00" arrivalLane="nt14_np11_0" arrivalPos="75.00" arrivalSpeed="10.77" duration="192.00" routeLength="949.40" waitingTime="82.00" waitingCount="5" stopTime="0.00" timeLoss="116.30" rerouteNo="0" devices="tripinfo_f_0_3.3" vType="type1" speedFactor="1.05" vaporized=""/>
    <tripinfo id="f_0_0.2" depart="28.00" departLane="np13_nt13_0" departPos="33.15" departSpeed="0.00" departDelay="0.73" arrival="239.00" arrivalLane="nt4_np5_0" arrivalPos="75.00" arrivalSpeed="18.14" duration="211.00" routeLength="1314.74" waitingTime="76.00" waitingCount="6" stopTime="0.00" timeLoss="110.71" rerouteNo="0" devices="tripinfo_f_0_0.2" vType="type1" speedFactor="0.91" vaporized=""/>
    <tripinfo id="f_0_0.3" depart="41.00" departLane="np13_nt13_0" departPos="48.53" departSpeed="0.00" departDelay="0.09" arrival="248.00" arrivalLane="nt4_np5_0" arrivalPos="75.00" arrivalSpeed="23.54" duration="207.00" routeLength="1299.36" waitingTime="70.00" waitingCount="5" stopTime="0.00" timeLoss="129.39" rerouteNo="0" devices="tripinfo_f_0_0.3" vType="type1" speedFactor="1.18" vaporized=""/>
    <tripinfo id="f_0_0.4" depart="55.00" departLane="np13_nt13_0" departPos="29.55" departSpeed="0.00" departDelay="0.46" arrival="267.00" arrivalLane="nt4_np5_0" arrivalPos="75.00" arrivalSpeed="17.68" duration="212.00" routeLength="1318.34" waitingTime="87.00" waitingCount="4" stopTime="0.00" timeLoss="118.14" rerouteNo="0" devices="tripinfo_f_0_0.4" vType="type1" speedFactor="0.98" vaporized=""/>
    <tripinfo id="f_0_0.5" depart="69.00" departLane="np13_nt13_0" departPos="1.30" departSpeed="0.00" departDelay="0.82" arrival="275.00" arrivalLane="nt4_np5_0" arrivalPos="75.00" arrivalSpeed="14.82" duration="206.00" routeLength="1346.59" waitingTime="59.00" waitingCount="6" stopTime="0.00" timeLoss="97.21" rerouteNo="0" devices="tripinfo_f_0_0.5" vType="type1" speedFactor="0.86" vaporized=""/>
    <tripinfo id="f_0_2.1" depart="9.00" departLane="np2_nt2_0" departPos="13.27" departSpeed="0.00" departDelay="0.82" arrival="288.00" arrivalLane="nt15_np10_0" arrivalPos="75.00" arrivalSpeed="8.75" duration="279.00" routeLength="937.81" waitingTime="159.00" waitingCount="7" stopTime="0.00" timeLoss="196.03" rerouteNo="0" devices="tripinfo_f_0_2.1" vType="type1" speedFactor="0.95" vaporized=""/>
    <tripinfo id="f_0_2.2" depart="17.00" departLane="np2_nt2_0" departPos="3.96" departSpeed="0.00" departDelay="0.64" arrival="290.00" arrivalLane="nt15_np10_0" arrivalPos="75.00" arrivalSpeed="11.08" duration="273.00" routeLength="947.12" waitingTime="147.00" waitingCount="8" stopTime="0.00" timeLoss="198.28" rerouteNo="0" devices="tripinfo_f_0_2.2" vType="type1" speedFactor="1.07" vaporized=""/>
    <tripinfo id="f_0_2.3" depart="25.00" departLane="np2_nt2_0" departPos="55.08" departSpeed="0.00" departDelay="0.45" arrival="292.00" arrivalLane="nt15_np10_0" arrivalPos="75.00" arrivalSpeed="10.67" duration="267.00" routeLength="896.00" waitingTime="140.00" waitingCount="8" stopTime="0.00" timeLoss="195.07" rerouteNo="0" devices="tripinfo_f_0_2.3" vType="type1" speedFactor="1.04" vaporized=""/>
    <tripinfo id="f_0_0.6" depart="82.00" departLane="np13_nt13_0" departPos="46.16" departSpeed="0.00" departDelay="0.18" arrival="293.00" arrivalLane="nt4_np5_0" arrivalPos="75.00" arrivalSpeed="17.88" duration="211.00" routeLength="1301.73" waitingTime="68.00" waitingCount="5" stopTime="0.00" timeLoss="121.16" rerouteNo="0" devices="tripinfo_f_0_0.6" vType="type1" speedFactor="1.02" vaporized=""/>
    <tripinfo id="f_0_2.4" depart="33.00" departLane="np2_nt2_0" departPos="35.07" departSpeed="0.00" departDelay="0.27" arrival="295.00" arrivalLane="nt15_np10_0" arrivalPos="75.00" arrivalSpeed="10.41" duration="262.00" routeLength="916.01" waitingTime="136.00" waitingCount="5" stopTime="0.00" timeLoss="181.20" rerouteNo="0" devices="tripinfo_f_0_2.4" vType="type1" speedFactor="0.96" vaporized=""/>
    <tripinfo id="f_0_0.7" depart="96.00" departLane="np13_nt13_0" departPos="19.37" departSpeed="0.00" departDelay="0.55" arrival="302.00" arrivalLane="nt4_np5_0" arrivalPos="75.00" arrivalSpeed="16.91" duration="206.00" routeLength="1328.52" waitingTime="60.00" waitingCount="7" stopTime="0.00" timeLoss="110.68" rerouteNo="0" devices="tripinfo_f_0_0.7" vType="type1" speedFactor="0.96" vaporized=""/>
    <tripinfo id="f_0_0.8" depart="110.00" departLane="np13_nt13_0" departPos="9.59" departSpeed="0.00" departDelay="0.91" arrival="307.00" arrivalLane="nt4_np5_0" arrivalPos="75.00" arrivalSpeed="21.33" duration="197.00" routeLength="1338.30" waitingTime="66.00" waitingCount="7" stopTime="0.00" timeLoss="116.76" rerouteNo="0" devices="tripinfo_f_0_0.8" vType="type1" speedFactor="1.16" vaporized=""/>
    <tripinfo id="f_0_1.0" depart="0.00" departLane="np16_nt1_0" departPos="16.53" departSpeed="0.00" departDelay="0.00" arrival="308.00" arrivalLane="nt16_np8_0" arrivalPos="75.00" arrivalSpeed="20.37" duration="308.00" routeLength="1331.35" waitingTime="159.00" waitingCount="8" stopTime="0.00" timeLoss="217.30" rerouteNo="0" devices="tripinfo_f_0_1.0" vType="type1" speedFactor="1.02" vaporized=""/>
    <tripinfo id="f_0_0.9" depart="123.00" departLane="np13_nt13_0" departPos="64.22" departSpeed="0.00" departDelay="0.28" arrival="311.00" arrivalLane="nt4_np5_0" arrivalPos="75.00" arrivalSpeed="20.06" duration="188.00" routeLength="1283.67" waitingTime="63.00" waitingCount="6" stopTime="0.00" timeLoss="101.93" rerouteNo="0" devices="tripinfo_f_0_0.9" vType="type1" speedFactor="1.04" vaporized=""/>
    <tripinfo id="f_0_3.4" depart="33.00" departLane="np3_nt3_0" departPos="0.43" departSpeed="0.00" departDelay="0.27" arrival="317.00" arrivalLane="nt14_np11_0" arrivalPos="75.00" arrivalSpeed="11.21" duration="284.00" routeLength="950.66" waitingTime="185.00" waitingCount="3" stopTime="0.00" timeLoss="207.79" rerouteNo="0" devices="tripinfo_f_0_3.4" vType="type1" speedFactor="1.05" vaporized=""/>
    <tripinfo id="f_0_3.5" depart="41.00" departLane="np3_nt3_0" departPos="50.28" departSpeed="0.00" departDelay="0.09" arrival="320.00" arrivalLane="nt14_np11_0" arrivalPos="75.00" arrivalSpeed="9.08" duration="279.00" routeLength="900.81" waitingTime="180.00" waitingCount="3" stopTime="0.00" timeLoss="202.36" rerouteNo="0" devices="tripinfo_f_0_3.5" vType="type1" speedFactor="0.99" vaporized=""/>
    <tripinfo id="f_0_2.5" depart="41.00" departLane="np2_nt2_0" departPos="1.52" departSpeed="0.00" departDelay="0.09" arrival="330.00" arrivalLane="nt15_np10_0" arrivalPos="75.00" arrivalSpeed="8.91" duration="289.00" routeLength="949.56" waitingTime="127.00" waitingCount="9" stopTime="0.00" timeLoss="191.81" rerouteNo="0" devices="tripinfo_f_0_2.5" vType="type1" speedFactor="0.83" vaporized=""/>
    <tripinfo id="f_0_1.1" depart="14.00" departLane="np16_nt1_0" departPos="31.29" departSpeed="0.00" departDelay="0.36" arrival="338.00" arrivalLane="nt16_np8_0" arrivalPos="75.00" arrivalSpeed="22.44" duration="324.00" routeLength="1316.59" waitingTime="169.00" waitingCount="11" stopTime="0.00" timeLoss="245.82" rerouteNo="0" devices="tripinfo_f_0_1.1" vType="type1" speedFactor="1.17" vaporized=""/>
    <tripinfo id="f_0_2.6" depart="50.00" departLane="np2_nt2_0" departPos="27.27" departSpeed="0.00" departDelay="0.91" arrival="363.00" arrivalLane="nt15_np10_0" arrivalPos="75.00" arrivalSpeed="8.63" duration="313.00" routeLength="923.81" waitingTime="149.00" waitingCount="9" stopTime="0.00" timeLoss="229.01" rerouteNo="0" devices="tripinfo_f_0_2.6" vType="type1" speedFactor="0.93" vaporized=""/>
    <tripinfo id="f_0_3.6" depart="50.00" departLane="np3_nt3_0" departPos="45.65" departSpeed="0.00" departDelay="0.91" arrival="369.00" arrivalLane="nt14_np11_0" arrivalPos="75.00" arrivalSpeed="8.80" duration="319.00" routeLength="905.44" waitingTime="197.00" waitingCount="6" stopTime="0.00" timeLoss="229.59" rerouteNo="0" devices="tripinfo_f_0_3.6" vType="type1" speedFactor="0.85" vaporized=""/>
    <tripinfo id="f_0_3.7" depart="58.00" departLane="np3_nt3_0" departPos="64.01" departSpeed="0.00" departDelay="0.73" arrival="371.00" arrivalLane="nt14_np11_0" arrivalPos="75.00" arrivalSpeed="10.20" duration="313.00" routeLength="887.08" waitingTime="191.00" waitingCount="5" stopTime="0.00" timeLoss="237.63" rerouteNo="0" devices="tripinfo_f_0_3.7" vType="type1" speedFactor="0.99" vaporized=""/>
    <tripinfo id="f_0_1.2" depart="28.00" departLane="np16_nt1_0" departPos="2.36" departSpeed="0.00" departDelay="0.73" arrival="384.00" arrivalLane="nt16_np8_0" arrivalPos="75.00" arrivalSpeed="16.67" duration="356.00" routeLength="1345.52" waitingTime="165.00" waitingCount="12" stopTime="0.00" timeLoss="257.89" rerouteNo="0" devices="tripinfo_f_0_1.2" vType="type1" speedFactor="0.96" vaporized=""/>
    <tripinfo id="f_0_2.7" depart="58.00" departLane="np2_nt2_0" departPos="24.25" departSpeed="0.00" departDelay="0.73" arrival="398.00" arrivalLane="nt15_np10_0" arrivalPos="75.00" arrivalSpeed="8.53" duration="340.00" routeLength="926.83" waitingTime="203.00" waitingCount="8" stopTime="0.00" timeLoss="260.15" rerouteNo="0" devices="tripinfo_f_0_2.7" vType="type1" speedFactor="0.97" vaporized=""/>
    <tripinfo id="f_0_3.8" depart="66.00" departLane="np3_nt3_0" departPos="63.13" departSpeed="0.00" departDelay="0.54" arrival="402.00" arrivalLane="nt14_np11_0" arrivalPos="75.00" arrivalSpeed="8.86" duration="336.00" routeLength="887.96" waitingTime="218.00" waitingCount="9" stopTime="0.00" timeLoss="264.12" rerouteNo="0" devices="tripinfo_f_0_3.8" vType="type1" speedFactor="1.03" vaporized=""/>
    <tripinfo id="f_0_1.3" depart="41.00" departLane="np16_nt1_0" departPos="3.93" departSpeed="0.00" departDelay="0.09" arrival="433.00" arrivalLane="nt16_np8_0" arrivalPos="75.00" arrivalSpeed="18.86" duration="392.00" routeLength="1343.95" waitingTime="206.00" waitingCount="15" stopTime="0.00" timeLoss="305.16" rerouteNo="0" devices="tripinfo_f_0_1.3" vType="type1" speedFactor="1.07" vaporized=""/>
    <tripinfo id="f_0_0.10" depart="137.00" departLane="np13_nt13_0" departPos="3.25" departSpeed="0.00" departDelay="0.64" arrival="446.00" arrivalLane="nt4_np5_0" arrivalPos="75.00" arrivalSpeed="20.81" duration="309.00" routeLength="1344.64" waitingTime="198.00" waitingCount="5" stopTime="0.00" timeLoss="227.21" rerouteNo="0" devices="tripinfo_f_0_0.10" vType="type1" speedFactor="1.14" vaporized=""/>
    <tripinfo id="f_0_2.8" depart="66.00" departLane="np2_nt2_0" departPos="13.84" departSpeed="0.00" departDelay="0.54" arrival="456.00" arrivalLane="nt15_np10_0" arrivalPos="75.00" arrivalSpeed="11.88" duration="390.00" routeLength="937.24" waitingTime="254.00" waitingCount="8" stopTime="0.00" timeLoss="324.28" rerouteNo="0" devices="tripinfo_f_0_2.8" vType="type1" speedFactor="1.20" vaporized=""/>
    <tripinfo id="f_0_1.4" depart="55.00" departLane="np16_nt1_0" departPos="62.74" departSpeed="0.00" departDelay="0.46" arrival="478.00" arrivalLane="nt16_np8_0" arrivalPos="75.00" arrivalSpeed="20.16" duration="423.00" routeLength="1285.14" waitingTime="263.00" waitingCount="13" stopTime="0.00" timeLoss="338.01" rerouteNo="0" devices="tripinfo_f_0_1.4" vType="type1" speedFactor="1.06" vaporized=""/>
    <tripinfo id="f_0_0.11" depart="150.00" departLane="np13_nt13_0" departPos="17.86" departSpeed="0.00" departDelay="0.00" arrival="484.00" arrivalLane="nt4_np5_0" arrivalPos="75.00" arrivalSpeed="18.35" duration="334.00" routeLength="1330.03" waitingTime="204.00" waitingCount="7" stopTime="0.00" timeLoss="243.83" rerouteNo="0" devices="tripinfo_f_0_0.11" vType="type1" speedFactor="1.02" vaporized=""/>
    <tripinfo id="f_0_0.12" depart="164.00" departLane="np13_nt13_0" departPos="64.73" departSpeed="0.00" departDelay="0.37" arrival="498.00" arrivalLane="nt4_np5_0" arrivalPos="75.00" arrivalSpeed="21.47" duration="334.00" routeLength="1283.16" waitingTime="204.00" waitingCount="7" stopTime="0.00" timeLoss="254.80" rerouteNo="0" devices="tripinfo_f_0_0.12" vType="type1" speedFactor="1.13" vaporized=""/>
    <tripinfo id="f_0_2.9" depart="74.00" departLane="np2_nt2_0" departPos="23.75" departSpeed="0.00" departDelay="0.36" arrival="517.00" arrivalLane="nt15_np10_0" arrivalPos="75.00" arrivalSpeed="10.72" duration="443.00" routeLength="927.33" waitingTime="304.00" waitingCount="10" stopTime="0.00" timeLoss="366.02" rerouteNo="0" devices="tripinfo_f_0_2.9" vType="type1" speedFactor="1.02" vaporized=""/>
    <tripinfo id="f_0_2.10" depart="82.00" departLane="np2_nt2_0" departPos="44.96" departSpeed="0.00" departDelay="0.18" arrival="519.00" arrivalLane="nt15_np10_0" arrivalPos="75.00" arrivalSpeed="11.56" duration="437.00" routeLength="906.12" waitingTime="303.00" waitingCount="10" stopTime="0.00" timeLoss="368.42" rerouteNo="0" devices="tripinfo_f_0_2.10" vType="type1" speedFactor="1.12" vaporized=""/>
    <tripinfo id="f_0_1.5" depart="69.00" departLane="np16_nt1_0" departPos="22.59" departSpeed="0.00" departDelay="0.82" arrival="532.00" arrivalLane="nt16_np8_0" arrivalPos="75.00" arrivalSpeed="18.85" duration="463.00" routeLength="1325.29" waitingTime="294.00" waitingCount="11" stopTime="0.00" timeLoss="370.31" rerouteNo="0" devices="tripinfo_f_0_1.5" vType="type1" speedFactor="1.00" vaporized=""/>
    <tripinfo id="f_0_3.9" depart="74.00" departLane="np3_nt3_0" departPos="60.54" departSpeed="0.00" departDelay="0.36" arrival="547.00" arrivalLane="nt14_np11_0" arrivalPos="75.00" arrivalSpeed="9.40" duration="473.00" routeLength="890.55" waitingTime="362.00" waitingCount="6" stopTime="0.00" timeLoss="395.32" rerouteNo="0" devices="tripinfo_f_0_3.9" vType="type1" speedFactor="0.96" vaporized=""/>
    <tripinfo id="f_0_1.10" depart="137.00" departLane="np16_nt1_0" departPos="12.17" departSpeed="0.00" departDelay="0.64" arrival="554.00" arrivalLane="nt16_np8_0" arrivalPos="75.00" arrivalSpeed="15.78" duration="417.00" routeLength="1335.71" waitingTime="255.00" waitingCount="13" stopTime="0.00" timeLoss="312.24" rerouteNo="0" devices="tripinfo_f_0_1.10" vType="type1" speedFactor="0.88" vaporized=""/>
    <tripinfo id="f_0_2.11" depart="90.00" departLane="np2_nt2_0" departPos="64.21" departSpeed="0.00" departDelay="0.00" arrival="561.00" arrivalLane="nt15_np10_0" arrivalPos="75.00" arrivalSpeed="10.97" duration="471.00" routeLength="886.87" waitingTime="307.00" waitingCount="14" stopTime="0.00" timeLoss="403.84" rerouteNo="0" devices="tripinfo_f_0_2.11" vType="type1" speedFactor="1.10" vaporized=""/>
    <tripinfo id="f_0_2.12" depart="99.00" departLane="np2_nt2_0" departPos="24.45" departSpeed="0.00" departDelay="0.82" arrival="564.00" arrivalLane="nt15_np10_0" arrivalPos="75.00" arrivalSpeed="11.14" duration="465.00" routeLength="926.63" waitingTime="289.00" waitingCount="13" stopTime="0.00" timeLoss="389.90" rerouteNo="0" devices="tripinfo_f_0_2.12" vType="type1" speedFactor="1.03" vaporized=""/>
    <tripinfo id="f_0_0.13" depart="178.00" departLane="np13_nt13_0" departPos="25.19" departSpeed="0.00" departDelay="0.73" arrival="579.00" arrivalLane="nt4_np5_0" arrivalPos="75.00" arrivalSpeed="17.66" duration="401.00" routeLength="1322.70" waitingTime="243.00" waitingCount="10" stopTime="0.00" timeLoss="298.70" rerouteNo="0" devices="tripinfo_f_0_0.13" vType="type1" speedFactor="0.91" vaporized=""/>
    <tripinfo id="f_0_0.14" depart="191.00" departLane="np13_nt13_0" departPos="2.81" departSpeed="0.00" departDelay="0.10" arrival="581.00" arrivalLane="nt4_np5_0" arrivalPos="75.00" arrivalSpeed="16.37" duration="390.00" routeLength="1345.08" waitingTime="225.00" waitingCount="7" stopTime="0.00" timeLoss="279.91" rerouteNo="0" devices="tripinfo_f_0_0.14" vType="type1" speedFactor="0.85" vaporized=""/>
    <tripinfo id="f_0_1.11" depart="150.00" departLane="np16_nt1_0" departPos="40.66" departSpeed="0.00" departDelay="0.00" arrival="588.00" arrivalLane="nt16_np8_0" arrivalPos="75.00" arrivalSpeed="19.63" duration="438.00" routeLength="1307.22" waitingTime="268.00" waitingCount="14" stopTime="0.00" timeLoss="351.25" rerouteNo="0" devices="tripinfo_f_0_1.11" vType="type1" speedFactor="1.06" vaporized=""/>
    <tripinfo id="f_0_2.13" depart="107.00" departLane="np2_nt2_0" departPos="51.81" departSpeed="0.00" departDelay="0.63" arrival="592.00" arrivalLane="nt15_np10_0" arrivalPos="75.00" arrivalSpeed="9.25" duration="485.00" routeLength="899.27" waitingTime="293.00" waitingCount="17" stopTime="0.00" timeLoss="407.81" rerouteNo="0" devices="tripinfo_f_0_2.13" vType="type1" speedFactor="0.97" vaporized=""/>
    <tripinfo id="f_0_1.12" depart="164.00" departLane="np16_nt1_0" departPos="39.53" departSpeed="0.00" departDelay="0.37" arrival="608.00" arrivalLane="nt16_np8_0" arrivalPos="75.00" arrivalSpeed="14.25" duration="444.00" routeLength="1308.35" waitingTime="249.00" waitingCount="18" stopTime="0.00" timeLoss="333.30" rerouteNo="0" devices="tripinfo_f_0_1.12" vType="type1" speedFactor="0.83" vaporized=""/>
    <tripinfo id="f_0_0.15" depart="205.00" departLane="np13_nt13_0" departPos="17.27" departSpeed="0.00" departDelay="0.46" arrival="617.00" arrivalLane="nt4_np5_0" arrivalPos="75.00" arrivalSpeed="16.27" duration="412.00" routeLength="1330.62" waitingTime="251.00" waitingCount="7" stopTime="0.00" timeLoss="308.14" rerouteNo="0" devices="tripinfo_f_0_0.15" vType="type1" speedFactor="0.89" vaporized=""/>
    <tripinfo id="f_0_0.16" depart="219.00" departLane="np13_nt13_0" departPos="16.59" departSpeed="0.00" departDelay="0.82" arrival="620.00" arrivalLane="nt4_np5_0" arrivalPos="75.00" arrivalSpeed="15.32" duration="401.00" routeLength="1331.30" waitingTime="236.00" waitingCount="8" stopTime="0.00" timeLoss="296.13" rerouteNo="0" devices="tripinfo_f_0_0.16" vType="type1" speedFactor="0.88" vaporized=""/>
    <tripinfo id="f_0_0.17" depart="232.00" departLane="np13_nt13_0" departPos="39.05" departSpeed="0.00" departDelay="0.19" arrival="622.00" arrivalLane="nt4_np5_0" arrivalPos="75.00" arrivalSpeed="17.64" duration="390.00" routeLength="1308.84" waitingTime="216.00" waitingCount="10" stopTime="0.00" timeLoss="287.77" rerouteNo="0" devices="tripinfo_f_0_0.17" vType="type1" speedFactor="0.89" vaporized=""/>
    <tripinfo id="f_0_0.18" depart="246.00" departLane="np13_nt13_0" departPos="36.27" departSpeed="0.00" departDelay="0.55" arrival="630.00" arrivalLane="nt4_np5_0" arrivalPos="75.00" arrivalSpeed="21.31" duration="384.00" routeLength="1311.62" waitingTime="201.00" waitingCount="11" stopTime="0.00" timeLoss="297.95" rerouteNo="0" devices="tripinfo_f_0_0.18" vType="type1" speedFactor="1.07" vaporized=""/>
    <tripinfo id="f_0_2.14" depart="115.00" departLane="np2_nt2_0" departPos="53.34" departSpeed="0.00" departDelay="0.45" arrival="631.00" arrivalLane="nt15_np10_0" arrivalPos="75.00" arrivalSpeed="12.84" duration="516.00" routeLength="897.74" waitingTime="310.00" waitingCount="19" stopTime="0.00" timeLoss="452.35" rerouteNo="0" devices="tripinfo_f_0_2.14" vType="type1" speedFactor="1.19" vaporized=""/>
    <tripinfo id="f_0_1.13" depart="178.00" departLane="np16_nt1_0" departPos="2.95" departSpeed="0.00" departDelay="0.73" arrival="679.00" arrivalLane="nt16_np8_0" arrivalPos="75.00" arrivalSpeed="16.77" duration="501.00" routeLength="1344.93" waitingTime="317.00" waitingCount="15" stopTime="0.00" timeLoss="398.95" rerouteNo="0" devices="tripinfo_f_0_1.13" vType="type1" speedFactor="0.92" vaporized=""/>
    <tripinfo id="f_0_0.19" depart="260.00" departLane="np13_nt13_0" departPos="65.45" departSpeed="0.00" departDelay="0.92" arrival="679.00" arrivalLane="nt4_np5_0" arrivalPos="75.00" arrivalSpeed="19.70" duration="419.00" routeLength="1282.44" waitingTime="236.00" waitingCount="12" stopTime="0.00" timeLoss="327.49" rerouteNo="0" devices="tripinfo_f_0_0.19" vType="type1" speedFactor="0.99" vaporized=""/>
    <tripinfo id="f_0_3.10" depart="82.00" departLane="np3_nt3_0" departPos="46.68" departSpeed="0.00" departDelay="0.18" arrival="683.00" arrivalLane="nt14_np11_0" arrivalPos="75.00" arrivalSpeed="9.68" duration="601.00" routeLength="904.41" waitingTime="480.00" waitingCount="8" stopTime="0.00" timeLoss="520.03" rerouteNo="0" devices="tripinfo_f_0_3.10" vType="type1" speedFactor="0.94" vaporized=""/>
    <tripinfo id="f_0_3.11" depart="90.00" departLane="np3_nt3_0" departPos="36.77" departSpeed="0.00" departDelay="0.00" arrival="685.00" arrivalLane="nt14_np11_0" arrivalPos="75.00" arrivalSpeed="9.91" duration="595.00" routeLength="914.32" waitingTime="467.00" waitingCount="11" stopTime="0.00" timeLoss="527.08" rerouteNo="0" devices="tripinfo_f_0_3.11" vType="type1" speedFactor="1.12" vaporized=""/>
    <tripinfo id="f_0_0.20" depart="273.00" departLane="np13_nt13_0" departPos="12.75" departSpeed="0.00" departDelay="0.28" arrival="688.00" arrivalLane="nt4_np5_0" arrivalPos="75.00" arrivalSpeed="22.38" duration="415.00" routeLength="1335.14" waitingTime="241.00" waitingCount="13" stopTime="0.00" timeLoss="334.78" rerouteNo="0" devices="tripinfo_f_0_0.20" vType="type1" speedFactor="1.15" vaporized=""/>
    <tripinfo id="f_0_3.12" depart="99.00" departLane="np3_nt3_0" departPos="10.01" departSpeed="0.00" departDelay="0.82" arrival="729.00" arrivalLane="nt14_np11_0" arrivalPos="75.00" arrivalSpeed="7.92" duration="630.00" routeLength="941.08" waitingTime="484.00" waitingCount="12" stopTime="0.00" timeLoss="542.27" rerouteNo="0" devices="tripinfo_f_0_3.12" vType="type1" speedFactor="0.90" vaporized=""/>
    <tripinfo id="f_0_3.13" depart="107.00" departLane="np3_nt3_0" departPos="16.97" departSpeed="0.00" departDelay="0.63" arrival="730.00" arrivalLane="nt14_np11_0" arrivalPos="75.00" arrivalSpeed="11.85" duration="623.00" routeLength="934.12" waitingTime="467.00" waitingCount="13" stopTime="0.00" timeLoss="551.19" rerouteNo="0" devices="tripinfo_f_0_3.13" vType="type1" speedFactor="1.09" vaporized=""/>
    <tripinfo id="f_0_3.14" depart="115.00" departLane="np3_nt3_0" departPos="27.44" departSpeed="0.00" departDelay="0.45" arrival="762.00" arrivalLane="nt14_np11_0" arrivalPos="75.00" arrivalSpeed="9.57" duration="647.00" routeLength="923.65" waitingTime="490.00" waitingCount="14" stopTime="0.00" timeLoss="572.61" rerouteNo="0" devices="tripinfo_f_0_3.14" vType="type1" speedFactor="1.04" vaporized=""/>
    <tripinfo id="f_0_3.15" depart="123.00" departLane="np3_nt3_0" departPos="0.26" departSpeed="0.00" departDelay="0.27" arrival="764.00" arrivalLane="nt14_np11_0" arrivalPos="75.00" arrivalSpeed="9.19" duration="641.00" routeLength="950.83" waitingTime="492.00" waitingCount="12" stopTime="0.00" timeLoss="563.13" rerouteNo="0" devices="tripinfo_f_0_3.15" vType="type1" speedFactor="1.03" vaporized=""/>
    <tripinfo id="f_0_2.15" depart="123.00" departLane="np2_nt2_0" departPos="20.91" departSpeed="0.00" departDelay="0.27" arrival="772.00" arrivalLane="nt15_np10_0" arrivalPos="75.00" arrivalSpeed="11.42" duration="649.00" routeLength="930.17" waitingTime="465.00" waitingCount="20" stopTime="0.00" timeLoss="575.90" rerouteNo="0" devices="tripinfo_f_0_2.15" vType="type1" speedFactor="1.06" vaporized=""/>
    <tripinfo id="f_0_2.16" depart="131.00" departLane="np2_nt2_0" departPos="48.49" departSpeed="0.00" departDelay="0.09" arrival="778.00" arrivalLane="nt15_np10_0" arrivalPos="75.00" arrivalSpeed="8.12" duration="647.00" routeLength="902.59" waitingTime="470.00" waitingCount="16" stopTime="0.00" timeLoss="565.77" rerouteNo="0" devices="tripinfo_f_0_2.16" vType="type1" speedFactor="0.94" vaporized=""/>
    <tripinfo id="f_0_1.14" depart="191.00" departLane="np16_nt1_0" departPos="47.93" departSpeed="0.00" departDelay="0.10" arrival="780.00" arrivalLane="nt16_np8_0" arrivalPos="75.00" arrivalSpeed="22.18" duration="589.00" routeLength="1299.95" waitingTime="416.00" waitingCount="15" stopTime="0.00" timeLoss="509.07" rerouteNo="0" devices="tripinfo_f_0_1.14" vType="type1" speedFactor="1.14" vaporized=""/>
    <tripinfo id="f_0_2.28" depart="230.00" departLane="np2_nt2_0" departPos="58.11" departSpeed="0.00" departDelay="0.90" arrival="818.00" arrivalLane="nt15_np10_0" arrivalPos="75.00" arrivalSpeed="9.56" duration="588.00" routeLength="892.97" waitingTime="446.00" waitingCount="12" stopTime="0.00" timeLoss="509.44" rerouteNo="0" devices="tripinfo_f_0_2.28" vType="type1" speedFactor="0.96" vaporized=""/>
    <tripinfo id="f_0_3.16" depart="131.00" departLane="np3_nt3_0" departPos="23.47" departSpeed="0.00" departDelay="0.09" arrival="896.00" arrivalLane="nt14_np11_0" arrivalPos="75.00" arrivalSpeed="10.70" duration="765.00" routeLength="927.62" waitingTime="612.00" waitingCount="11" stopTime="0.00" timeLoss="695.85" rerouteNo="0" devices="tripinfo_f_0_3.16" vType="type1" speedFactor="1.12" vaporized=""/>
    <tripinfo id="f_0_3.17" depart="140.00" departLane="np3_nt3_0" departPos="13.95" departSpeed="0.00" departDelay="0.91" arrival="898.00" arrivalLane="nt14_np11_0" arrivalPos="75.00" arrivalSpeed="9.75" duration="758.00" routeLength="937.14" waitingTime="602.00" waitingCount="13" stopTime="0.00" timeLoss="685.40" rerouteNo="0" devices="tripinfo_f_0_3.17" vType="type1" speedFactor="1.08" vaporized=""/>
    <tripinfo id="f_0_1.15" depart="205.00" departLane="np16_nt1_0" departPos="1.83" departSpeed="0.00" departDelay="0.46" arrival="959.00" arrivalLane="nt16_np8_0" arrivalPos="75.00" arrivalSpeed="13.14" duration="754.00" routeLength="1346.05" waitingTime="562.00" waitingCount="15" stopTime="0.00" timeLoss="631.87" rerouteNo="0" devices="tripinfo_f_0_1.15" vType="type1" speedFactor="0.76" vaporized=""/>
    <tripinfo id="f_0_3.18" depart="148.00" departLane="np3_nt3_0" departPos="3.89" departSpeed="0.00" departDelay="0.72" arrival="971.00" arrivalLane="nt14_np11_0" arrivalPos="75.00" arrivalSpeed="12.15" duration="823.00" routeLength="947.20" waitingTime="655.00" waitingCount="14" stopTime="0.00" timeLoss="751.37" rerouteNo="0" devices="tripinfo_f_0_3.18" vType="type1" speedFactor="1.12" vaporized=""/>
    <tripinfo id="f_0_2.17" depart="140.00" departLane="np2_nt2_0" departPos="48.02" departSpeed="0.00" departDelay="0.91" arrival="986.00" arrivalLane="nt15_np10_0" arrivalPos="75.00" arrivalSpeed="10.62" duration="846.00" routeLength="903.06" waitingTime="667.00" waitingCount="18" stopTime="0.00" timeLoss="778.39" rerouteNo="0" devices="tripinfo_f_0_2.17" vType="type1" speedFactor="1.11" vaporized=""/>