<?xml version="1.0" encoding="UTF-8"?>

<!-- generated on 2023-08-30 18:04:19 by Eclipse SUMO libsumo Version 1.18.0
<configuration xmlns:xsi="http://www.w3.org/2001/XMLSchema-instance" xsi:noNamespaceSchemaLocation="http://sumo.dlr.de/xsd/libsumoConfiguration.xsd">

    <input>
        <net-file value="/home/stefan/RESCO/./environments/arterial4x4/arterial4x4.net.xml"/>
        <route-files value="/home/stefan/RESCO/./environments/arterial4x4/arterial4x4_13.rou.xml"/>
    </input>

    <output>
        <tripinfo-output value="/home/stefan/results/RAINBOW-tr0-arterial4x4-0-drq_norm-wait_norm/tripinfo_13.xml"/>
        <tripinfo-output.write-unfinished value="true"/>
    </output>

    <processing>
        <time-to-teleport value="-1"/>
    </processing>

    <report>
        <no-warnings value="True"/>
        <no-step-log value="True"/>
    </report>

    <random_number>
        <random value="true"/>
    </random_number>

</configuration>
-->

<tripinfos xmlns:xsi="http://www.w3.org/2001/XMLSchema-instance" xsi:noNamespaceSchemaLocation="http://sumo.dlr.de/xsd/tripinfo_file.xsd">
    <tripinfo id="f_0_2.0" depart="0.00" departLane="np2_nt2_0" departPos="58.74" departSpeed="0.00" departDelay="0.00" arrival="112.00" arrivalLane="nt15_np10_0" arrivalPos="75.00" arrivalSpeed="8.97" duration="112.00" routeLength="892.34" waitingTime="22.00" waitingCount="4" stopTime="0.00" timeLoss="39.32" rerouteNo="0" devices="tripinfo_f_0_2.0" vType="type1" speedFactor="1.02" vaporized=""/>
    <tripinfo id="f_0_3.0" depart="0.00" departLane="np3_nt3_0" departPos="51.21" departSpeed="0.00" departDelay="0.00" arrival="142.00" arrivalLane="nt14_np11_0" arrivalPos="75.00" arrivalSpeed="10.79" duration="142.00" routeLength="899.88" waitingTime="42.00" waitingCount="5" stopTime="0.00" timeLoss="69.65" rerouteNo="0" devices="tripinfo_f_0_3.0" vType="type1" speedFactor="1.04" vaporized=""/>
    <tripinfo id="f_0_3.1" depart="9.00" departLane="np3_nt3_0" departPos="20.38" departSpeed="0.00" departDelay="0.82" arrival="144.00" arrivalLane="nt14_np11_0" arrivalPos="75.00" arrivalSpeed="10.78" duration="135.00" routeLength="930.71" waitingTime="26.00" waitingCount="6" stopTime="0.00" timeLoss="60.33" rerouteNo="0" devices="tripinfo_f_0_3.1" vType="type1" speedFactor="1.04" vaporized=""/>
    <tripinfo id="f_0_2.1" depart="9.00" departLane="np2_nt2_0" departPos="40.30" departSpeed="0.00" departDelay="0.82" arrival="150.00" arrivalLane="nt15_np10_0" arrivalPos="75.00" arrivalSpeed="8.99" duration="141.00" routeLength="910.78" waitingTime="36.00" waitingCount="3" stopTime="0.00" timeLoss="61.84" rerouteNo="0" devices="tripinfo_f_0_2.1" vType="type1" speedFactor="0.97" vaporized=""/>
    <tripinfo id="f_0_2.2" depart="17.00" departLane="np2_nt2_0" departPos="35.34" departSpeed="0.00" departDelay="0.64" arrival="162.00" arrivalLane="nt15_np10_0" arrivalPos="75.00" arrivalSpeed="9.77" duration="145.00" routeLength="915.74" waitingTime="37.00" waitingCount="3" stopTime="0.00" timeLoss="63.94" rerouteNo="0" devices="tripinfo_f_0_2.2" vType="type1" speedFactor="0.95" vaporized=""/>
    <tripinfo id="f_0_3.2" depart="17.00" departLane="np3_nt3_0" departPos="46.51" departSpeed="0.00" departDelay="0.64" arrival="162.00" arrivalLane="nt14_np11_0" arrivalPos="75.00" arrivalSpeed="8.98" duration="145.00" routeLength="904.58" waitingTime="40.00" waitingCount="5" stopTime="0.00" timeLoss="71.05" rerouteNo="0" devices="tripinfo_f_0_3.2" vType="type1" speedFactor="1.03" vaporized=""/>
    <tripinfo id="f_0_3.3" depart="25.00" departLane="np3_nt3_0" departPos="17.48" departSpeed="0.00" departDelay="0.45" arrival="165.00" arrivalLane="nt14_np11_0" arrivalPos="75.00" arrivalSpeed="9.64" duration="140.00" routeLength="933.61" waitingTime="25.00" waitingCount="3" stopTime="0.00" timeLoss="52.93" rerouteNo="0" devices="tripinfo_f_0_3.3" vType="type1" speedFactor="0.90" vaporized=""/>
    <tripinfo id="f_0_1.0" depart="0.00" departLane="np16_nt1_0" departPos="39.99" departSpeed="0.00" departDelay="0.00" arrival="178.00" arrivalLane="nt16_np8_0" arrivalPos="75.00" arrivalSpeed="21.33" duration="178.00" routeLength="1307.89" waitingTime="49.00" waitingCount="7" stopTime="0.00" timeLoss="94.40" rerouteNo="0" devices="tripinfo_f_0_1.0" vType="type1" speedFactor="1.10" vaporized=""/>
    <tripinfo id="f_0_2.3" depart="25.00" departLane="np2_nt2_0" departPos="15.99" departSpeed="0.00" departDelay="0.45" arrival="179.00" arrivalLane="nt15_np10_0" arrivalPos="75.00" arrivalSpeed="7.80" duration="154.00" routeLength="935.09" waitingTime="31.00" waitingCount="5" stopTime="0.00" timeLoss="66.68" rerouteNo="0" devices="tripinfo_f_0_2.3" vType="type1" speedFactor="0.91" vaporized=""/>
    <tripinfo id="f_0_0.0" depart="0.00" departLane="np13_nt13_0" departPos="1.83" departSpeed="0.00" departDelay="0.00" arrival="196.00" arrivalLane="nt4_np5_0" arrivalPos="75.00" arrivalSpeed="17.26" duration="196.00" routeLength="1346.06" waitingTime="67.00" waitingCount="4" stopTime="0.00" timeLoss="99.36" rerouteNo="0" devices="tripinfo_f_0_0.0" vType="type1" speedFactor="0.96" vaporized=""/>
    <tripinfo id="f_0_0.1" depart="14.00" departLane="np13_nt13_0" departPos="63.39" departSpeed="0.00" departDelay="0.36" arrival="209.00" arrivalLane="nt4_np5_0" arrivalPos="75.00" arrivalSpeed="21.49" duration="195.00" routeLength="1284.50" waitingTime="73.00" waitingCount="7" stopTime="0.00" timeLoss="113.18" rerouteNo="0" devices="tripinfo_f_0_0.1" vType="type1" speedFactor="1.11" vaporized=""/>
    <tripinfo id="f_0_0.2" depart="28.00" departLane="np13_nt13_0" departPos="56.02" departSpeed="0.00" departDelay="0.73" arrival="211.00" arrivalLane="nt4_np5_0" arrivalPos="75.00" arrivalSpeed="18.06" duration="183.00" routeLength="1291.87" waitingTime="50.00" waitingCount="5" stopTime="0.00" timeLoss="86.04" rerouteNo="0" devices="tripinfo_f_0_0.2" vType="type1" speedFactor="0.94" vaporized=""/>
    <tripinfo id="f_0_0.3" depart="41.00" departLane="np13_nt13_0" departPos="29.80" departSpeed="0.00" departDelay="0.09" arrival="214.00" arrivalLane="nt4_np5_0" arrivalPos="75.00" arrivalSpeed="21.23" duration="173.00" routeLength="1318.09" waitingTime="48.00" waitingCount="6" stopTime="0.00" timeLoss="90.20" rerouteNo="0" devices="tripinfo_f_0_0.3" vType="type1" speedFactor="1.11" vaporized=""/>
    <tripinfo id="f_0_0.4" depart="55.00" departLane="np13_nt13_0" departPos="6.03" departSpeed="0.00" departDelay="0.46" arrival="258.00" arrivalLane="nt4_np5_0" arrivalPos="75.00" arrivalSpeed="18.89" duration="203.00" routeLength="1341.86" waitingTime="63.00" waitingCount="7" stopTime="0.00" timeLoss="106.44" rerouteNo="0" devices="tripinfo_f_0_0.4" vType="type1" speedFactor="0.96" vaporized=""/>
    <tripinfo id="f_0_3.4" depart="33.00" departLane="np3_nt3_0" departPos="2.99" departSpeed="0.00" departDelay="0.27" arrival="263.00" arrivalLane="nt14_np11_0" arrivalPos="75.00" arrivalSpeed="10.03" duration="230.00" routeLength="948.10" waitingTime="119.00" waitingCount="3" stopTime="0.00" timeLoss="145.95" rerouteNo="0" devices="tripinfo_f_0_3.4" vType="type1" speedFactor="0.96" vaporized=""/>
    <tripinfo id="f_0_3.5" depart="41.00" departLane="np3_nt3_0" departPos="2.65" departSpeed="0.00" departDelay="0.09" arrival="265.00" arrivalLane="nt14_np11_0" arrivalPos="75.00" arrivalSpeed="8.25" duration="224.00" routeLength="948.44" waitingTime="109.00" waitingCount="5" stopTime="0.00" timeLoss="137.60" rerouteNo="0" devices="tripinfo_f_0_3.5" vType="type1" speedFactor="0.93" vaporized=""/>
    <tripinfo id="f_0_0.5" depart="69.00" departLane="np13_nt13_0" departPos="17.64" departSpeed="0.00" departDelay="0.82" arrival="293.00" arrivalLane="nt4_np5_0" arrivalPos="75.00" arrivalSpeed="21.17" duration="224.00" routeLength="1330.25" waitingTime="91.00" waitingCount="7" stopTime="0.00" timeLoss="144.87" rerouteNo="0" devices="tripinfo_f_0_0.5" vType="type1" speedFactor="1.17" vaporized=""/>
    <tripinfo id="f_0_2.4" depart="33.00" departLane="np2_nt2_0" departPos="22.49" departSpeed="0.00" departDelay="0.27" arrival="301.00" arrivalLane="nt15_np10_0" arrivalPos="75.00" arrivalSpeed="12.10" duration="268.00" routeLength="928.59" waitingTime="168.00" waitingCount="6" stopTime="0.00" timeLoss="201.22" rerouteNo="0" devices="tripinfo_f_0_2.4" vType="type1" speedFactor="1.16" vaporized=""/>
    <tripinfo id="f_0_3.6" depart="50.00" departLane="np3_nt3_0" departPos="42.15" departSpeed="0.00" departDelay="0.91" arrival="306.00" arrivalLane="nt14_np11_0" arrivalPos="75.00" arrivalSpeed="10.18" duration="256.00" routeLength="908.94" waitingTime="149.00" waitingCount="5" stopTime="0.00" timeLoss="183.03" rerouteNo="0" devices="tripinfo_f_0_3.6" vType="type1" speedFactor="1.04" vaporized=""/>
    <tripinfo id="f_0_0.6" depart="82.00" departLane="np13_nt13_0" departPos="10.48" departSpeed="0.00" departDelay="0.18" arrival="321.00" arrivalLane="nt4_np5_0" arrivalPos="75.00" arrivalSpeed="19.50" duration="239.00" routeLength="1337.41" waitingTime="116.00" waitingCount="5" stopTime="0.00" timeLoss="144.99" rerouteNo="0" devices="tripinfo_f_0_0.6" vType="type1" speedFactor="0.99" vaporized=""/>
    <tripinfo id="f_0_3.7" depart="58.00" departLane="np3_nt3_0" departPos="11.80" departSpeed="0.00" departDelay="0.73" arrival="324.00" arrivalLane="nt14_np11_0" arrivalPos="75.00" arrivalSpeed="10.12" duration="266.00" routeLength="939.29" waitingTime="153.00" waitingCount="6" stopTime="0.00" timeLoss="183.64" rerouteNo="0" devices="tripinfo_f_0_3.7" vType="type1" speedFactor="0.96" vaporized=""/>
    <tripinfo id="f_0_3.8" depart="66.00" departLane="np3_nt3_0" departPos="25.72" departSpeed="0.00" departDelay="0.54" arrival="329.00" arrivalLane="nt14_np11_0" arrivalPos="75.00" arrivalSpeed="11.24" duration="263.00" routeLength="925.37" waitingTime="162.00" waitingCount="7" stopTime="0.00" timeLoss="193.00" rerouteNo="0" devices="tripinfo_f_0_3.8" vType="type1" speedFactor="1.13" vaporized=""/>
    <tripinfo id="f_0_1.1" depart="14.00" departLane="np16_nt1_0" departPos="49.48" departSpeed="0.00" departDelay="0.36" arrival="334.00" arrivalLane="nt16_np8_0" arrivalPos="75.00" arrivalSpeed="19.47" duration="320.00" routeLength="1298.40" waitingTime="181.00" waitingCount="9" stopTime="0.00" timeLoss="227.40" rerouteNo="0" devices="tripinfo_f_0_1.1" vType="type1" speedFactor="0.99" vaporized=""/>
    <tripinfo id="f_0_3.9" depart="74.00" departLane="np3_nt3_0" departPos="25.85" departSpeed="0.00" departDelay="0.36" arrival="334.00" arrivalLane="nt14_np11_0" arrivalPos="75.00" arrivalSpeed="10.73" duration="260.00" routeLength="925.24" waitingTime="144.00" waitingCount="8" stopTime="0.00" timeLoss="185.52" rerouteNo="0" devices="tripinfo_f_0_3.9" vType="type1" speedFactor="1.03" vaporized=""/>
    <tripinfo id="f_0_0.7" depart="96.00" departLane="np13_nt13_0" departPos="40.25" departSpeed="0.00" departDelay="0.55" arrival="338.00" arrivalLane="nt4_np5_0" arrivalPos="75.00" arrivalSpeed="18.07" duration="242.00" routeLength="1307.64" waitingTime="109.00" waitingCount="5" stopTime="0.00" timeLoss="146.84" rerouteNo="0" devices="tripinfo_f_0_0.7" vType="type1" speedFactor="0.95" vaporized=""/>
    <tripinfo id="f_0_3.10" depart="82.00" departLane="np3_nt3_0" departPos="17.28" departSpeed="0.00" departDelay="0.18" arrival="357.00" arrivalLane="nt14_np11_0" arrivalPos="75.00" arrivalSpeed="10.68" duration="275.00" routeLength="933.81" waitingTime="142.00" waitingCount="10" stopTime="0.00" timeLoss="194.97" rerouteNo="0" devices="tripinfo_f_0_3.10" vType="type1" speedFactor="0.98" vaporized=""/>
    <tripinfo id="f_0_2.5" depart="41.00" departLane="np2_nt2_0" departPos="6.75" departSpeed="0.00" departDelay="0.09" arrival="359.00" arrivalLane="nt15_np10_0" arrivalPos="75.00" arrivalSpeed="9.02" duration="318.00" routeLength="944.33" waitingTime="186.00" waitingCount="8" stopTime="0.00" timeLoss="227.30" rerouteNo="0" devices="tripinfo_f_0_2.5" vType="type1" speedFactor="0.88" vaporized=""/>
    <tripinfo id="f_0_2.6" depart="50.00" departLane="np2_nt2_0" departPos="60.37" departSpeed="0.00" departDelay="0.91" arrival="360.00" arrivalLane="nt15_np10_0" arrivalPos="75.00" arrivalSpeed="11.08" duration="310.00" routeLength="890.71" waitingTime="188.00" waitingCount="8" stopTime="0.00" timeLoss="246.31" rerouteNo="0" devices="tripinfo_f_0_2.6" vType="type1" speedFactor="1.16" vaporized=""/>
    <tripinfo id="f_0_1.2" depart="28.00" departLane="np16_nt1_0" departPos="23.90" departSpeed="0.00" departDelay="0.73" arrival="399.00" arrivalLane="nt16_np8_0" arrivalPos="75.00" arrivalSpeed="17.72" duration="371.00" routeLength="1323.98" waitingTime="208.00" waitingCount="13" stopTime="0.00" timeLoss="272.17" rerouteNo="0" devices="tripinfo_f_0_1.2" vType="type1" speedFactor="0.94" vaporized=""/>
    <tripinfo id="f_0_3.11" depart="90.00" departLane="np3_nt3_0" departPos="4.98" departSpeed="0.00" departDelay="0.00" arrival="401.00" arrivalLane="nt14_np11_0" arrivalPos="75.00" arrivalSpeed="10.70" duration="311.00" routeLength="946.11" waitingTime="187.00" waitingCount="9" stopTime="0.00" timeLoss="239.07" rerouteNo="0" devices="tripinfo_f_0_3.11" vType="type1" speedFactor="1.11" vaporized=""/>
    <tripinfo id="f_0_3.12" depart="99.00" departLane="np3_nt3_0" departPos="31.95" departSpeed="0.00" departDelay="0.82" arrival="403.00" arrivalLane="nt14_np11_0" arrivalPos="75.00" arrivalSpeed="9.56" duration="304.00" routeLength="919.14" waitingTime="179.00" waitingCount="11" stopTime="0.00" timeLoss="231.56" rerouteNo="0" devices="tripinfo_f_0_3.12" vType="type1" speedFactor="1.06" vaporized=""/>
    <tripinfo id="f_0_2.7" depart="58.00" departLane="np2_nt2_0" departPos="28.27" departSpeed="0.00" departDelay="0.73" arrival="407.00" arrivalLane="nt15_np10_0" arrivalPos="75.00" arrivalSpeed="9.76" duration="349.00" routeLength="922.81" waitingTime="208.00" waitingCount="11" stopTime="0.00" timeLoss="273.78" rerouteNo="0" devices="tripinfo_f_0_2.7" vType="type1" speedFactor="1.03" vaporized=""/>
    <tripinfo id="f_0_2.8" depart="66.00" departLane="np2_nt2_0" departPos="43.53" departSpeed="0.00" departDelay="0.54" arrival="411.00" arrivalLane="nt15_np10_0" arrivalPos="75.00" arrivalSpeed="7.63" duration="345.00" routeLength="907.55" waitingTime="186.00" waitingCount="12" stopTime="0.00" timeLoss="256.42" rerouteNo="0" devices="tripinfo_f_0_2.8" vType="type1" speedFactor="0.86" vaporized=""/>
    <tripinfo id="f_0_0.8" depart="110.00" departLane="np13_nt13_0" departPos="11.83" departSpeed="0.00" departDelay="0.91" arrival="412.00" arrivalLane="nt4_np5_0" arrivalPos="75.00" arrivalSpeed="13.50" duration="302.00" routeLength="1336.06" waitingTime="128.00" waitingCount="5" stopTime="0.00" timeLoss="169.60" rerouteNo="0" devices="tripinfo_f_0_0.8" vType="type1" speedFactor="0.70" vaporized=""/>
    <tripinfo id="f_0_0.9" depart="123.00" departLane="np13_nt13_0" departPos="17.76" departSpeed="0.00" departDelay="0.28" arrival="414.00" arrivalLane="nt4_np5_0" arrivalPos="75.00" arrivalSpeed="15.98" duration="291.00" routeLength="1330.13" waitingTime="143.00" waitingCount="8" stopTime="0.00" timeLoss="187.33" rerouteNo="0" devices="tripinfo_f_0_0.9" vType="type1" speedFactor="0.90" vaporized=""/>
    <tripinfo id="f_0_3.13" depart="107.00" departLane="np3_nt3_0" departPos="18.29" departSpeed="0.00" departDelay="0.63" arrival="418.00" arrivalLane="nt14_np11_0" arrivalPos="75.00" arrivalSpeed="7.96" duration="311.00" routeLength="932.80" waitingTime="169.00" waitingCount="12" stopTime="0.00" timeLoss="225.03" rerouteNo="0" devices="tripinfo_f_0_3.13" vType="type1" speedFactor="0.91" vaporized=""/>
    <tripinfo id="f_0_1.3" depart="41.00" departLane="np16_nt1_0" departPos="47.63" departSpeed="0.00" departDelay="0.09" arrival="421.00" arrivalLane="nt16_np8_0" arrivalPos="75.00" arrivalSpeed="21.52" duration="380.00" routeLength="1300.25" waitingTime="198.00" waitingCount="14" stopTime="0.00" timeLoss="297.46" rerouteNo="0" devices="tripinfo_f_0_1.3" vType="type1" speedFactor="1.10" vaporized=""/>
    <tripinfo id="f_0_1.4" depart="55.00" departLane="np16_nt1_0" departPos="7.02" departSpeed="0.00" departDelay="0.46" arrival="427.00" arrivalLane="nt16_np8_0" arrivalPos="75.00" arrivalSpeed="21.31" duration="372.00" routeLength="1340.86" waitingTime="177.00" waitingCount="14" stopTime="0.00" timeLoss="288.76" rerouteNo="0" devices="tripinfo_f_0_1.4" vType="type1" speedFactor="1.12" vaporized=""/>
    <tripinfo id="f_0_0.10" depart="137.00" departLane="np13_nt13_0" departPos="46.73" departSpeed="0.00" departDelay="0.64" arrival="433.00" arrivalLane="nt4_np5_0" arrivalPos="75.00" arrivalSpeed="19.57" duration="296.00" routeLength="1301.16" waitingTime="143.00" waitingCount="9" stopTime="0.00" timeLoss="204.12" rerouteNo="0" devices="tripinfo_f_0_0.10" vType="type1" speedFactor="0.99" vaporized=""/>
    <tripinfo id="f_0_0.11" depart="150.00" departLane="np13_nt13_0" departPos="45.62" departSpeed="0.00" departDelay="0.00" arrival="444.00" arrivalLane="nt4_np5_0" arrivalPos="75.00" arrivalSpeed="20.70" duration="294.00" routeLength="1302.27" waitingTime="141.00" waitingCount="9" stopTime="0.00" timeLoss="211.69" rerouteNo="0" devices="tripinfo_f_0_0.11" vType="type1" speedFactor="1.11" vaporized=""/>
    <tripinfo id="f_0_2.9" depart="74.00" departLane="np2_nt2_0" departPos="47.96" departSpeed="0.00" departDelay="0.36" arrival="451.00" arrivalLane="nt15_np10_0" arrivalPos="75.00" arrivalSpeed="12.08" duration="377.00" routeLength="903.12" waitingTime="207.00" waitingCount="14" stopTime="0.00" timeLoss="308.95" rerouteNo="0" devices="tripinfo_f_0_2.9" vType="type1" speedFactor="1.11" vaporized=""/>
    <tripinfo id="f_0_3.14" depart="115.00" departLane="np3_nt3_0" departPos="0.00" departSpeed="0.00" departDelay="0.45" arrival="452.00" arrivalLane="nt14_np11_0" arrivalPos="75.00" arrivalSpeed="10.21" duration="337.00" routeLength="951.09" waitingTime="207.00" waitingCount="11" stopTime="0.00" timeLoss="258.50" rerouteNo="0" devices="tripinfo_f_0_3.14" vType="type1" speedFactor="1.02" vaporized=""/>
    <tripinfo id="f_0_2.10" depart="82.00" departLane="np2_nt2_0" departPos="12.46" departSpeed="0.00" departDelay="0.18" arrival="454.00" arrivalLane="nt15_np10_0" arrivalPos="75.00" arrivalSpeed="10.14" duration="372.00" routeLength="938.62" waitingTime="185.00" waitingCount="17" stopTime="0.00" timeLoss="295.68" rerouteNo="0" devices="tripinfo_f_0_2.10" vType="type1" speedFactor="1.02" vaporized=""/>
    <tripinfo id="f_0_2.11" depart="90.00" departLane="np2_nt2_0" departPos="43.14" departSpeed="0.00" departDelay="0.00" arrival="457.00" arrivalLane="nt15_np10_0" arrivalPos="75.00" arrivalSpeed="8.94" duration="367.00" routeLength="907.94" waitingTime="181.00" waitingCount="14" stopTime="0.00" timeLoss="289.63" rerouteNo="0" devices="tripinfo_f_0_2.11" vType="type1" speedFactor="0.98" vaporized=""/>
    <tripinfo id="f_0_2.12" depart="99.00" departLane="np2_nt2_0" departPos="32.11" departSpeed="0.00" departDelay="0.82" arrival="459.00" arrivalLane="nt15_np10_0" arrivalPos="75.00" arrivalSpeed="10.01" duration="360.00" routeLength="918.97" waitingTime="180.00" waitingCount="13" stopTime="0.00" timeLoss="283.24" rerouteNo="0" devices="tripinfo_f_0_2.12" vType="type1" speedFactor="1.01" vaporized=""/>
    <tripinfo id="f_0_0.12" depart="164.00" departLane="np13_nt13_0" departPos="33.63" departSpeed="0.00" departDelay="0.37" arrival="477.00" arrivalLane="nt4_np5_0" arrivalPos="75.00" arrivalSpeed="16.48" duration="313.00" routeLength="1314.26" waitingTime="150.00" waitingCount="8" stopTime="0.00" timeLoss="213.60" rerouteNo="0" devices="tripinfo_f_0_0.12" vType="type1" speedFactor="0.93" vaporized=""/>
    <tripinfo id="f_0_1.5" depart="69.00" departLane="np16_nt1_0" departPos="26.63" departSpeed="0.00" departDelay="0.82" arrival="478.00" arrivalLane="nt16_np8_0" arrivalPos="75.00" arrivalSpeed="21.57" duration="409.00" routeLength="1321.25" waitingTime="203.00" waitingCount="17" stopTime="0.00" timeLoss="328.44" rerouteNo="0" devices="tripinfo_f_0_1.5" vType="type1" speedFactor="1.15" vaporized=""/>
    <tripinfo id="f_0_1.6" depart="82.00" departLane="np16_nt1_0" departPos="13.44" departSpeed="0.00" departDelay="0.18" arrival="480.00" arrivalLane="nt16_np8_0" arrivalPos="75.00" arrivalSpeed="19.54" duration="398.00" routeLength="1334.44" waitingTime="180.00" waitingCount="14" stopTime="0.00" timeLoss="305.43" rerouteNo="0" devices="tripinfo_f_0_1.6" vType="type1" speedFactor="1.00" vaporized=""/>
    <tripinfo id="f_0_0.13" depart="178.00" departLane="np13_nt13_0" departPos="41.50" departSpeed="0.00" departDelay="0.73" arrival="508.00" arrivalLane="nt4_np5_0" arrivalPos="75.00" arrivalSpeed="20.30" duration="330.00" routeLength="1306.39" waitingTime="182.00" waitingCount="10" stopTime="0.00" timeLoss="241.71" rerouteNo="0" devices="tripinfo_f_0_0.13" vType="type1" speedFactor="1.04" vaporized=""/>
    <tripinfo id="f_0_2.13" depart="107.00" departLane="np2_nt2_0" departPos="34.87" departSpeed="0.00" departDelay="0.63" arrival="516.00" arrivalLane="nt15_np10_0" arrivalPos="75.00" arrivalSpeed="11.98" duration="409.00" routeLength="916.21" waitingTime="215.00" waitingCount="13" stopTime="0.00" timeLoss="339.65" rerouteNo="0" devices="tripinfo_f_0_2.13" vType="type1" speedFactor="1.10" vaporized=""/>
    <tripinfo id="f_0_3.15" depart="123.00" departLane="np3_nt3_0" departPos="7.08" departSpeed="0.00" departDelay="0.27" arrival="516.00" arrivalLane="nt14_np11_0" arrivalPos="75.00" arrivalSpeed="11.30" duration="393.00" routeLength="944.01" waitingTime="263.00" waitingCount="10" stopTime="0.00" timeLoss="323.80" rerouteNo="0" devices="tripinfo_f_0_3.15" vType="type1" speedFactor="1.15" vaporized=""/>
    <tripinfo id="f_0_3.16" depart="131.00" departLane="np3_nt3_0" departPos="0.00" departSpeed="0.00" departDelay="0.09" arrival="521.00" arrivalLane="nt14_np11_0" arrivalPos="75.00" arrivalSpeed="8.67" duration="390.00" routeLength="951.09" waitingTime="230.00" waitingCount="10" stopTime="0.00" timeLoss="299.58" rerouteNo="0" devices="tripinfo_f_0_3.16" vType="type1" speedFactor="0.88" vaporized=""/>
    <tripinfo id="f_0_0.14" depart="191.00" departLane="np13_nt13_0" departPos="26.82" departSpeed="0.00" departDelay="0.10" arrival="523.00" arrivalLane="nt4_np5_0" arrivalPos="75.00" arrivalSpeed="23.71" duration="332.00" routeLength="1321.07" waitingTime="177.00" waitingCount="12" stopTime="0.00" timeLoss="258.29" rerouteNo="0" devices="tripinfo_f_0_0.14" vType="type1" speedFactor="1.25" vaporized=""/>
    <tripinfo id="f_0_0.15" depart="205.00" departLane="np13_nt13_0" departPos="34.27" departSpeed="0.00" departDelay="0.46" arrival="525.00" arrivalLane="nt4_np5_0" arrivalPos="75.00" arrivalSpeed="18.84" duration="320.00" routeLength="1313.62" waitingTime="159.00" waitingCount="11" stopTime="0.00" timeLoss="231.17" rerouteNo="0" devices="tripinfo_f_0_0.15" vType="type1" speedFactor="1.04" vaporized=""/>
    <tripinfo id="f_0_0.16" depart="219.00" departLane="np13_nt13_0" departPos="10.71" departSpeed="0.00" departDelay="0.82" arrival="526.00" arrivalLane="nt4_np5_0" arrivalPos="75.00" arrivalSpeed="21.86" duration="307.00" routeLength="1337.18" waitingTime="142.00" waitingCount="9" stopTime="0.00" timeLoss="225.01" rerouteNo="0" devices="tripinfo_f_0_0.16" vType="type1" speedFactor="1.13" vaporized=""/>
    <tripinfo id="f_0_3.17" depart="188.00" departLane="np3_nt3_0" departPos="0.00" departSpeed="0.00" departDelay="48.91" arrival="528.00" arrivalLane="nt14_np11_0" arrivalPos="75.00" arrivalSpeed="10.00" duration="340.00" routeLength="951.09" waitingTime="181.00" waitingCount="9" stopTime="0.00" timeLoss="255.02" rerouteNo="0" devices="tripinfo_f_0_3.17" vType="type1" speedFactor="0.95" vaporized=""/>
    <tripinfo id="f_0_3.18" depart="197.00" departLane="np3_nt3_0" departPos="0.00" departSpeed="0.00" departDelay="49.72" arrival="529.00" arrivalLane="nt14_np11_0" arrivalPos="75.00" arrivalSpeed="13.30" duration="332.00" routeLength="951.09" waitingTime="182.00" waitingCount="11" stopTime="0.00" timeLoss="266.25" rerouteNo="0" devices="tripinfo_f_0_3.18" vType="type1" speedFactor="1.21" vaporized=""/>
    <tripinfo id="f_0_0.17" depart="232.00" departLane="np13_nt13_0" departPos="17.79" departSpeed="0.00" departDelay="0.19" arrival="529.00" arrivalLane="nt4_np5_0" arrivalPos="75.00" arrivalSpeed="18.37" duration="297.00" routeLength="1330.10" waitingTime="121.00" waitingCount="10" stopTime="0.00" timeLoss="197.24" rerouteNo="0" devices="tripinfo_f_0_0.17" vType="type1" speedFactor="0.93" vaporized=""/>
    <tripinfo id="f_0_3.19" depart="200.00" departLane="np3_nt3_0" departPos="0.00" departSpeed="0.00" departDelay="44.54" arrival="532.00" arrivalLane="nt14_np11_0" arrivalPos="75.00" arrivalSpeed="9.06" duration="332.00" routeLength="951.09" waitingTime="168.00" waitingCount="14" stopTime="0.00" timeLoss="251.04" rerouteNo="0" devices="tripinfo_f_0_3.19" vType="type1" speedFactor="0.99" vaporized=""/>
    <tripinfo id="f_0_2.14" depart="115.00" departLane="np2_nt2_0" departPos="13.46" departSpeed="0.00" departDelay="0.45" arrival="533.00" arrivalLane="nt15_np10_0" arrivalPos="75.00" arrivalSpeed="8.50" duration="418.00" routeLength="937.62" waitingTime="244.00" waitingCount="13" stopTime="0.00" timeLoss="333.09" rerouteNo="0" devices="tripinfo_f_0_2.14" vType="type1" speedFactor="0.92" vaporized=""/>
    <tripinfo id="f_0_3.20" depart="207.00" departLane="np3_nt3_0" departPos="0.00" departSpeed="0.00" departDelay="43.36" arrival="534.00" arrivalLane="nt14_np11_0" arrivalPos="75.00" arrivalSpeed="10.24" duration="327.00" routeLength="951.09" waitingTime="164.00" waitingCount="13" stopTime="0.00" timeLoss="246.91" rerouteNo="0" devices="tripinfo_f_0_3.20" vType="type1" speedFactor="1.00" vaporized=""/>
    <tripinfo id="f_0_0.18" depart="246.00" departLane="np13_nt13_0" departPos="15.29" departSpeed="0.00" departDelay="0.55" arrival="538.00" arrivalLane="nt4_np5_0" arrivalPos="75.00" arrivalSpeed="20.37" duration="292.00" routeLength="1332.60" waitingTime="123.00" waitingCount="9" stopTime="0.00" timeLoss="204.99" rerouteNo="0" devices="tripinfo_f_0_0.18" vType="type1" speedFactor="1.06" vaporized=""/>
    <tripinfo id="f_0_0.19" depart="260.00" departLane="np13_nt13_0" departPos="11.36" departSpeed="0.00" departDelay="0.92" arrival="540.00" arrivalLane="nt4_np5_0" arrivalPos="75.00" arrivalSpeed="20.60" duration="280.00" routeLength="1336.53" waitingTime="111.00" waitingCount="10" stopTime="0.00" timeLoss="193.25" rerouteNo="0" devices="tripinfo_f_0_0.19" vType="type1" speedFactor="1.07" vaporized=""/>
    <tripinfo id="f_0_0.20" depart="273.00" departLane="np13_nt13_0" departPos="11.58" departSpeed="0.00" departDelay="0.28" arrival="543.00" arrivalLane="nt4_np5_0" arrivalPos="75.00" arrivalSpeed="19.07" duration="270.00" routeLength="1336.31" waitingTime="100.00" waitingCount="9" stopTime="0.00" timeLoss="174.68" rerouteNo="0" devices="tripinfo_f_0_0.20" vType="type1" speedFactor="0.97" vaporized=""/>
    <tripinfo id="f_0_0.21" depart="287.00" departLane="np13_nt13_0" departPos="56.49" departSpeed="0.00" departDelay="0.64" arrival="553.00" arrivalLane="nt4_np5_0" arrivalPos="75.00" arrivalSpeed="19.56" duration="266.00" routeLength="1291.40" waitingTime="94.00" waitingCount="11" stopTime="0.00" timeLoss="182.76" rerouteNo="0" devices="tripinfo_f_0_0.21" vType="type1" speedFactor="1.10" vaporized=""/>
    <tripinfo id="f_0_1.7" depart="96.00" departLane="np16_nt1_0" departPos="51.19" departSpeed="0.00" departDelay="0.55" arrival="563.00" arrivalLane="nt16_np8_0" arrivalPos="75.00" arrivalSpeed="21.96" duration="467.00" routeLength="1296.69" waitingTime="270.00" waitingCount="17" stopTime="0.00" timeLoss="388.81" rerouteNo="0" devices="tripinfo_f_0_1.7" vType="type1" speedFactor="1.17" vaporized=""/>
    <tripinfo id="f_0_1.12" depart="164.00" departLane="np16_nt1_0" departPos="19.71" departSpeed="0.00" departDelay="0.37" arrival="565.00" arrivalLane="nt16_np8_0" arrivalPos="75.00" arrivalSpeed="22.12" duration="401.00" routeLength="1328.17" waitingTime="229.00" waitingCount="14" stopTime="0.00" timeLoss="318.45" rerouteNo="0" devices="tripinfo_f_0_1.12" vType="type1" speedFactor="1.12" vaporized=""/>
    <tripinfo id="f_0_0.22" depart="300.00" departLane="np13_nt13_0" departPos="62.08" departSpeed="0.00" departDelay="0.01" arrival="568.00" arrivalLane="nt4_np5_0" arrivalPos="75.00" arrivalSpeed="24.46" duration="268.00" routeLength="1285.81" waitingTime="126.00" waitingCount="10" stopTime="0.00" timeLoss="195.56" rerouteNo="0" devices="tripinfo_f_0_0.22" vType="type1" speedFactor="1.25" vaporized=""/>
    <tripinfo id="f_1_0.0" depart="300.00" departLane="np13_nt13_0" departPos="14.68" departSpeed="0.00" departDelay="0.00" arrival="570.00" arrivalLane="nt4_np5_0" arrivalPos="75.00" arrivalSpeed="19.76" duration="270.00" routeLength="1333.21" waitingTime="128.00" waitingCount="8" stopTime="0.00" timeLoss="182.05" rerouteNo="0" devices="tripinfo_f_1_0.0" vType="type1" speedFactor="1.05" vaporized=""/>
    <tripinfo id="f_0_1.8" depart="110.00" departLane="np16_nt1_0" departPos="11.81" departSpeed="0.00" departDelay="0.91" arrival="583.00" arrivalLane="nt16_np8_0" arrivalPos="75.00" arrivalSpeed="20.15" duration="473.00" routeLength="1336.07" waitingTime="254.00" waitingCount="18" stopTime="0.00" timeLoss="384.85" rerouteNo="0" devices="tripinfo_f_0_1.8" vType="type1" speedFactor="1.05" vaporized=""/>
    <tripinfo id="f_0_1.16" depart="219.00" departLane="np16_nt1_0" departPos="36.38" departSpeed="0.00" departDelay="0.82" arrival="585.00" arrivalLane="nt16_np8_0" arrivalPos="75.00" arrivalSpeed="17.63" duration="366.00" routeLength="1311.50" waitingTime="185.00" waitingCount="14" stopTime="0.00" timeLoss="272.87" rerouteNo="0" devices="tripinfo_f_0_1.16" vType="type1" speedFactor="0.98" vaporized=""/>