<?xml version="1.0" encoding="UTF-8"?>

<!-- generated on 2023-08-30 18:31:57 by Eclipse SUMO libsumo Version 1.18.0
<configuration xmlns:xsi="http://www.w3.org/2001/XMLSchema-instance" xsi:noNamespaceSchemaLocation="http://sumo.dlr.de/xsd/libsumoConfiguration.xsd">

    <input>
        <net-file value="/home/stefan/RESCO/./environments/arterial4x4/arterial4x4.net.xml"/>
        <route-files value="/home/stefan/RESCO/./environments/arterial4x4/arterial4x4_34.rou.xml"/>
    </input>

    <output>
        <tripinfo-output value="/home/stefan/results/RAINBOW-tr0-arterial4x4-0-drq_norm-wait_norm/tripinfo_34.xml"/>
        <tripinfo-output.write-unfinished value="true"/>
    </output>

    <processing>
        <time-to-teleport value="-1"/>
    </processing>

    <report>
        <no-warnings value="True"/>
        <no-step-log value="True"/>
    </report>

    <random_number>
        <random value="true"/>
    </random_number>

</configuration>
-->

<tripinfos xmlns:xsi="http://www.w3.org/2001/XMLSchema-instance" xsi:noNamespaceSchemaLocation="http://sumo.dlr.de/xsd/tripinfo_file.xsd">
    <tripinfo id="f_0_2.0" depart="0.00" departLane="np2_nt2_0" departPos="41.18" departSpeed="0.00" departDelay="0.00" arrival="122.00" arrivalLane="nt15_np10_0" arrivalPos="75.00" arrivalSpeed="9.07" duration="122.00" routeLength="909.90" waitingTime="27.00" waitingCount="3" stopTime="0.00" timeLoss="48.02" rerouteNo="0" devices="tripinfo_f_0_2.0" vType="type1" speedFactor="1.03" vaporized=""/>
    <tripinfo id="f_0_0.0" depart="0.00" departLane="np13_nt13_0" departPos="13.00" departSpeed="0.00" departDelay="0.00" arrival="205.00" arrivalLane="nt4_np5_0" arrivalPos="75.00" arrivalSpeed="16.90" duration="205.00" routeLength="1334.89" waitingTime="89.00" waitingCount="4" stopTime="0.00" timeLoss="108.45" rerouteNo="0" devices="tripinfo_f_0_0.0" vType="type1" speedFactor="0.96" vaporized=""/>
    <tripinfo id="f_0_0.1" depart="14.00" departLane="np13_nt13_0" departPos="6.84" departSpeed="0.00" departDelay="0.36" arrival="206.00" arrivalLane="nt4_np5_0" arrivalPos="75.00" arrivalSpeed="19.70" duration="192.00" routeLength="1341.05" waitingTime="75.00" waitingCount="3" stopTime="0.00" timeLoss="104.31" rerouteNo="0" devices="tripinfo_f_0_0.1" vType="type1" speedFactor="1.05" vaporized=""/>
    <tripinfo id="f_0_2.1" depart="9.00" departLane="np2_nt2_0" departPos="45.39" departSpeed="0.00" departDelay="0.82" arrival="233.00" arrivalLane="nt15_np10_0" arrivalPos="75.00" arrivalSpeed="8.36" duration="224.00" routeLength="905.69" waitingTime="117.00" waitingCount="6" stopTime="0.00" timeLoss="142.91" rerouteNo="0" devices="tripinfo_f_0_2.1" vType="type1" speedFactor="0.93" vaporized=""/>
    <tripinfo id="f_0_3.0" depart="0.00" departLane="np3_nt3_0" departPos="13.74" departSpeed="0.00" departDelay="0.00" arrival="241.00" arrivalLane="nt14_np11_0" arrivalPos="75.00" arrivalSpeed="11.86" duration="241.00" routeLength="937.35" waitingTime="147.00" waitingCount="3" stopTime="0.00" timeLoss="168.62" rerouteNo="0" devices="tripinfo_f_0_3.0" vType="type1" speedFactor="1.08" vaporized=""/>
    <tripinfo id="f_0_0.2" depart="28.00" departLane="np13_nt13_0" departPos="46.04" departSpeed="0.00" departDelay="0.73" arrival="246.00" arrivalLane="nt4_np5_0" arrivalPos="75.00" arrivalSpeed="19.08" duration="218.00" routeLength="1301.85" waitingTime="94.00" waitingCount="5" stopTime="0.00" timeLoss="125.69" rerouteNo="0" devices="tripinfo_f_0_0.2" vType="type1" speedFactor="0.99" vaporized=""/>
    <tripinfo id="f_0_3.1" depart="9.00" departLane="np3_nt3_0" departPos="34.22" departSpeed="0.00" departDelay="0.82" arrival="247.00" arrivalLane="nt14_np11_0" arrivalPos="75.00" arrivalSpeed="6.53" duration="238.00" routeLength="916.87" waitingTime="118.00" waitingCount="3" stopTime="0.00" timeLoss="143.20" rerouteNo="0" devices="tripinfo_f_0_3.1" vType="type1" speedFactor="0.81" vaporized=""/>
    <tripinfo id="f_0_3.2" depart="17.00" departLane="np3_nt3_0" departPos="18.32" departSpeed="0.00" departDelay="0.64" arrival="249.00" arrivalLane="nt14_np11_0" arrivalPos="75.00" arrivalSpeed="9.90" duration="232.00" routeLength="932.77" waitingTime="122.00" waitingCount="5" stopTime="0.00" timeLoss="158.67" rerouteNo="0" devices="tripinfo_f_0_3.2" vType="type1" speedFactor="1.07" vaporized=""/>
    <tripinfo id="f_0_3.3" depart="25.00" departLane="np3_nt3_0" departPos="28.06" departSpeed="0.00" departDelay="0.45" arrival="251.00" arrivalLane="nt14_np11_0" arrivalPos="75.00" arrivalSpeed="10.19" duration="226.00" routeLength="923.03" waitingTime="114.00" waitingCount="5" stopTime="0.00" timeLoss="154.40" rerouteNo="0" devices="tripinfo_f_0_3.3" vType="type1" speedFactor="1.09" vaporized=""/>
    <tripinfo id="f_0_0.3" depart="41.00" departLane="np13_nt13_0" departPos="20.26" departSpeed="0.00" departDelay="0.09" arrival="261.00" arrivalLane="nt4_np5_0" arrivalPos="75.00" arrivalSpeed="19.17" duration="220.00" routeLength="1327.63" waitingTime="87.00" waitingCount="7" stopTime="0.00" timeLoss="125.87" rerouteNo="0" devices="tripinfo_f_0_0.3" vType="type1" speedFactor="0.98" vaporized=""/>
    <tripinfo id="f_0_0.4" depart="55.00" departLane="np13_nt13_0" departPos="51.68" departSpeed="0.00" departDelay="0.46" arrival="264.00" arrivalLane="nt4_np5_0" arrivalPos="75.00" arrivalSpeed="17.16" duration="209.00" routeLength="1296.21" waitingTime="65.00" waitingCount="7" stopTime="0.00" timeLoss="112.49" rerouteNo="0" devices="tripinfo_f_0_0.4" vType="type1" speedFactor="0.94" vaporized=""/>
    <tripinfo id="f_0_0.5" depart="69.00" departLane="np13_nt13_0" departPos="18.97" departSpeed="0.00" departDelay="0.82" arrival="288.00" arrivalLane="nt4_np5_0" arrivalPos="75.00" arrivalSpeed="17.05" duration="219.00" routeLength="1328.92" waitingTime="88.00" waitingCount="3" stopTime="0.00" timeLoss="121.15" rerouteNo="0" devices="tripinfo_f_0_0.5" vType="type1" speedFactor="0.94" vaporized=""/>
    <tripinfo id="f_0_0.6" depart="82.00" departLane="np13_nt13_0" departPos="46.67" departSpeed="0.00" departDelay="0.18" arrival="290.00" arrivalLane="nt4_np5_0" arrivalPos="75.00" arrivalSpeed="19.85" duration="208.00" routeLength="1301.22" waitingTime="75.00" waitingCount="5" stopTime="0.00" timeLoss="125.94" rerouteNo="0" devices="tripinfo_f_0_0.6" vType="type1" speedFactor="1.11" vaporized=""/>
    <tripinfo id="f_0_3.4" depart="33.00" departLane="np3_nt3_0" departPos="45.80" departSpeed="0.00" departDelay="0.27" arrival="308.00" arrivalLane="nt14_np11_0" arrivalPos="75.00" arrivalSpeed="9.01" duration="275.00" routeLength="905.29" waitingTime="152.00" waitingCount="7" stopTime="0.00" timeLoss="190.53" rerouteNo="0" devices="tripinfo_f_0_3.4" vType="type1" speedFactor="0.90" vaporized=""/>
    <tripinfo id="f_0_3.5" depart="41.00" departLane="np3_nt3_0" departPos="14.88" departSpeed="0.00" departDelay="0.09" arrival="310.00" arrivalLane="nt14_np11_0" arrivalPos="75.00" arrivalSpeed="10.81" duration="269.00" routeLength="936.21" waitingTime="136.00" waitingCount="9" stopTime="0.00" timeLoss="192.40" rerouteNo="0" devices="tripinfo_f_0_3.5" vType="type1" speedFactor="1.03" vaporized=""/>
    <tripinfo id="f_0_2.2" depart="17.00" departLane="np2_nt2_0" departPos="26.54" departSpeed="0.00" departDelay="0.64" arrival="318.00" arrivalLane="nt15_np10_0" arrivalPos="75.00" arrivalSpeed="8.75" duration="301.00" routeLength="924.54" waitingTime="183.00" waitingCount="7" stopTime="0.00" timeLoss="219.64" rerouteNo="0" devices="tripinfo_f_0_2.2" vType="type1" speedFactor="0.95" vaporized=""/>
    <tripinfo id="f_0_0.7" depart="96.00" departLane="np13_nt13_0" departPos="48.59" departSpeed="0.00" departDelay="0.55" arrival="333.00" arrivalLane="nt4_np5_0" arrivalPos="75.00" arrivalSpeed="19.26" duration="237.00" routeLength="1299.30" waitingTime="119.00" waitingCount="4" stopTime="0.00" timeLoss="152.93" rerouteNo="0" devices="tripinfo_f_0_0.7" vType="type1" speedFactor="1.08" vaporized=""/>
    <tripinfo id="f_0_2.3" depart="25.00" departLane="np2_nt2_0" departPos="27.70" departSpeed="0.00" departDelay="0.45" arrival="347.00" arrivalLane="nt15_np10_0" arrivalPos="75.00" arrivalSpeed="10.90" duration="322.00" routeLength="923.38" waitingTime="199.00" waitingCount="10" stopTime="0.00" timeLoss="247.84" rerouteNo="0" devices="tripinfo_f_0_2.3" vType="type1" speedFactor="1.05" vaporized=""/>
    <tripinfo id="f_0_1.0" depart="0.00" departLane="np16_nt1_0" departPos="11.59" departSpeed="0.00" departDelay="0.00" arrival="356.00" arrivalLane="nt16_np8_0" arrivalPos="75.00" arrivalSpeed="19.46" duration="356.00" routeLength="1336.29" waitingTime="209.00" waitingCount="10" stopTime="0.00" timeLoss="267.58" rerouteNo="0" devices="tripinfo_f_0_1.0" vType="type1" speedFactor="1.06" vaporized=""/>
    <tripinfo id="f_0_2.4" depart="33.00" departLane="np2_nt2_0" departPos="10.73" departSpeed="0.00" departDelay="0.27" arrival="372.00" arrivalLane="nt15_np10_0" arrivalPos="75.00" arrivalSpeed="11.01" duration="339.00" routeLength="940.35" waitingTime="203.00" waitingCount="13" stopTime="0.00" timeLoss="263.74" rerouteNo="0" devices="tripinfo_f_0_2.4" vType="type1" speedFactor="1.06" vaporized=""/>
    <tripinfo id="f_0_2.5" depart="41.00" departLane="np2_nt2_0" departPos="42.93" departSpeed="0.00" departDelay="0.09" arrival="373.00" arrivalLane="nt15_np10_0" arrivalPos="75.00" arrivalSpeed="11.74" duration="332.00" routeLength="908.15" waitingTime="197.00" waitingCount="13" stopTime="0.00" timeLoss="264.72" rerouteNo="0" devices="tripinfo_f_0_2.5" vType="type1" speedFactor="1.12" vaporized=""/>
    <tripinfo id="f_0_0.8" depart="110.00" departLane="np13_nt13_0" departPos="40.16" departSpeed="0.00" departDelay="0.91" arrival="382.00" arrivalLane="nt4_np5_0" arrivalPos="75.00" arrivalSpeed="21.67" duration="272.00" routeLength="1307.73" waitingTime="151.00" waitingCount="6" stopTime="0.00" timeLoss="191.00" rerouteNo="0" devices="tripinfo_f_0_0.8" vType="type1" speedFactor="1.12" vaporized=""/>
    <tripinfo id="f_0_0.9" depart="123.00" departLane="np13_nt13_0" departPos="47.41" departSpeed="0.00" departDelay="0.28" arrival="385.00" arrivalLane="nt4_np5_0" arrivalPos="75.00" arrivalSpeed="18.73" duration="262.00" routeLength="1300.48" waitingTime="131.00" waitingCount="6" stopTime="0.00" timeLoss="172.44" rerouteNo="0" devices="tripinfo_f_0_0.9" vType="type1" speedFactor="1.02" vaporized=""/>
    <tripinfo id="f_0_3.6" depart="50.00" departLane="np3_nt3_0" departPos="19.72" departSpeed="0.00" departDelay="0.91" arrival="388.00" arrivalLane="nt14_np11_0" arrivalPos="75.00" arrivalSpeed="9.95" duration="338.00" routeLength="931.37" waitingTime="213.00" waitingCount="6" stopTime="0.00" timeLoss="254.33" rerouteNo="0" devices="tripinfo_f_0_3.6" vType="type1" speedFactor="0.94" vaporized=""/>
    <tripinfo id="f_0_3.7" depart="58.00" departLane="np3_nt3_0" departPos="29.84" departSpeed="0.00" departDelay="0.73" arrival="390.00" arrivalLane="nt14_np11_0" arrivalPos="75.00" arrivalSpeed="8.15" duration="332.00" routeLength="921.25" waitingTime="204.00" waitingCount="9" stopTime="0.00" timeLoss="247.01" rerouteNo="0" devices="tripinfo_f_0_3.7" vType="type1" speedFactor="0.90" vaporized=""/>
    <tripinfo id="f_0_1.1" depart="14.00" departLane="np16_nt1_0" departPos="1.01" departSpeed="0.00" departDelay="0.36" arrival="409.00" arrivalLane="nt16_np8_0" arrivalPos="75.00" arrivalSpeed="17.58" duration="395.00" routeLength="1346.87" waitingTime="213.00" waitingCount="14" stopTime="0.00" timeLoss="292.90" rerouteNo="0" devices="tripinfo_f_0_1.1" vType="type1" speedFactor="0.92" vaporized=""/>
    <tripinfo id="f_0_0.10" depart="137.00" departLane="np13_nt13_0" departPos="60.96" departSpeed="0.00" departDelay="0.64" arrival="423.00" arrivalLane="nt4_np5_0" arrivalPos="75.00" arrivalSpeed="17.97" duration="286.00" routeLength="1286.93" waitingTime="145.00" waitingCount="7" stopTime="0.00" timeLoss="197.54" rerouteNo="0" devices="tripinfo_f_0_0.10" vType="type1" speedFactor="1.02" vaporized=""/>
    <tripinfo id="f_0_2.6" depart="50.00" departLane="np2_nt2_0" departPos="59.38" departSpeed="0.00" departDelay="0.91" arrival="436.00" arrivalLane="nt15_np10_0" arrivalPos="75.00" arrivalSpeed="11.67" duration="386.00" routeLength="891.70" waitingTime="232.00" waitingCount="11" stopTime="0.00" timeLoss="320.74" rerouteNo="0" devices="tripinfo_f_0_2.6" vType="type1" speedFactor="1.14" vaporized=""/>
    <tripinfo id="f_0_3.8" depart="66.00" departLane="np3_nt3_0" departPos="12.02" departSpeed="0.00" departDelay="0.54" arrival="441.00" arrivalLane="nt14_np11_0" arrivalPos="75.00" arrivalSpeed="10.10" duration="375.00" routeLength="939.07" waitingTime="243.00" waitingCount="10" stopTime="0.00" timeLoss="304.31" rerouteNo="0" devices="tripinfo_f_0_3.8" vType="type1" speedFactor="1.12" vaporized=""/>
    <tripinfo id="f_0_1.2" depart="28.00" departLane="np16_nt1_0" departPos="56.28" departSpeed="0.00" departDelay="0.73" arrival="453.00" arrivalLane="nt16_np8_0" arrivalPos="75.00" arrivalSpeed="21.29" duration="425.00" routeLength="1291.60" waitingTime="254.00" waitingCount="13" stopTime="0.00" timeLoss="340.81" rerouteNo="0" devices="tripinfo_f_0_1.2" vType="type1" speedFactor="1.08" vaporized=""/>
    <tripinfo id="f_0_3.9" depart="74.00" departLane="np3_nt3_0" departPos="13.18" departSpeed="0.00" departDelay="0.36" arrival="477.00" arrivalLane="nt14_np11_0" arrivalPos="75.00" arrivalSpeed="11.44" duration="403.00" routeLength="937.91" waitingTime="289.00" waitingCount="9" stopTime="0.00" timeLoss="331.43" rerouteNo="0" devices="tripinfo_f_0_3.9" vType="type1" speedFactor="1.11" vaporized=""/>
    <tripinfo id="f_0_2.7" depart="58.00" departLane="np2_nt2_0" departPos="25.50" departSpeed="0.00" departDelay="0.73" arrival="478.00" arrivalLane="nt15_np10_0" arrivalPos="75.00" arrivalSpeed="8.80" duration="420.00" routeLength="925.58" waitingTime="257.00" waitingCount="11" stopTime="0.00" timeLoss="331.58" rerouteNo="0" devices="tripinfo_f_0_2.7" vType="type1" speedFactor="0.88" vaporized=""/>
    <tripinfo id="f_0_3.10" depart="82.00" departLane="np3_nt3_0" departPos="25.95" departSpeed="0.00" departDelay="0.18" arrival="479.00" arrivalLane="nt14_np11_0" arrivalPos="75.00" arrivalSpeed="9.56" duration="397.00" routeLength="925.14" waitingTime="268.00" waitingCount="9" stopTime="0.00" timeLoss="313.99" rerouteNo="0" devices="tripinfo_f_0_3.10" vType="type1" speedFactor="0.94" vaporized=""/>
    <tripinfo id="f_0_2.8" depart="66.00" departLane="np2_nt2_0" departPos="7.64" departSpeed="0.00" departDelay="0.54" arrival="480.00" arrivalLane="nt15_np10_0" arrivalPos="75.00" arrivalSpeed="11.07" duration="414.00" routeLength="943.44" waitingTime="264.00" waitingCount="12" stopTime="0.00" timeLoss="348.10" rerouteNo="0" devices="tripinfo_f_0_2.8" vType="type1" speedFactor="1.20" vaporized=""/>
    <tripinfo id="f_0_3.11" depart="90.00" departLane="np3_nt3_0" departPos="10.49" departSpeed="0.00" departDelay="0.00" arrival="497.00" arrivalLane="nt14_np11_0" arrivalPos="75.00" arrivalSpeed="10.54" duration="407.00" routeLength="940.60" waitingTime="269.00" waitingCount="11" stopTime="0.00" timeLoss="336.40" rerouteNo="0" devices="tripinfo_f_0_3.11" vType="type1" speedFactor="1.11" vaporized=""/>
    <tripinfo id="f_0_0.11" depart="150.00" departLane="np13_nt13_0" departPos="56.95" departSpeed="0.00" departDelay="0.00" arrival="499.00" arrivalLane="nt4_np5_0" arrivalPos="75.00" arrivalSpeed="20.48" duration="349.00" routeLength="1290.94" waitingTime="212.00" waitingCount="8" stopTime="0.00" timeLoss="262.73" rerouteNo="0" devices="tripinfo_f_0_0.11" vType="type1" speedFactor="1.06" vaporized=""/>
    <tripinfo id="f_0_0.12" depart="164.00" departLane="np13_nt13_0" departPos="37.68" departSpeed="0.00" departDelay="0.37" arrival="500.00" arrivalLane="nt4_np5_0" arrivalPos="75.00" arrivalSpeed="18.72" duration="336.00" routeLength="1310.21" waitingTime="190.00" waitingCount="9" stopTime="0.00" timeLoss="241.12" rerouteNo="0" devices="tripinfo_f_0_0.12" vType="type1" speedFactor="0.96" vaporized=""/>
    <tripinfo id="f_0_0.13" depart="178.00" departLane="np13_nt13_0" departPos="27.82" departSpeed="0.00" departDelay="0.73" arrival="508.00" arrivalLane="nt4_np5_0" arrivalPos="75.00" arrivalSpeed="17.02" duration="330.00" routeLength="1320.07" waitingTime="185.00" waitingCount="8" stopTime="0.00" timeLoss="228.86" rerouteNo="0" devices="tripinfo_f_0_0.13" vType="type1" speedFactor="0.91" vaporized=""/>
    <tripinfo id="f_0_2.9" depart="74.00" departLane="np2_nt2_0" departPos="29.49" departSpeed="0.00" departDelay="0.36" arrival="509.00" arrivalLane="nt15_np10_0" arrivalPos="75.00" arrivalSpeed="8.40" duration="435.00" routeLength="921.59" waitingTime="270.00" waitingCount="14" stopTime="0.00" timeLoss="344.67" rerouteNo="0" devices="tripinfo_f_0_2.9" vType="type1" speedFactor="0.86" vaporized=""/>
    <tripinfo id="f_0_0.14" depart="191.00" departLane="np13_nt13_0" departPos="60.43" departSpeed="0.00" departDelay="0.10" arrival="510.00" arrivalLane="nt4_np5_0" arrivalPos="75.00" arrivalSpeed="17.72" duration="319.00" routeLength="1287.46" waitingTime="167.00" waitingCount="9" stopTime="0.00" timeLoss="224.81" rerouteNo="0" devices="tripinfo_f_0_0.14" vType="type1" speedFactor="0.97" vaporized=""/>
    <tripinfo id="f_0_3.12" depart="99.00" departLane="np3_nt3_0" departPos="17.18" departSpeed="0.00" departDelay="0.82" arrival="524.00" arrivalLane="nt14_np11_0" arrivalPos="75.00" arrivalSpeed="7.18" duration="425.00" routeLength="933.91" waitingTime="279.00" waitingCount="11" stopTime="0.00" timeLoss="335.12" rerouteNo="0" devices="tripinfo_f_0_3.12" vType="type1" speedFactor="0.87" vaporized=""/>
    <tripinfo id="f_0_3.13" depart="107.00" departLane="np3_nt3_0" departPos="1.58" departSpeed="0.00" departDelay="0.63" arrival="526.00" arrivalLane="nt14_np11_0" arrivalPos="75.00" arrivalSpeed="11.73" duration="419.00" routeLength="949.51" waitingTime="264.00" waitingCount="11" stopTime="0.00" timeLoss="345.16" rerouteNo="0" devices="tripinfo_f_0_3.13" vType="type1" speedFactor="1.09" vaporized=""/>
    <tripinfo id="f_0_0.15" depart="205.00" departLane="np13_nt13_0" departPos="49.50" departSpeed="0.00" departDelay="0.46" arrival="538.00" arrivalLane="nt4_np5_0" arrivalPos="75.00" arrivalSpeed="19.42" duration="333.00" routeLength="1298.39" waitingTime="178.00" waitingCount="14" stopTime="0.00" timeLoss="246.60" rerouteNo="0" devices="tripinfo_f_0_0.15" vType="type1" speedFactor="1.05" vaporized=""/>
    <tripinfo id="f_0_0.16" depart="219.00" departLane="np13_nt13_0" departPos="23.42" departSpeed="0.00" departDelay="0.82" arrival="540.00" arrivalLane="nt4_np5_0" arrivalPos="75.00" arrivalSpeed="17.48" duration="321.00" routeLength="1324.47" waitingTime="153.00" waitingCount="12" stopTime="0.00" timeLoss="225.26" rerouteNo="0" devices="tripinfo_f_0_0.16" vType="type1" speedFactor="0.96" vaporized=""/>
    <tripinfo id="f_0_0.17" depart="232.00" departLane="np13_nt13_0" departPos="14.32" departSpeed="0.00" departDelay="0.19" arrival="554.00" arrivalLane="nt4_np5_0" arrivalPos="75.00" arrivalSpeed="17.18" duration="322.00" routeLength="1333.57" waitingTime="149.00" waitingCount="13" stopTime="0.00" timeLoss="214.36" rerouteNo="0" devices="tripinfo_f_0_0.17" vType="type1" speedFactor="0.86" vaporized=""/>
    <tripinfo id="f_0_2.10" depart="82.00" departLane="np2_nt2_0" departPos="52.83" departSpeed="0.00" departDelay="0.18" arrival="568.00" arrivalLane="nt15_np10_0" arrivalPos="75.00" arrivalSpeed="8.76" duration="486.00" routeLength="898.25" waitingTime="321.00" waitingCount="13" stopTime="0.00" timeLoss="404.60" rerouteNo="0" devices="tripinfo_f_0_2.10" vType="type1" speedFactor="0.93" vaporized=""/>
    <tripinfo id="f_0_0.18" depart="246.00" departLane="np13_nt13_0" departPos="14.10" departSpeed="0.00" departDelay="0.55" arrival="579.00" arrivalLane="nt4_np5_0" arrivalPos="75.00" arrivalSpeed="18.87" duration="333.00" routeLength="1333.79" waitingTime="163.00" waitingCount="13" stopTime="0.00" timeLoss="239.22" rerouteNo="0" devices="tripinfo_f_0_0.18" vType="type1" speedFactor="0.99" vaporized=""/>
    <tripinfo id="f_0_1.3" depart="41.00" departLane="np16_nt1_0" departPos="10.50" departSpeed="0.00" departDelay="0.09" arrival="589.00" arrivalLane="nt16_np8_0" arrivalPos="75.00" arrivalSpeed="19.56" duration="548.00" routeLength="1337.38" waitingTime="356.00" waitingCount="15" stopTime="0.00" timeLoss="460.78" rerouteNo="0" devices="tripinfo_f_0_1.3" vType="type1" speedFactor="1.07" vaporized=""/>
    <tripinfo id="f_0_3.14" depart="115.00" departLane="np3_nt3_0" departPos="0.00" departSpeed="0.00" departDelay="0.45" arrival="591.00" arrivalLane="nt14_np11_0" arrivalPos="75.00" arrivalSpeed="11.38" duration="476.00" routeLength="951.09" waitingTime="316.00" waitingCount="12" stopTime="0.00" timeLoss="404.22" rerouteNo="0" devices="tripinfo_f_0_3.14" vType="type1" speedFactor="1.11" vaporized=""/>
    <tripinfo id="f_0_0.19" depart="260.00" departLane="np13_nt13_0" departPos="60.17" departSpeed="0.00" departDelay="0.92" arrival="594.00" arrivalLane="nt4_np5_0" arrivalPos="75.00" arrivalSpeed="15.30" duration="334.00" routeLength="1287.72" waitingTime="161.00" waitingCount="12" stopTime="0.00" timeLoss="219.94" rerouteNo="0" devices="tripinfo_f_0_0.19" vType="type1" speedFactor="0.79" vaporized=""/>
    <tripinfo id="f_0_3.15" depart="163.00" departLane="np3_nt3_0" departPos="0.00" departSpeed="0.00" departDelay="40.27" arrival="605.00" arrivalLane="nt14_np11_0" arrivalPos="75.00" arrivalSpeed="7.23" duration="442.00" routeLength="951.09" waitingTime="268.00" waitingCount="11" stopTime="0.00" timeLoss="344.27" rerouteNo="0" devices="tripinfo_f_0_3.15" vType="type1" speedFactor="0.82" vaporized=""/>
    <tripinfo id="f_0_2.11" depart="90.00" departLane="np2_nt2_0" departPos="56.50" departSpeed="0.00" departDelay="0.00" arrival="608.00" arrivalLane="nt15_np10_0" arrivalPos="75.00" arrivalSpeed="9.04" duration="518.00" routeLength="894.58" waitingTime="338.00" waitingCount="16" stopTime="0.00" timeLoss="436.57" rerouteNo="0" devices="tripinfo_f_0_2.11" vType="type1" speedFactor="0.92" vaporized=""/>
    <tripinfo id="f_0_0.20" depart="273.00" departLane="np13_nt13_0" departPos="0.65" departSpeed="0.00" departDelay="0.28" arrival="616.00" arrivalLane="nt4_np5_0" arrivalPos="75.00" arrivalSpeed="17.63" duration="343.00" routeLength="1347.24" waitingTime="193.00" waitingCount="9" stopTime="0.00" timeLoss="238.91" rerouteNo="0" devices="tripinfo_f_0_0.20" vType="type1" speedFactor="0.90" vaporized=""/>
    <tripinfo id="f_0_0.21" depart="287.00" departLane="np13_nt13_0" departPos="5.29" departSpeed="0.00" departDelay="0.64" arrival="618.00" arrivalLane="nt4_np5_0" arrivalPos="75.00" arrivalSpeed="21.59" duration="331.00" routeLength="1342.60" waitingTime="184.00" waitingCount="9" stopTime="0.00" timeLoss="251.71" rerouteNo="0" devices="tripinfo_f_0_0.21" vType="type1" speedFactor="1.17" vaporized=""/>
    <tripinfo id="f_0_2.12" depart="99.00" departLane="np2_nt2_0" departPos="1.55" departSpeed="0.00" departDelay="0.82" arrival="632.00" arrivalLane="nt15_np10_0" arrivalPos="75.00" arrivalSpeed="9.90" duration="533.00" routeLength="949.53" waitingTime="331.00" waitingCount="18" stopTime="0.00" timeLoss="459.57" rerouteNo="0" devices="tripinfo_f_0_2.12" vType="type1" speedFactor="1.10" vaporized=""/>
    <tripinfo id="f_0_3.16" depart="197.00" departLane="np3_nt3_0" departPos="2.14" departSpeed="0.00" departDelay="66.09" arrival="642.00" arrivalLane="nt14_np11_0" arrivalPos="75.00" arrivalSpeed="9.97" duration="445.00" routeLength="948.95" waitingTime="280.00" waitingCount="11" stopTime="0.00" timeLoss="372.19" rerouteNo="0" devices="tripinfo_f_0_3.16" vType="type1" speedFactor="1.09" vaporized=""/>
    <tripinfo id="f_0_1.4" depart="55.00" departLane="np16_nt1_0" departPos="49.86" departSpeed="0.00" departDelay="0.46" arrival="643.00" arrivalLane="nt16_np8_0" arrivalPos="75.00" arrivalSpeed="19.24" duration="588.00" routeLength="1298.02" waitingTime="377.00" waitingCount="19" stopTime="0.00" timeLoss="494.00" rerouteNo="0" devices="tripinfo_f_0_1.4" vType="type1" speedFactor="0.97" vaporized=""/>
    <tripinfo id="f_0_1.5" depart="69.00" departLane="np16_nt1_0" departPos="48.28" departSpeed="0.00" departDelay="0.82" arrival="668.00" arrivalLane="nt16_np8_0" arrivalPos="75.00" arrivalSpeed="20.52" duration="599.00" routeLength="1299.60" waitingTime="387.00" waitingCount="22" stopTime="0.00" timeLoss="516.19" rerouteNo="0" devices="tripinfo_f_0_1.5" vType="type1" speedFactor="1.11" vaporized=""/>
    <tripinfo id="f_0_3.17" depart="199.00" departLane="np3_nt3_0" departPos="0.00" departSpeed="0.00" departDelay="59.91" arrival="668.00" arrivalLane="nt14_np11_0" arrivalPos="75.00" arrivalSpeed="8.69" duration="469.00" routeLength="951.09" waitingTime="291.00" waitingCount="13" stopTime="0.00" timeLoss="381.61" rerouteNo="0" devices="tripinfo_f_0_3.17" vType="type1" speedFactor="0.91" vaporized=""/>
    <tripinfo id="f_0_0.22" depart="300.00" departLane="np13_nt13_0" departPos="41.52" departSpeed="0.00" departDelay="0.01" arrival="669.00" arrivalLane="nt4_np5_0" arrivalPos="75.00" arrivalSpeed="18.37" duration="369.00" routeLength="1306.37" waitingTime="224.00" waitingCount="10" stopTime="0.00" timeLoss="278.13" rerouteNo="0" devices="tripinfo_f_0_0.22" vType="type1" speedFactor="1.01" vaporized=""/>
    <tripinfo id="f_0_3.18" depart="237.00" departLane="np3_nt3_0" departPos="0.00" departSpeed="0.00" departDelay="89.72" arrival="670.00" arrivalLane="nt14_np11_0" arrivalPos="75.00" arrivalSpeed="9.77" duration="433.00" routeLength="951.09" waitingTime="259.00" waitingCount="12" stopTime="0.00" timeLoss="357.08" rerouteNo="0" devices="tripinfo_f_0_3.18" vType="type1" speedFactor="1.05" vaporized=""/>
    <tripinfo id="f_0_1.11" depart="150.00" departLane="np16_nt1_0" departPos="56.72" departSpeed="0.00" departDelay="0.00" arrival="670.00" arrivalLane="nt16_np8_0" arrivalPos="75.00" arrivalSpeed="19.78" duration="520.00" routeLength="1291.16" waitingTime="329.00" waitingCount="19" stopTime="0.00" timeLoss="438.67" rerouteNo="0" devices="tripinfo_f_0_1.11" vType="type1" speedFactor="1.11" vaporized=""/>
    <tripinfo id="f_1_0.0" depart="300.00" departLane="np13_nt13_0" departPos="31.04" departSpeed="0.00" departDelay="0.00" arrival="670.00" arrivalLane="nt4_np5_0" arrivalPos="75.00" arrivalSpeed="21.14" duration="370.00" routeLength="1316.85" waitingTime="217.00" waitingCount="9" stopTime="0.00" timeLoss="286.26" rerouteNo="0" devices="tripinfo_f_1_0.0" vType="type1" speedFactor="1.09" vaporized=""/>
    <tripinfo id="f_0_3.19" depart="241.00" departLane="np3_nt3_0" departPos="0.00" departSpeed="0.00" departDelay="85.54" arrival="681.00" arrivalLane="nt14_np11_0" arrivalPos="75.00" arrivalSpeed="11.51" duration="440.00" routeLength="951.09" waitingTime="254.00" waitingCount="13" stopTime="0.00" timeLoss="365.51" rerouteNo="0" devices="tripinfo_f_0_3.19" vType="type1" speedFactor="1.07" vaporized=""/>
    <tripinfo id="f_0_3.20" depart="252.00" departLane="np3_nt3_0" departPos="0.86" departSpeed="0.00" departDelay="88.36" arrival="685.00" arrivalLane="nt14_np11_0" arrivalPos="75.00" arrivalSpeed="9.03" duration="433.00" routeLength="950.23" waitingTime="251.00" waitingCount="11" stopTime="0.00" timeLoss="350.37" rerouteNo="0" devices="tripinfo_f_0_3.20" vType="type1" speedFactor="0.98" vaporized=""/>
    <tripinfo id="f_0_1.12" depart="164.00" departLane="np16_nt1_0" departPos="43.39" departSpeed="0.00" departDelay="0.37" arrival="693.00" arrivalLane="nt16_np8_0" arrivalPos="75.00" arrivalSpeed="20.57" duration="529.00" routeLength="1304.49" waitingTime="323.00" waitingCount="19" stopTime="0.00" timeLoss="442.03" rerouteNo="0" devices="tripinfo_f_0_1.12" vType="type1" speedFactor="1.06" vaporized=""/>
    <tripinfo id="f_1_0.1" depart="308.00" departLane="np13_nt13_0" departPos="8.26" departSpeed="0.00" departDelay="0.19" arrival="694.00" arrivalLane="nt4_np5_0" arrivalPos="75.00" arrivalSpeed="14.18" duration="386.00" routeLength="1339.63" waitingTime="203.00" waitingCount="10" stopTime="0.00" timeLoss="263.91" rerouteNo="0" devices="tripinfo_f_1_0.1" vType="type1" speedFactor="0.76" vaporized=""/>
    <tripinfo id="f_0_3.21" depart="255.00" departLane="np3_nt3_0" departPos="1.05" departSpeed="0.00" departDelay="83.18" arrival="698.00" arrivalLane="nt14_np11_0" arrivalPos="75.00" arrivalSpeed="8.86" duration="443.00" routeLength="950.04" waitingTime="257.00" waitingCount="13" stopTime="0.00" timeLoss="359.75" rerouteNo="0" devices="tripinfo_f_0_3.21" vType="type1" speedFactor="0.97" vaporized=""/>
    <tripinfo id="f_0_2.13" depart="107.00" departLane="np2_nt2_0" departPos="22.69" departSpeed="0.00" departDelay="0.63" arrival="707.00" arrivalLane="nt15_np10_0" arrivalPos="75.00" arrivalSpeed="10.53" duration="600.00" routeLength="928.39" waitingTime="370.00" waitingCount="19" stopTime="0.00" timeLoss="530.41" rerouteNo="0" devices="tripinfo_f_0_2.13" vType="type1" speedFactor="1.13" vaporized=""/>
    <tripinfo id="f_1_0.2" depart="316.00" departLane="np13_nt13_0" departPos="0.51" departSpeed="0.00" departDelay="0.38" arrival="709.00" arrivalLane="nt4_np5_0" arrivalPos="75.00" arrivalSpeed="21.89" duration="393.00" routeLength="1347.38" waitingTime="215.00" waitingCount="11" stopTime="0.00" timeLoss="308.14" rerouteNo="0" devices="tripinfo_f_1_0.2" vType="type1" speedFactor="1.10" vaporized=""/>
    <tripinfo id="f_0_3.22" depart="258.00" departLane="np3_nt3_0" departPos="0.51" departSpeed="0.00" departDelay="78.00" arrival="736.00" arrivalLane="nt14_np11_0" arrivalPos="75.00" arrivalSpeed="11.95" duration="478.00" routeLength="950.58" waitingTime="288.00" waitingCount="13" stopTime="0.00" timeLoss="404.28" rerouteNo="0" devices="tripinfo_f_0_3.22" vType="type1" speedFactor="1.09" vaporized=""/>