<?xml version="1.0" encoding="UTF-8"?>

<!-- generated on 2023-08-30 19:13:06 by Eclipse SUMO libsumo Version 1.18.0
<configuration xmlns:xsi="http://www.w3.org/2001/XMLSchema-instance" xsi:noNamespaceSchemaLocation="http://sumo.dlr.de/xsd/libsumoConfiguration.xsd">

    <input>
        <net-file value="/home/stefan/RESCO/./environments/arterial4x4/arterial4x4.net.xml"/>
        <route-files value="/home/stefan/RESCO/./environments/arterial4x4/arterial4x4_68.rou.xml"/>
    </input>

    <output>
        <tripinfo-output value="/home/stefan/results/RAINBOW-tr0-arterial4x4-0-drq_norm-wait_norm/tripinfo_68.xml"/>
        <tripinfo-output.write-unfinished value="true"/>
    </output>

    <processing>
        <time-to-teleport value="-1"/>
    </processing>

    <report>
        <no-warnings value="True"/>
        <no-step-log value="True"/>
    </report>

    <random_number>
        <random value="true"/>
    </random_number>

</configuration>
-->

<tripinfos xmlns:xsi="http://www.w3.org/2001/XMLSchema-instance" xsi:noNamespaceSchemaLocation="http://sumo.dlr.de/xsd/tripinfo_file.xsd">
    <tripinfo id="f_0_2.0" depart="0.00" departLane="np2_nt2_0" departPos="56.11" departSpeed="0.00" departDelay="0.00" arrival="352.00" arrivalLane="nt15_np10_0" arrivalPos="75.00" arrivalSpeed="9.74" duration="352.00" routeLength="894.97" waitingTime="258.00" waitingCount="3" stopTime="0.00" timeLoss="282.31" rerouteNo="0" devices="tripinfo_f_0_2.0" vType="type1" speedFactor="1.08" vaporized=""/>
    <tripinfo id="f_0_3.0" depart="0.00" departLane="np3_nt3_0" departPos="63.70" departSpeed="0.00" departDelay="0.00" arrival="397.00" arrivalLane="nt14_np11_0" arrivalPos="75.00" arrivalSpeed="9.63" duration="397.00" routeLength="887.39" waitingTime="304.00" waitingCount="5" stopTime="0.00" timeLoss="329.15" rerouteNo="0" devices="tripinfo_f_0_3.0" vType="type1" speedFactor="1.10" vaporized=""/>
    <tripinfo id="f_0_2.1" depart="9.00" departLane="np2_nt2_0" departPos="30.29" departSpeed="0.00" departDelay="0.82" arrival="474.00" arrivalLane="nt15_np10_0" arrivalPos="75.00" arrivalSpeed="9.95" duration="465.00" routeLength="920.79" waitingTime="355.00" waitingCount="4" stopTime="0.00" timeLoss="380.35" rerouteNo="0" devices="tripinfo_f_0_2.1" vType="type1" speedFactor="0.92" vaporized=""/>
    <tripinfo id="f_0_3.1" depart="9.00" departLane="np3_nt3_0" departPos="33.37" departSpeed="0.00" departDelay="0.82" arrival="532.00" arrivalLane="nt14_np11_0" arrivalPos="75.00" arrivalSpeed="9.58" duration="523.00" routeLength="917.72" waitingTime="412.00" waitingCount="7" stopTime="0.00" timeLoss="452.35" rerouteNo="0" devices="tripinfo_f_0_3.1" vType="type1" speedFactor="1.08" vaporized=""/>
    <tripinfo id="f_0_0.0" depart="0.00" departLane="np13_nt13_0" departPos="49.86" departSpeed="0.00" departDelay="0.00" arrival="563.00" arrivalLane="nt4_np5_0" arrivalPos="75.00" arrivalSpeed="19.16" duration="563.00" routeLength="1298.03" waitingTime="440.00" waitingCount="6" stopTime="0.00" timeLoss="479.17" rerouteNo="0" devices="tripinfo_f_0_0.0" vType="type1" speedFactor="1.08" vaporized=""/>
    <tripinfo id="f_0_0.1" depart="14.00" departLane="np13_nt13_0" departPos="57.59" departSpeed="0.00" departDelay="0.36" arrival="628.00" arrivalLane="nt4_np5_0" arrivalPos="75.00" arrivalSpeed="16.08" duration="614.00" routeLength="1290.30" waitingTime="471.00" waitingCount="5" stopTime="0.00" timeLoss="512.97" rerouteNo="0" devices="tripinfo_f_0_0.1" vType="type1" speedFactor="0.90" vaporized=""/>
    <tripinfo id="f_0_2.2" depart="17.00" departLane="np2_nt2_0" departPos="47.09" departSpeed="0.00" departDelay="0.64" arrival="721.00" arrivalLane="nt15_np10_0" arrivalPos="75.00" arrivalSpeed="10.19" duration="704.00" routeLength="903.99" waitingTime="601.00" waitingCount="5" stopTime="0.00" timeLoss="638.49" rerouteNo="0" devices="tripinfo_f_0_2.2" vType="type1" speedFactor="1.15" vaporized=""/>
    <tripinfo id="f_0_2.3" depart="25.00" departLane="np2_nt2_0" departPos="42.91" departSpeed="0.00" departDelay="0.45" arrival="746.00" arrivalLane="nt15_np10_0" arrivalPos="75.00" arrivalSpeed="11.57" duration="721.00" routeLength="908.17" waitingTime="615.00" waitingCount="7" stopTime="0.00" timeLoss="652.79" rerouteNo="0" devices="tripinfo_f_0_2.3" vType="type1" speedFactor="1.11" vaporized=""/>
    <tripinfo id="f_0_0.2" depart="28.00" departLane="np13_nt13_0" departPos="18.03" departSpeed="0.00" departDelay="0.73" arrival="828.00" arrivalLane="nt4_np5_0" arrivalPos="75.00" arrivalSpeed="19.15" duration="800.00" routeLength="1329.86" waitingTime="662.00" waitingCount="9" stopTime="0.00" timeLoss="714.72" rerouteNo="0" devices="tripinfo_f_0_0.2" vType="type1" speedFactor="1.08" vaporized=""/>
    <tripinfo id="f_0_0.3" depart="41.00" departLane="np13_nt13_0" departPos="17.33" departSpeed="0.00" departDelay="0.09" arrival="885.00" arrivalLane="nt4_np5_0" arrivalPos="75.00" arrivalSpeed="19.52" duration="844.00" routeLength="1330.56" waitingTime="698.00" waitingCount="11" stopTime="0.00" timeLoss="757.74" rerouteNo="0" devices="tripinfo_f_0_0.3" vType="type1" speedFactor="1.07" vaporized=""/>
    <tripinfo id="f_0_0.4" depart="55.00" departLane="np13_nt13_0" departPos="39.15" departSpeed="0.00" departDelay="0.46" arrival="898.00" arrivalLane="nt4_np5_0" arrivalPos="75.00" arrivalSpeed="17.04" duration="843.00" routeLength="1308.74" waitingTime="675.00" waitingCount="12" stopTime="0.00" timeLoss="736.75" rerouteNo="0" devices="tripinfo_f_0_0.4" vType="type1" speedFactor="0.86" vaporized=""/>
    <tripinfo id="f_0_3.2" depart="17.00" departLane="np3_nt3_0" departPos="36.75" departSpeed="0.00" departDelay="0.64" arrival="943.00" arrivalLane="nt14_np11_0" arrivalPos="75.00" arrivalSpeed="8.01" duration="926.00" routeLength="914.34" waitingTime="804.00" waitingCount="8" stopTime="0.00" timeLoss="844.08" rerouteNo="0" devices="tripinfo_f_0_3.2" vType="type1" speedFactor="0.93" vaporized=""/>
    <tripinfo id="f_0_2.4" depart="33.00" departLane="np2_nt2_0" departPos="3.90" departSpeed="0.00" departDelay="0.27" arrival="1108.00" arrivalLane="nt15_np10_0" arrivalPos="75.00" arrivalSpeed="8.74" duration="1075.00" routeLength="947.18" waitingTime="954.00" waitingCount="8" stopTime="0.00" timeLoss="994.14" rerouteNo="0" devices="tripinfo_f_0_2.4" vType="type1" speedFactor="0.98" vaporized=""/>
    <tripinfo id="f_0_2.5" depart="41.00" departLane="np2_nt2_0" departPos="17.69" departSpeed="0.00" departDelay="0.09" arrival="1183.00" arrivalLane="nt15_np10_0" arrivalPos="75.00" arrivalSpeed="9.91" duration="1142.00" routeLength="933.39" waitingTime="1009.00" waitingCount="10" stopTime="0.00" timeLoss="1057.03" rerouteNo="0" devices="tripinfo_f_0_2.5" vType="type1" speedFactor="0.92" vaporized=""/>
    <tripinfo id="f_0_2.6" depart="50.00" departLane="np2_nt2_0" departPos="56.29" departSpeed="0.00" departDelay="0.91" arrival="1185.00" arrivalLane="nt15_np10_0" arrivalPos="75.00" arrivalSpeed="12.17" duration="1135.00" routeLength="894.79" waitingTime="1004.00" waitingCount="11" stopTime="0.00" timeLoss="1069.01" rerouteNo="0" devices="tripinfo_f_0_2.6" vType="type1" speedFactor="1.13" vaporized=""/>
    <tripinfo id="f_3_6.0" depart="900.00" departLane="np10_nt15_0" departPos="15.98" departSpeed="0.00" departDelay="0.00" arrival="1191.00" arrivalLane="nt2_np2_0" arrivalPos="64.60" arrivalSpeed="9.88" duration="291.00" routeLength="935.10" waitingTime="184.00" waitingCount="4" stopTime="0.00" timeLoss="213.50" rerouteNo="0" devices="tripinfo_f_3_6.0" vType="type1" speedFactor="1.02" vaporized=""/>
    <tripinfo id="f_3_6.1" depart="913.00" departLane="np10_nt15_0" departPos="63.21" departSpeed="0.00" departDelay="0.00" arrival="1306.00" arrivalLane="nt2_np2_0" arrivalPos="64.60" arrivalSpeed="9.24" duration="393.00" routeLength="887.87" waitingTime="294.00" waitingCount="6" stopTime="0.00" timeLoss="323.52" rerouteNo="0" devices="tripinfo_f_3_6.1" vType="type1" speedFactor="1.06" vaporized=""/>
    <tripinfo id="f_0_3.3" depart="25.00" departLane="np3_nt3_0" departPos="12.64" departSpeed="0.00" departDelay="0.45" arrival="1333.00" arrivalLane="nt14_np11_0" arrivalPos="75.00" arrivalSpeed="8.89" duration="1308.00" routeLength="938.45" waitingTime="1180.00" waitingCount="8" stopTime="0.00" timeLoss="1228.07" rerouteNo="0" devices="tripinfo_f_0_3.3" vType="type1" speedFactor="0.99" vaporized=""/>
    <tripinfo id="f_0_3.4" depart="33.00" departLane="np3_nt3_0" departPos="25.54" departSpeed="0.00" departDelay="0.27" arrival="1335.00" arrivalLane="nt14_np11_0" arrivalPos="75.00" arrivalSpeed="9.77" duration="1302.00" routeLength="925.55" waitingTime="1185.00" waitingCount="7" stopTime="0.00" timeLoss="1223.54" rerouteNo="0" devices="tripinfo_f_0_3.4" vType="type1" speedFactor="0.99" vaporized=""/>
    <tripinfo id="f_0_2.7" depart="58.00" departLane="np2_nt2_0" departPos="29.83" departSpeed="0.00" departDelay="0.73" arrival="1352.00" arrivalLane="nt15_np10_0" arrivalPos="75.00" arrivalSpeed="8.68" duration="1294.00" routeLength="921.25" waitingTime="1155.00" waitingCount="12" stopTime="0.00" timeLoss="1217.21" rerouteNo="0" devices="tripinfo_f_0_2.7" vType="type1" speedFactor="1.00" vaporized=""/>
    <tripinfo id="f_0_0.5" depart="69.00" departLane="np13_nt13_0" departPos="12.17" departSpeed="0.00" departDelay="0.82" arrival="1470.00" arrivalLane="nt4_np5_0" arrivalPos="75.00" arrivalSpeed="14.83" duration="1401.00" routeLength="1335.72" waitingTime="1215.00" waitingCount="11" stopTime="0.00" timeLoss="1288.38" rerouteNo="0" devices="tripinfo_f_0_0.5" vType="type1" speedFactor="0.82" vaporized=""/>
    <tripinfo id="f_0_0.6" depart="82.00" departLane="np13_nt13_0" departPos="13.88" departSpeed="0.00" departDelay="0.18" arrival="1475.00" arrivalLane="nt4_np5_0" arrivalPos="75.00" arrivalSpeed="19.84" duration="1393.00" routeLength="1334.01" waitingTime="1222.00" waitingCount="12" stopTime="0.00" timeLoss="1302.29" rerouteNo="0" devices="tripinfo_f_0_0.6" vType="type1" speedFactor="1.02" vaporized=""/>
    <tripinfo id="f_0_2.8" depart="66.00" departLane="np2_nt2_0" departPos="28.11" departSpeed="0.00" departDelay="0.54" arrival="1527.00" arrivalLane="nt15_np10_0" arrivalPos="75.00" arrivalSpeed="10.81" duration="1461.00" routeLength="922.97" waitingTime="1314.00" waitingCount="12" stopTime="0.00" timeLoss="1384.08" rerouteNo="0" devices="tripinfo_f_0_2.8" vType="type1" speedFactor="1.00" vaporized=""/>
    <tripinfo id="f_3_6.2" depart="926.00" departLane="np10_nt15_0" departPos="61.60" departSpeed="0.00" departDelay="0.01" arrival="1577.00" arrivalLane="nt2_np2_0" arrivalPos="64.60" arrivalSpeed="9.27" duration="651.00" routeLength="889.48" waitingTime="543.00" waitingCount="6" stopTime="0.00" timeLoss="571.16" rerouteNo="0" devices="tripinfo_f_3_6.2" vType="type1" speedFactor="0.93" vaporized=""/>
    <tripinfo id="f_3_6.3" depart="939.00" departLane="np10_nt15_0" departPos="69.24" departSpeed="0.00" departDelay="0.01" arrival="1579.00" arrivalLane="nt2_np2_0" arrivalPos="64.60" arrivalSpeed="10.27" duration="640.00" routeLength="881.84" waitingTime="529.00" waitingCount="7" stopTime="0.00" timeLoss="566.13" rerouteNo="0" devices="tripinfo_f_3_6.3" vType="type1" speedFactor="1.00" vaporized=""/>
    <tripinfo id="f_0_2.9" depart="74.00" departLane="np2_nt2_0" departPos="0.01" departSpeed="0.00" departDelay="0.36" arrival="1627.00" arrivalLane="nt15_np10_0" arrivalPos="75.00" arrivalSpeed="8.77" duration="1553.00" routeLength="951.07" waitingTime="1394.00" waitingCount="13" stopTime="0.00" timeLoss="1474.04" rerouteNo="0" devices="tripinfo_f_0_2.9" vType="type1" speedFactor="1.01" vaporized=""/>
    <tripinfo id="f_0_2.10" depart="82.00" departLane="np2_nt2_0" departPos="11.51" departSpeed="0.00" departDelay="0.18" arrival="1629.00" arrivalLane="nt15_np10_0" arrivalPos="75.00" arrivalSpeed="12.71" duration="1547.00" routeLength="939.57" waitingTime="1383.00" waitingCount="13" stopTime="0.00" timeLoss="1478.98" rerouteNo="0" devices="tripinfo_f_0_2.10" vType="type1" speedFactor="1.16" vaporized=""/>
    <tripinfo id="f_3_6.4" depart="952.00" departLane="np10_nt15_0" departPos="30.73" departSpeed="0.00" departDelay="0.02" arrival="1660.00" arrivalLane="nt2_np2_0" arrivalPos="64.60" arrivalSpeed="7.18" duration="708.00" routeLength="920.35" waitingTime="574.00" waitingCount="7" stopTime="0.00" timeLoss="608.87" rerouteNo="0" devices="tripinfo_f_3_6.4" vType="type1" speedFactor="0.78" vaporized=""/>
    <tripinfo id="f_3_6.5" depart="965.00" departLane="np10_nt15_0" departPos="3.72" departSpeed="0.00" departDelay="0.02" arrival="1693.00" arrivalLane="nt2_np2_0" arrivalPos="64.60" arrivalSpeed="7.85" duration="728.00" routeLength="947.36" waitingTime="589.00" waitingCount="9" stopTime="0.00" timeLoss="634.26" rerouteNo="0" devices="tripinfo_f_3_6.5" vType="type1" speedFactor="0.86" vaporized=""/>
    <tripinfo id="f_3_6.6" depart="978.00" departLane="np10_nt15_0" departPos="1.06" departSpeed="0.00" departDelay="0.02" arrival="1695.00" arrivalLane="nt2_np2_0" arrivalPos="64.60" arrivalSpeed="9.58" duration="717.00" routeLength="950.02" waitingTime="588.00" waitingCount="9" stopTime="0.00" timeLoss="642.57" rerouteNo="0" devices="tripinfo_f_3_6.6" vType="type1" speedFactor="1.08" vaporized=""/>
    <tripinfo id="f_3_5.0" depart="900.00" departLane="np8_nt16_0" departPos="23.83" departSpeed="0.00" departDelay="0.00" arrival="1698.00" arrivalLane="nt1_np16_0" arrivalPos="67.80" arrivalSpeed="19.10" duration="798.00" routeLength="1324.05" waitingTime="672.00" waitingCount="5" stopTime="0.00" timeLoss="705.27" rerouteNo="0" devices="tripinfo_f_3_5.0" vType="type1" speedFactor="1.00" vaporized=""/>
    <tripinfo id="f_3_5.1" depart="922.00" departLane="np8_nt16_0" departPos="26.05" departSpeed="0.00" departDelay="0.31" arrival="1706.00" arrivalLane="nt1_np16_0" arrivalPos="67.80" arrivalSpeed="16.40" duration="784.00" routeLength="1321.83" waitingTime="644.00" waitingCount="5" stopTime="0.00" timeLoss="678.13" rerouteNo="0" devices="tripinfo_f_3_5.1" vType="type1" speedFactor="0.87" vaporized=""/>
    <tripinfo id="f_0_3.5" depart="41.00" departLane="np3_nt3_0" departPos="10.36" departSpeed="0.00" departDelay="0.09" arrival="1738.00" arrivalLane="nt14_np11_0" arrivalPos="75.00" arrivalSpeed="9.47" duration="1697.00" routeLength="940.73" waitingTime="1573.00" waitingCount="8" stopTime="0.00" timeLoss="1615.57" rerouteNo="0" devices="tripinfo_f_0_3.5" vType="type1" speedFactor="0.98" vaporized=""/>
    <tripinfo id="f_0_3.6" depart="50.00" departLane="np3_nt3_0" departPos="16.03" departSpeed="0.00" departDelay="0.91" arrival="1740.00" arrivalLane="nt14_np11_0" arrivalPos="75.00" arrivalSpeed="10.28" duration="1690.00" routeLength="935.06" waitingTime="1565.00" waitingCount="9" stopTime="0.00" timeLoss="1607.23" rerouteNo="0" devices="tripinfo_f_0_3.6" vType="type1" speedFactor="0.95" vaporized=""/>
    <tripinfo id="f_3_4.0" depart="900.00" departLane="np5_nt4_0" departPos="46.01" departSpeed="0.00" departDelay="0.00" arrival="1820.00" arrivalLane="nt13_np13_1" arrivalPos="67.80" arrivalSpeed="15.75" duration="920.00" routeLength="1301.88" waitingTime="774.00" waitingCount="7" stopTime="0.00" timeLoss="814.99" rerouteNo="0" devices="tripinfo_f_3_4.0" vType="type1" speedFactor="0.87" vaporized=""/>
    <tripinfo id="f_3_4.1" depart="922.00" departLane="np5_nt4_0" departPos="50.51" departSpeed="0.00" departDelay="0.31" arrival="1844.00" arrivalLane="nt13_np13_1" arrivalPos="67.80" arrivalSpeed="15.01" duration="922.00" routeLength="1297.38" waitingTime="756.00" waitingCount="9" stopTime="0.00" timeLoss="805.90" rerouteNo="0" devices="tripinfo_f_3_4.1" vType="type1" speedFactor="0.78" vaporized=""/>
    <tripinfo id="f_3_6.7" depart="991.00" departLane="np10_nt15_0" departPos="52.74" departSpeed="0.00" departDelay="0.03" arrival="1892.00" arrivalLane="nt2_np2_0" arrivalPos="64.60" arrivalSpeed="8.09" duration="901.00" routeLength="898.34" waitingTime="762.00" waitingCount="11" stopTime="0.00" timeLoss="816.94" rerouteNo="0" devices="tripinfo_f_3_6.7" vType="type1" speedFactor="0.90" vaporized=""/>
    <tripinfo id="f_3_6.8" depart="1004.00" departLane="np10_nt15_0" departPos="52.06" departSpeed="0.00" departDelay="0.03" arrival="1894.00" arrivalLane="nt2_np2_0" arrivalPos="64.60" arrivalSpeed="10.89" duration="890.00" routeLength="899.02" waitingTime="757.00" waitingCount="10" stopTime="0.00" timeLoss="815.43" rerouteNo="0" devices="tripinfo_f_3_6.8" vType="type1" speedFactor="1.01" vaporized=""/>
    <tripinfo id="f_3_6.9" depart="1017.00" departLane="np10_nt15_0" departPos="51.38" departSpeed="0.00" departDelay="0.04" arrival="1901.00" arrivalLane="nt2_np2_0" arrivalPos="64.60" arrivalSpeed="9.84" duration="884.00" routeLength="899.70" waitingTime="745.00" waitingCount="12" stopTime="0.00" timeLoss="805.49" rerouteNo="0" devices="tripinfo_f_3_6.9" vType="type1" speedFactor="0.96" vaporized=""/>
    <tripinfo id="f_0_3.7" depart="58.00" departLane="np3_nt3_0" departPos="9.47" departSpeed="0.00" departDelay="0.73" arrival="1902.00" arrivalLane="nt14_np11_0" arrivalPos="75.00" arrivalSpeed="10.74" duration="1844.00" routeLength="941.62" waitingTime="1708.00" waitingCount="10" stopTime="0.00" timeLoss="1764.37" rerouteNo="0" devices="tripinfo_f_0_3.7" vType="type1" speedFactor="1.00" vaporized=""/>
    <tripinfo id="f_3_6.10" depart="1030.00" departLane="np10_nt15_0" departPos="60.28" departSpeed="0.00" departDelay="0.04" arrival="1904.00" arrivalLane="nt2_np2_0" arrivalPos="64.60" arrivalSpeed="8.10" duration="874.00" routeLength="890.80" waitingTime="729.00" waitingCount="12" stopTime="0.00" timeLoss="795.45" rerouteNo="0" devices="tripinfo_f_3_6.10" vType="type1" speedFactor="0.95" vaporized=""/>
    <tripinfo id="f_0_3.8" depart="66.00" departLane="np3_nt3_0" departPos="0.00" departSpeed="0.00" departDelay="0.54" arrival="1906.00" arrivalLane="nt14_np11_0" arrivalPos="75.00" arrivalSpeed="9.33" duration="1840.00" routeLength="951.09" waitingTime="1688.00" waitingCount="12" stopTime="0.00" timeLoss="1745.93" rerouteNo="0" devices="tripinfo_f_0_3.8" vType="type1" speedFactor="0.85" vaporized=""/>
    <tripinfo id="f_3_6.11" depart="1043.00" departLane="np10_nt15_0" departPos="17.14" departSpeed="0.00" departDelay="0.04" arrival="1908.00" arrivalLane="nt2_np2_0" arrivalPos="64.60" arrivalSpeed="8.88" duration="865.00" routeLength="933.94" waitingTime="716.00" waitingCount="10" stopTime="0.00" timeLoss="770.27" rerouteNo="0" devices="tripinfo_f_3_6.11" vType="type1" speedFactor="0.83" vaporized=""/>
    <tripinfo id="f_3_6.12" depart="1056.00" departLane="np10_nt15_0" departPos="14.21" departSpeed="0.00" departDelay="0.05" arrival="1909.00" arrivalLane="nt2_np2_0" arrivalPos="64.60" arrivalSpeed="12.37" duration="853.00" routeLength="936.87" waitingTime="719.00" waitingCount="10" stopTime="0.00" timeLoss="784.90" rerouteNo="0" devices="tripinfo_f_3_6.12" vType="type1" speedFactor="1.15" vaporized=""/>
    <tripinfo id="f_3_6.13" depart="1069.00" departLane="np10_nt15_0" departPos="44.41" departSpeed="0.00" departDelay="0.05" arrival="1911.00" arrivalLane="nt2_np2_0" arrivalPos="64.60" arrivalSpeed="10.11" duration="842.00" routeLength="906.67" waitingTime="706.00" waitingCount="11" stopTime="0.00" timeLoss="765.06" rerouteNo="0" devices="tripinfo_f_3_6.13" vType="type1" speedFactor="0.99" vaporized=""/>
    <tripinfo id="f_0_2.11" depart="90.00" departLane="np2_nt2_0" departPos="26.88" departSpeed="0.00" departDelay="0.00" arrival="1922.00" arrivalLane="nt15_np10_0" arrivalPos="75.00" arrivalSpeed="10.44" duration="1832.00" routeLength="924.20" waitingTime="1669.00" waitingCount="12" stopTime="0.00" timeLoss="1754.35" rerouteNo="0" devices="tripinfo_f_0_2.11" vType="type1" speedFactor="1.00" vaporized=""/>
    <tripinfo id="f_0_2.12" depart="99.00" departLane="np2_nt2_0" departPos="26.17" departSpeed="0.00" departDelay="0.82" arrival="1924.00" arrivalLane="nt15_np10_0" arrivalPos="75.00" arrivalSpeed="12.01" duration="1825.00" routeLength="924.91" waitingTime="1659.00" waitingCount="14" stopTime="0.00" timeLoss="1755.95" rerouteNo="0" devices="tripinfo_f_0_2.12" vType="type1" speedFactor="1.12" vaporized=""/>
    <tripinfo id="f_3_5.2" depart="944.00" departLane="np8_nt16_0" departPos="43.85" departSpeed="0.00" departDelay="0.63" arrival="2012.00" arrivalLane="nt1_np16_0" arrivalPos="67.80" arrivalSpeed="18.85" duration="1068.00" routeLength="1304.03" waitingTime="940.00" waitingCount="5" stopTime="0.00" timeLoss="974.19" rerouteNo="0" devices="tripinfo_f_3_5.2" vType="type1" speedFactor="0.97" vaporized=""/>
    <tripinfo id="f_3_5.3" depart="966.00" departLane="np8_nt16_0" departPos="18.71" departSpeed="0.00" departDelay="0.94" arrival="2014.00" arrivalLane="nt1_np16_0" arrivalPos="67.80" arrivalSpeed="16.50" duration="1048.00" routeLength="1329.17" waitingTime="905.00" waitingCount="6" stopTime="0.00" timeLoss="946.91" rerouteNo="0" devices="tripinfo_f_3_5.3" vType="type1" speedFactor="0.91" vaporized=""/>
    <tripinfo id="f_3_4.2" depart="944.00" departLane="np5_nt4_0" departPos="38.61" departSpeed="0.00" departDelay="0.63" arrival="2029.00" arrivalLane="nt13_np13_1" arrivalPos="67.80" arrivalSpeed="19.39" duration="1085.00" routeLength="1309.28" waitingTime="946.00" waitingCount="8" stopTime="0.00" timeLoss="997.08" rerouteNo="0" devices="tripinfo_f_3_4.2" vType="type1" speedFactor="1.04" vaporized=""/>
    <tripinfo id="f_3_6.14" depart="1082.00" departLane="np10_nt15_0" departPos="11.71" departSpeed="0.00" departDelay="0.06" arrival="2084.00" arrivalLane="nt2_np2_0" arrivalPos="64.60" arrivalSpeed="11.01" duration="1002.00" routeLength="939.37" waitingTime="868.00" waitingCount="10" stopTime="0.00" timeLoss="928.92" rerouteNo="0" devices="tripinfo_f_3_6.14" vType="type1" speedFactor="1.08" vaporized=""/>
    <tripinfo id="f_3_6.15" depart="1095.00" departLane="np10_nt15_0" departPos="1.56" departSpeed="0.00" departDelay="0.06" arrival="2086.00" arrivalLane="nt2_np2_0" arrivalPos="64.60" arrivalSpeed="11.79" duration="991.00" routeLength="949.52" waitingTime="853.00" waitingCount="10" stopTime="0.00" timeLoss="925.58" rerouteNo="0" devices="tripinfo_f_3_6.15" vType="type1" speedFactor="1.23" vaporized=""/>
    <tripinfo id="f_0_2.13" depart="107.00" departLane="np2_nt2_0" departPos="25.91" departSpeed="0.00" departDelay="0.63" arrival="2104.00" arrivalLane="nt15_np10_0" arrivalPos="75.00" arrivalSpeed="7.15" duration="1997.00" routeLength="925.17" waitingTime="1821.00" waitingCount="13" stopTime="0.00" timeLoss="1909.07" rerouteNo="0" devices="tripinfo_f_0_2.13" vType="type1" speedFactor="0.87" vaporized=""/>
    <tripinfo id="f_0_3.9" depart="107.00" departLane="np3_nt3_0" departPos="0.92" departSpeed="0.00" departDelay="33.36" arrival="2107.00" arrivalLane="nt14_np11_0" arrivalPos="75.00" arrivalSpeed="9.86" duration="2000.00" routeLength="950.17" waitingTime="1847.00" waitingCount="14" stopTime="0.00" timeLoss="1925.17" rerouteNo="0" devices="tripinfo_f_0_3.9" vType="type1" speedFactor="1.07" vaporized=""/>
    <tripinfo id="f_0_3.10" depart="109.00" departLane="np3_nt3_0" departPos="0.00" departSpeed="0.00" departDelay="27.18" arrival="2110.00" arrivalLane="nt14_np11_0" arrivalPos="75.00" arrivalSpeed="10.46" duration="2001.00" routeLength="951.09" waitingTime="1840.00" waitingCount="15" stopTime="0.00" timeLoss="1918.37" rerouteNo="0" devices="tripinfo_f_0_3.10" vType="type1" speedFactor="0.97" vaporized=""/>
    <tripinfo id="f_0_3.11" depart="112.00" departLane="np3_nt3_0" departPos="0.00" departSpeed="0.00" departDelay="22.00" arrival="2173.00" arrivalLane="nt14_np11_0" arrivalPos="75.00" arrivalSpeed="11.00" duration="2061.00" routeLength="951.09" waitingTime="1890.00" waitingCount="18" stopTime="0.00" timeLoss="1981.51" rerouteNo="0" devices="tripinfo_f_0_3.11" vType="type1" speedFactor="1.01" vaporized=""/>
    <tripinfo id="f_0_0.7" depart="96.00" departLane="np13_nt13_0" departPos="32.70" departSpeed="0.00" departDelay="0.55" arrival="2198.00" arrivalLane="nt4_np5_0" arrivalPos="75.00" arrivalSpeed="18.42" duration="2102.00" routeLength="1315.19" waitingTime="1941.00" waitingCount="14" stopTime="0.00" timeLoss="2009.00" rerouteNo="0" devices="tripinfo_f_0_0.7" vType="type1" speedFactor="0.98" vaporized=""/>
    <tripinfo id="f_0_2.14" depart="115.00" departLane="np2_nt2_0" departPos="53.07" departSpeed="0.00" departDelay="0.45" arrival="2207.00" arrivalLane="nt15_np10_0" arrivalPos="75.00" arrivalSpeed="11.27" duration="2092.00" routeLength="898.01" waitingTime="1918.00" waitingCount="13" stopTime="0.00" timeLoss="2018.91" rerouteNo="0" devices="tripinfo_f_0_2.14" vType="type1" speedFactor="1.03" vaporized=""/>
    <tripinfo id="f_0_2.15" depart="123.00" departLane="np2_nt2_0" departPos="28.53" departSpeed="0.00" departDelay="0.27" arrival="2217.00" arrivalLane="nt15_np10_0" arrivalPos="75.00" arrivalSpeed="9.77" duration="2094.00" routeLength="922.55" waitingTime="1911.00" waitingCount="13" stopTime="0.00" timeLoss="2015.45" rerouteNo="0" devices="tripinfo_f_0_2.15" vType="type1" speedFactor="0.98" vaporized=""/>
    <tripinfo id="f_0_3.12" depart="116.00" departLane="np3_nt3_0" departPos="0.00" departSpeed="0.00" departDelay="17.82" arrival="2237.00" arrivalLane="nt14_np11_0" arrivalPos="75.00" arrivalSpeed="10.55" duration="2121.00" routeLength="951.09" waitingTime="1936.00" waitingCount="21" stopTime="0.00" timeLoss="2043.20" rerouteNo="0" devices="tripinfo_f_0_3.12" vType="type1" speedFactor="1.03" vaporized=""/>
    <tripinfo id="f_0_3.20" depart="890.00" departLane="np3_nt3_0" departPos="63.05" departSpeed="0.00" departDelay="726.36" arrival="2253.00" arrivalLane="nt14_np11_0" arrivalPos="75.00" arrivalSpeed="10.01" duration="1363.00" routeLength="888.04" waitingTime="1205.00" waitingCount="17" stopTime="0.00" timeLoss="1285.97" rerouteNo="0" devices="tripinfo_f_0_3.20" vType="type1" speedFactor="0.97" vaporized=""/>
    <tripinfo id="f_0_3.13" depart="529.00" departLane="np3_nt3_0" departPos="1.50" departSpeed="0.00" departDelay="422.63" arrival="2255.00" arrivalLane="nt14_np11_0" arrivalPos="75.00" arrivalSpeed="10.43" duration="1726.00" routeLength="949.59" waitingTime="1517.00" waitingCount="23" stopTime="0.00" timeLoss="1647.80" rerouteNo="0" devices="tripinfo_f_0_3.13" vType="type1" speedFactor="1.02" vaporized=""/>
    <tripinfo id="f_0_2.16" depart="131.00" departLane="np2_nt2_0" departPos="4.97" departSpeed="0.00" departDelay="0.09" arrival="2348.00" arrivalLane="nt15_np10_0" arrivalPos="75.00" arrivalSpeed="8.60" duration="2217.00" routeLength="946.11" waitingTime="2007.00" waitingCount="14" stopTime="0.00" timeLoss="2127.37" rerouteNo="0" devices="tripinfo_f_0_2.16" vType="type1" speedFactor="0.89" vaporized=""/>
    <tripinfo id="f_0_3.14" depart="618.00" departLane="np3_nt3_0" departPos="0.00" departSpeed="0.00" departDelay="503.45" arrival="2355.00" arrivalLane="nt14_np11_0" arrivalPos="75.00" arrivalSpeed="6.53" duration="1737.00" routeLength="951.09" waitingTime="1522.00" waitingCount="22" stopTime="0.00" timeLoss="1637.24" rerouteNo="0" devices="tripinfo_f_0_3.14" vType="type1" speedFactor="0.80" vaporized=""/>
    <tripinfo id="f_0_1.0" depart="0.00" departLane="np16_nt1_0" departPos="16.52" departSpeed="0.00" departDelay="0.00" arrival="2415.00" arrivalLane="nt16_np8_0" arrivalPos="75.00" arrivalSpeed="12.96" duration="2415.00" routeLength="1331.36" waitingTime="2175.00" waitingCount="14" stopTime="0.00" timeLoss="2284.98" rerouteNo="0" devices="tripinfo_f_0_1.0" vType="type1" speedFactor="0.71" vaporized=""/>
    <tripinfo id="f_3_6.16" depart="1108.00" departLane="np10_nt15_0" departPos="36.65" departSpeed="0.00" departDelay="0.06" arrival="2572.00" arrivalLane="nt2_np2_0" arrivalPos="64.60" arrivalSpeed="8.47" duration="1464.00" routeLength="914.43" waitingTime="1313.00" waitingCount="11" stopTime="0.00" timeLoss="1381.73" rerouteNo="0" devices="tripinfo_f_3_6.16" vType="type1" speedFactor="0.93" vaporized=""/>
    <tripinfo id="f_0_3.15" depart="737.00" departLane="np3_nt3_0" departPos="0.00" departSpeed="0.00" departDelay="614.27" arrival="2598.00" arrivalLane="nt14_np11_0" arrivalPos="75.00" arrivalSpeed="10.01" duration="1861.00" routeLength="951.09" waitingTime="1635.00" waitingCount="23" stopTime="0.00" timeLoss="1775.31" rerouteNo="0" devices="tripinfo_f_0_3.15" vType="type1" speedFactor="0.93" vaporized=""/>
    <tripinfo id="f_0_0.8" depart="110.00" departLane="np13_nt13_0" departPos="47.77" departSpeed="0.00" departDelay="0.91" arrival="2648.00" arrivalLane="nt4_np5_0" arrivalPos="75.00" arrivalSpeed="20.52" duration="2538.00" routeLength="1300.12" waitingTime="2372.00" waitingCount="14" stopTime="0.00" timeLoss="2454.44" rerouteNo="0" devices="tripinfo_f_0_0.8" vType="type1" speedFactor="1.08" vaporized=""/>
    <tripinfo id="f_0_0.9" depart="123.00" departLane="np13_nt13_0" departPos="3.42" departSpeed="0.00" departDelay="0.28" arrival="2651.00" arrivalLane="nt4_np5_0" arrivalPos="75.00" arrivalSpeed="20.52" duration="2528.00" routeLength="1344.47" waitingTime="2360.00" waitingCount="16" stopTime="0.00" timeLoss="2442.03" rerouteNo="0" devices="tripinfo_f_0_0.9" vType="type1" speedFactor="1.09" vaporized=""/>
    <tripinfo id="f_3_4.3" depart="966.00" departLane="np5_nt4_0" departPos="49.17" departSpeed="0.00" departDelay="0.94" arrival="2775.00" arrivalLane="nt13_np13_1" arrivalPos="67.80" arrivalSpeed="16.43" duration="1809.00" routeLength="1298.72" waitingTime="1645.00" waitingCount="11" stopTime="0.00" timeLoss="1707.85" rerouteNo="0" devices="tripinfo_f_3_4.3" vType="type1" speedFactor="0.90" vaporized=""/>