<?xml version="1.0" encoding="UTF-8"?>

<!-- generated on 2023-08-30 18:54:59 by Eclipse SUMO libsumo Version 1.18.0
<configuration xmlns:xsi="http://www.w3.org/2001/XMLSchema-instance" xsi:noNamespaceSchemaLocation="http://sumo.dlr.de/xsd/libsumoConfiguration.xsd">

    <input>
        <net-file value="/home/stefan/RESCO/./environments/arterial4x4/arterial4x4.net.xml"/>
        <route-files value="/home/stefan/RESCO/./environments/arterial4x4/arterial4x4_53.rou.xml"/>
    </input>

    <output>
        <tripinfo-output value="/home/stefan/results/RAINBOW-tr0-arterial4x4-0-drq_norm-wait_norm/tripinfo_53.xml"/>
        <tripinfo-output.write-unfinished value="true"/>
    </output>

    <processing>
        <time-to-teleport value="-1"/>
    </processing>

    <report>
        <no-warnings value="True"/>
        <no-step-log value="True"/>
    </report>

    <random_number>
        <random value="true"/>
    </random_number>

</configuration>
-->

<tripinfos xmlns:xsi="http://www.w3.org/2001/XMLSchema-instance" xsi:noNamespaceSchemaLocation="http://sumo.dlr.de/xsd/tripinfo_file.xsd">
    <tripinfo id="f_0_2.0" depart="0.00" departLane="np2_nt2_0" departPos="53.02" departSpeed="0.00" departDelay="0.00" arrival="292.00" arrivalLane="nt15_np10_0" arrivalPos="75.00" arrivalSpeed="9.25" duration="292.00" routeLength="898.06" waitingTime="193.00" waitingCount="5" stopTime="0.00" timeLoss="218.60" rerouteNo="0" devices="tripinfo_f_0_2.0" vType="type1" speedFactor="1.02" vaporized=""/>
    <tripinfo id="f_0_1.0" depart="0.00" departLane="np16_nt1_0" departPos="36.56" departSpeed="0.00" departDelay="0.00" arrival="301.00" arrivalLane="nt16_np8_0" arrivalPos="75.00" arrivalSpeed="19.70" duration="301.00" routeLength="1311.32" waitingTime="187.00" waitingCount="6" stopTime="0.00" timeLoss="215.74" rerouteNo="0" devices="tripinfo_f_0_1.0" vType="type1" speedFactor="1.08" vaporized=""/>
    <tripinfo id="f_0_2.1" depart="9.00" departLane="np2_nt2_0" departPos="35.70" departSpeed="0.00" departDelay="0.82" arrival="323.00" arrivalLane="nt15_np10_0" arrivalPos="75.00" arrivalSpeed="8.26" duration="314.00" routeLength="915.38" waitingTime="197.00" waitingCount="7" stopTime="0.00" timeLoss="230.63" rerouteNo="0" devices="tripinfo_f_0_2.1" vType="type1" speedFactor="0.93" vaporized=""/>
    <tripinfo id="f_0_1.1" depart="14.00" departLane="np16_nt1_0" departPos="46.35" departSpeed="0.00" departDelay="0.36" arrival="338.00" arrivalLane="nt16_np8_0" arrivalPos="75.00" arrivalSpeed="20.96" duration="324.00" routeLength="1301.53" waitingTime="194.00" waitingCount="8" stopTime="0.00" timeLoss="243.77" rerouteNo="0" devices="tripinfo_f_0_1.1" vType="type1" speedFactor="1.14" vaporized=""/>
    <tripinfo id="f_0_0.0" depart="0.00" departLane="np13_nt13_0" departPos="2.29" departSpeed="0.00" departDelay="0.00" arrival="341.00" arrivalLane="nt4_np5_0" arrivalPos="75.00" arrivalSpeed="17.17" duration="341.00" routeLength="1345.60" waitingTime="215.00" waitingCount="4" stopTime="0.00" timeLoss="242.94" rerouteNo="0" devices="tripinfo_f_0_0.0" vType="type1" speedFactor="0.95" vaporized=""/>
    <tripinfo id="f_0_3.0" depart="0.00" departLane="np3_nt3_0" departPos="46.70" departSpeed="0.00" departDelay="0.00" arrival="341.00" arrivalLane="nt14_np11_0" arrivalPos="75.00" arrivalSpeed="10.26" duration="341.00" routeLength="904.39" waitingTime="249.00" waitingCount="4" stopTime="0.00" timeLoss="272.95" rerouteNo="0" devices="tripinfo_f_0_3.0" vType="type1" speedFactor="1.11" vaporized=""/>
    <tripinfo id="f_0_0.1" depart="14.00" departLane="np13_nt13_0" departPos="52.30" departSpeed="0.00" departDelay="0.36" arrival="359.00" arrivalLane="nt4_np5_0" arrivalPos="75.00" arrivalSpeed="20.87" duration="345.00" routeLength="1295.59" waitingTime="218.00" waitingCount="5" stopTime="0.00" timeLoss="257.85" rerouteNo="0" devices="tripinfo_f_0_0.1" vType="type1" speedFactor="1.05" vaporized=""/>
    <tripinfo id="f_0_3.1" depart="9.00" departLane="np3_nt3_0" departPos="9.24" departSpeed="0.00" departDelay="0.82" arrival="397.00" arrivalLane="nt14_np11_0" arrivalPos="75.00" arrivalSpeed="11.02" duration="388.00" routeLength="941.85" waitingTime="284.00" waitingCount="5" stopTime="0.00" timeLoss="311.69" rerouteNo="0" devices="tripinfo_f_0_3.1" vType="type1" speedFactor="1.04" vaporized=""/>
    <tripinfo id="f_0_0.2" depart="28.00" departLane="np13_nt13_0" departPos="49.93" departSpeed="0.00" departDelay="0.73" arrival="398.00" arrivalLane="nt4_np5_0" arrivalPos="75.00" arrivalSpeed="19.93" duration="370.00" routeLength="1297.96" waitingTime="233.00" waitingCount="8" stopTime="0.00" timeLoss="280.70" rerouteNo="0" devices="tripinfo_f_0_0.2" vType="type1" speedFactor="1.02" vaporized=""/>
    <tripinfo id="f_0_0.3" depart="41.00" departLane="np13_nt13_0" departPos="33.87" departSpeed="0.00" departDelay="0.09" arrival="400.00" arrivalLane="nt4_np5_0" arrivalPos="75.00" arrivalSpeed="17.77" duration="359.00" routeLength="1314.02" waitingTime="218.00" waitingCount="5" stopTime="0.00" timeLoss="257.71" rerouteNo="0" devices="tripinfo_f_0_0.3" vType="type1" speedFactor="0.91" vaporized=""/>
    <tripinfo id="f_0_3.2" depart="17.00" departLane="np3_nt3_0" departPos="29.81" departSpeed="0.00" departDelay="0.64" arrival="412.00" arrivalLane="nt14_np11_0" arrivalPos="75.00" arrivalSpeed="9.67" duration="395.00" routeLength="921.28" waitingTime="283.00" waitingCount="7" stopTime="0.00" timeLoss="321.04" rerouteNo="0" devices="tripinfo_f_0_3.2" vType="type1" speedFactor="1.04" vaporized=""/>
    <tripinfo id="f_0_3.3" depart="25.00" departLane="np3_nt3_0" departPos="11.78" departSpeed="0.00" departDelay="0.45" arrival="415.00" arrivalLane="nt14_np11_0" arrivalPos="75.00" arrivalSpeed="9.14" duration="390.00" routeLength="939.31" waitingTime="267.00" waitingCount="8" stopTime="0.00" timeLoss="307.94" rerouteNo="0" devices="tripinfo_f_0_3.3" vType="type1" speedFactor="0.96" vaporized=""/>
    <tripinfo id="f_0_0.4" depart="55.00" departLane="np13_nt13_0" departPos="37.39" departSpeed="0.00" departDelay="0.46" arrival="428.00" arrivalLane="nt4_np5_0" arrivalPos="75.00" arrivalSpeed="21.66" duration="373.00" routeLength="1310.50" waitingTime="256.00" waitingCount="4" stopTime="0.00" timeLoss="292.76" rerouteNo="0" devices="tripinfo_f_0_0.4" vType="type1" speedFactor="1.14" vaporized=""/>
    <tripinfo id="f_0_3.4" depart="33.00" departLane="np3_nt3_0" departPos="8.79" departSpeed="0.00" departDelay="0.27" arrival="432.00" arrivalLane="nt14_np11_0" arrivalPos="75.00" arrivalSpeed="9.64" duration="399.00" routeLength="942.30" waitingTime="277.00" waitingCount="6" stopTime="0.00" timeLoss="323.71" rerouteNo="0" devices="tripinfo_f_0_3.4" vType="type1" speedFactor="1.05" vaporized=""/>
    <tripinfo id="f_0_0.5" depart="69.00" departLane="np13_nt13_0" departPos="54.45" departSpeed="0.00" departDelay="0.82" arrival="433.00" arrivalLane="nt4_np5_0" arrivalPos="75.00" arrivalSpeed="18.10" duration="364.00" routeLength="1293.44" waitingTime="239.00" waitingCount="5" stopTime="0.00" timeLoss="273.07" rerouteNo="0" devices="tripinfo_f_0_0.5" vType="type1" speedFactor="1.00" vaporized=""/>
    <tripinfo id="f_0_3.11" depart="103.00" departLane="np3_nt3_0" departPos="62.49" departSpeed="0.00" departDelay="13.00" arrival="489.00" arrivalLane="nt14_np11_0" arrivalPos="75.00" arrivalSpeed="11.56" duration="386.00" routeLength="888.60" waitingTime="277.00" waitingCount="6" stopTime="0.00" timeLoss="320.81" rerouteNo="0" devices="tripinfo_f_0_3.11" vType="type1" speedFactor="1.14" vaporized=""/>
    <tripinfo id="f_0_3.5" depart="41.00" departLane="np3_nt3_0" departPos="24.18" departSpeed="0.00" departDelay="0.09" arrival="492.00" arrivalLane="nt14_np11_0" arrivalPos="75.00" arrivalSpeed="11.71" duration="451.00" routeLength="926.91" waitingTime="314.00" waitingCount="7" stopTime="0.00" timeLoss="379.84" rerouteNo="0" devices="tripinfo_f_0_3.5" vType="type1" speedFactor="1.09" vaporized=""/>
    <tripinfo id="f_0_3.6" depart="50.00" departLane="np3_nt3_0" departPos="4.75" departSpeed="0.00" departDelay="0.91" arrival="557.00" arrivalLane="nt14_np11_0" arrivalPos="75.00" arrivalSpeed="9.14" duration="507.00" routeLength="946.34" waitingTime="352.00" waitingCount="10" stopTime="0.00" timeLoss="430.55" rerouteNo="0" devices="tripinfo_f_0_3.6" vType="type1" speedFactor="1.04" vaporized=""/>
    <tripinfo id="f_0_3.7" depart="58.00" departLane="np3_nt3_0" departPos="0.00" departSpeed="0.00" departDelay="0.73" arrival="559.00" arrivalLane="nt14_np11_0" arrivalPos="75.00" arrivalSpeed="9.90" duration="501.00" routeLength="951.09" waitingTime="340.00" waitingCount="9" stopTime="0.00" timeLoss="429.17" rerouteNo="0" devices="tripinfo_f_0_3.7" vType="type1" speedFactor="1.11" vaporized=""/>
    <tripinfo id="f_0_0.6" depart="82.00" departLane="np13_nt13_0" departPos="48.36" departSpeed="0.00" departDelay="0.18" arrival="614.00" arrivalLane="nt4_np5_0" arrivalPos="75.00" arrivalSpeed="15.60" duration="532.00" routeLength="1299.53" waitingTime="387.00" waitingCount="6" stopTime="0.00" timeLoss="429.76" rerouteNo="0" devices="tripinfo_f_0_0.6" vType="type1" speedFactor="0.89" vaporized=""/>
    <tripinfo id="f_0_0.7" depart="96.00" departLane="np13_nt13_0" departPos="59.56" departSpeed="0.00" departDelay="0.55" arrival="618.00" arrivalLane="nt4_np5_0" arrivalPos="75.00" arrivalSpeed="16.60" duration="522.00" routeLength="1288.33" waitingTime="381.00" waitingCount="9" stopTime="0.00" timeLoss="426.15" rerouteNo="0" devices="tripinfo_f_0_0.7" vType="type1" speedFactor="0.94" vaporized=""/>
    <tripinfo id="f_0_0.8" depart="110.00" departLane="np13_nt13_0" departPos="19.64" departSpeed="0.00" departDelay="0.91" arrival="620.00" arrivalLane="nt4_np5_0" arrivalPos="75.00" arrivalSpeed="21.04" duration="510.00" routeLength="1328.25" waitingTime="368.00" waitingCount="9" stopTime="0.00" timeLoss="427.36" rerouteNo="0" devices="tripinfo_f_0_0.8" vType="type1" speedFactor="1.12" vaporized=""/>
    <tripinfo id="f_0_0.9" depart="123.00" departLane="np13_nt13_0" departPos="35.32" departSpeed="0.00" departDelay="0.28" arrival="632.00" arrivalLane="nt4_np5_0" arrivalPos="75.00" arrivalSpeed="15.54" duration="509.00" routeLength="1312.57" waitingTime="339.00" waitingCount="8" stopTime="0.00" timeLoss="394.38" rerouteNo="0" devices="tripinfo_f_0_0.9" vType="type1" speedFactor="0.80" vaporized=""/>
    <tripinfo id="f_0_0.10" depart="137.00" departLane="np13_nt13_0" departPos="60.53" departSpeed="0.00" departDelay="0.64" arrival="633.00" arrivalLane="nt4_np5_0" arrivalPos="75.00" arrivalSpeed="15.72" duration="496.00" routeLength="1287.36" waitingTime="332.00" waitingCount="8" stopTime="0.00" timeLoss="405.38" rerouteNo="0" devices="tripinfo_f_0_0.10" vType="type1" speedFactor="0.99" vaporized=""/>
    <tripinfo id="f_0_0.11" depart="150.00" departLane="np13_nt13_0" departPos="61.08" departSpeed="0.00" departDelay="0.00" arrival="635.00" arrivalLane="nt4_np5_0" arrivalPos="75.00" arrivalSpeed="18.92" duration="485.00" routeLength="1286.81" waitingTime="322.00" waitingCount="13" stopTime="0.00" timeLoss="398.53" rerouteNo="0" devices="tripinfo_f_0_0.11" vType="type1" speedFactor="1.04" vaporized=""/>
    <tripinfo id="f_0_0.12" depart="164.00" departLane="np13_nt13_0" departPos="53.21" departSpeed="0.00" departDelay="0.37" arrival="640.00" arrivalLane="nt4_np5_0" arrivalPos="75.00" arrivalSpeed="18.43" duration="476.00" routeLength="1294.68" waitingTime="309.00" waitingCount="12" stopTime="0.00" timeLoss="387.58" rerouteNo="0" devices="tripinfo_f_0_0.12" vType="type1" speedFactor="1.02" vaporized=""/>
    <tripinfo id="f_0_0.13" depart="178.00" departLane="np13_nt13_0" departPos="8.44" departSpeed="0.00" departDelay="0.73" arrival="646.00" arrivalLane="nt4_np5_0" arrivalPos="75.00" arrivalSpeed="16.45" duration="468.00" routeLength="1339.45" waitingTime="288.00" waitingCount="9" stopTime="0.00" timeLoss="361.43" rerouteNo="0" devices="tripinfo_f_0_0.13" vType="type1" speedFactor="0.87" vaporized=""/>
    <tripinfo id="f_0_0.14" depart="191.00" departLane="np13_nt13_0" departPos="57.81" departSpeed="0.00" departDelay="0.10" arrival="647.00" arrivalLane="nt4_np5_0" arrivalPos="75.00" arrivalSpeed="19.63" duration="456.00" routeLength="1290.08" waitingTime="277.00" waitingCount="9" stopTime="0.00" timeLoss="380.24" rerouteNo="0" devices="tripinfo_f_0_0.14" vType="type1" speedFactor="1.19" vaporized=""/>
    <tripinfo id="f_0_3.8" depart="66.00" departLane="np3_nt3_0" departPos="0.00" departSpeed="0.00" departDelay="0.54" arrival="648.00" arrivalLane="nt14_np11_0" arrivalPos="75.00" arrivalSpeed="9.40" duration="582.00" routeLength="951.09" waitingTime="401.00" waitingCount="11" stopTime="0.00" timeLoss="500.67" rerouteNo="0" devices="tripinfo_f_0_3.8" vType="type1" speedFactor="0.98" vaporized=""/>
    <tripinfo id="f_0_0.15" depart="205.00" departLane="np13_nt13_0" departPos="36.27" departSpeed="0.00" departDelay="0.46" arrival="649.00" arrivalLane="nt4_np5_0" arrivalPos="75.00" arrivalSpeed="17.14" duration="444.00" routeLength="1311.62" waitingTime="274.00" waitingCount="9" stopTime="0.00" timeLoss="345.47" rerouteNo="0" devices="tripinfo_f_0_0.15" vType="type1" speedFactor="0.93" vaporized=""/>
    <tripinfo id="f_0_3.9" depart="97.00" departLane="np3_nt3_0" departPos="0.00" departSpeed="0.00" departDelay="23.36" arrival="650.00" arrivalLane="nt14_np11_0" arrivalPos="75.00" arrivalSpeed="9.95" duration="553.00" routeLength="951.09" waitingTime="380.00" waitingCount="12" stopTime="0.00" timeLoss="475.07" rerouteNo="0" devices="tripinfo_f_0_3.9" vType="type1" speedFactor="1.02" vaporized=""/>
    <tripinfo id="f_0_2.2" depart="17.00" departLane="np2_nt2_0" departPos="3.97" departSpeed="0.00" departDelay="0.64" arrival="654.00" arrivalLane="nt15_np10_0" arrivalPos="75.00" arrivalSpeed="7.45" duration="637.00" routeLength="947.11" waitingTime="495.00" waitingCount="9" stopTime="0.00" timeLoss="546.69" rerouteNo="0" devices="tripinfo_f_0_2.2" vType="type1" speedFactor="0.89" vaporized=""/>
    <tripinfo id="f_0_2.3" depart="25.00" departLane="np2_nt2_0" departPos="54.34" departSpeed="0.00" departDelay="0.45" arrival="656.00" arrivalLane="nt15_np10_0" arrivalPos="75.00" arrivalSpeed="9.83" duration="631.00" routeLength="896.74" waitingTime="486.00" waitingCount="13" stopTime="0.00" timeLoss="550.96" rerouteNo="0" devices="tripinfo_f_0_2.3" vType="type1" speedFactor="0.94" vaporized=""/>
    <tripinfo id="f_0_0.16" depart="219.00" departLane="np13_nt13_0" departPos="47.24" departSpeed="0.00" departDelay="0.82" arrival="659.00" arrivalLane="nt4_np5_0" arrivalPos="75.00" arrivalSpeed="16.57" duration="440.00" routeLength="1300.65" waitingTime="256.00" waitingCount="10" stopTime="0.00" timeLoss="339.29" rerouteNo="0" devices="tripinfo_f_0_0.16" vType="type1" speedFactor="0.90" vaporized=""/>
    <tripinfo id="f_0_3.10" depart="100.00" departLane="np3_nt3_0" departPos="0.00" departSpeed="0.00" departDelay="18.18" arrival="667.00" arrivalLane="nt14_np11_0" arrivalPos="75.00" arrivalSpeed="10.94" duration="567.00" routeLength="951.09" waitingTime="390.00" waitingCount="10" stopTime="0.00" timeLoss="489.53" rerouteNo="0" devices="tripinfo_f_0_3.10" vType="type1" speedFactor="1.04" vaporized=""/>
    <tripinfo id="f_0_2.4" depart="33.00" departLane="np2_nt2_0" departPos="51.77" departSpeed="0.00" departDelay="0.27" arrival="702.00" arrivalLane="nt15_np10_0" arrivalPos="75.00" arrivalSpeed="9.84" duration="669.00" routeLength="899.31" waitingTime="517.00" waitingCount="13" stopTime="0.00" timeLoss="595.26" rerouteNo="0" devices="tripinfo_f_0_2.4" vType="type1" speedFactor="1.02" vaporized=""/>
    <tripinfo id="f_0_1.2" depart="28.00" departLane="np16_nt1_0" departPos="11.13" departSpeed="0.00" departDelay="0.73" arrival="724.00" arrivalLane="nt16_np8_0" arrivalPos="75.00" arrivalSpeed="21.56" duration="696.00" routeLength="1336.75" waitingTime="514.00" waitingCount="16" stopTime="0.00" timeLoss="614.50" rerouteNo="0" devices="tripinfo_f_0_1.2" vType="type1" speedFactor="1.15" vaporized=""/>
    <tripinfo id="f_0_0.17" depart="232.00" departLane="np13_nt13_0" departPos="9.62" departSpeed="0.00" departDelay="0.19" arrival="767.00" arrivalLane="nt4_np5_0" arrivalPos="75.00" arrivalSpeed="17.26" duration="535.00" routeLength="1338.27" waitingTime="366.00" waitingCount="9" stopTime="0.00" timeLoss="435.22" rerouteNo="0" devices="tripinfo_f_0_0.17" vType="type1" speedFactor="0.93" vaporized=""/>
    <tripinfo id="f_0_0.18" depart="246.00" departLane="np13_nt13_0" departPos="41.26" departSpeed="0.00" departDelay="0.55" arrival="770.00" arrivalLane="nt4_np5_0" arrivalPos="75.00" arrivalSpeed="16.91" duration="524.00" routeLength="1306.63" waitingTime="349.00" waitingCount="10" stopTime="0.00" timeLoss="427.57" rerouteNo="0" devices="tripinfo_f_0_0.18" vType="type1" speedFactor="0.95" vaporized=""/>
    <tripinfo id="f_0_0.19" depart="260.00" departLane="np13_nt13_0" departPos="43.05" departSpeed="0.00" departDelay="0.92" arrival="771.00" arrivalLane="nt4_np5_0" arrivalPos="75.00" arrivalSpeed="19.77" duration="511.00" routeLength="1304.84" waitingTime="326.00" waitingCount="12" stopTime="0.00" timeLoss="421.51" rerouteNo="0" devices="tripinfo_f_0_0.19" vType="type1" speedFactor="1.02" vaporized=""/>
    <tripinfo id="f_0_2.5" depart="41.00" departLane="np2_nt2_0" departPos="22.42" departSpeed="0.00" departDelay="0.09" arrival="789.00" arrivalLane="nt15_np10_0" arrivalPos="75.00" arrivalSpeed="7.34" duration="748.00" routeLength="928.66" waitingTime="563.00" waitingCount="17" stopTime="0.00" timeLoss="652.52" rerouteNo="0" devices="tripinfo_f_0_2.5" vType="type1" speedFactor="0.81" vaporized=""/>
    <tripinfo id="f_0_2.6" depart="50.00" departLane="np2_nt2_0" departPos="27.73" departSpeed="0.00" departDelay="0.91" arrival="791.00" arrivalLane="nt15_np10_0" arrivalPos="75.00" arrivalSpeed="10.95" duration="741.00" routeLength="923.35" waitingTime="552.00" waitingCount="17" stopTime="0.00" timeLoss="667.49" rerouteNo="0" devices="tripinfo_f_0_2.6" vType="type1" speedFactor="1.06" vaporized=""/>
    <tripinfo id="f_0_2.7" depart="58.00" departLane="np2_nt2_0" departPos="37.95" departSpeed="0.00" departDelay="0.73" arrival="826.00" arrivalLane="nt15_np10_0" arrivalPos="75.00" arrivalSpeed="11.02" duration="768.00" routeLength="913.13" waitingTime="570.00" waitingCount="17" stopTime="0.00" timeLoss="700.96" rerouteNo="0" devices="tripinfo_f_0_2.7" vType="type1" speedFactor="1.14" vaporized=""/>
    <tripinfo id="f_0_1.3" depart="41.00" departLane="np16_nt1_0" departPos="36.08" departSpeed="0.00" departDelay="0.09" arrival="844.00" arrivalLane="nt16_np8_0" arrivalPos="75.00" arrivalSpeed="19.24" duration="803.00" routeLength="1311.80" waitingTime="568.00" waitingCount="20" stopTime="0.00" timeLoss="714.88" rerouteNo="0" devices="tripinfo_f_0_1.3" vType="type1" speedFactor="1.05" vaporized=""/>
    <tripinfo id="f_0_2.8" depart="66.00" departLane="np2_nt2_0" departPos="43.16" departSpeed="0.00" departDelay="0.54" arrival="867.00" arrivalLane="nt15_np10_0" arrivalPos="75.00" arrivalSpeed="10.51" duration="801.00" routeLength="907.92" waitingTime="587.00" waitingCount="20" stopTime="0.00" timeLoss="729.79" rerouteNo="0" devices="tripinfo_f_0_2.8" vType="type1" speedFactor="1.07" vaporized=""/>
    <tripinfo id="f_0_0.20" depart="273.00" departLane="np13_nt13_0" departPos="12.91" departSpeed="0.00" departDelay="0.28" arrival="878.00" arrivalLane="nt4_np5_0" arrivalPos="75.00" arrivalSpeed="19.38" duration="605.00" routeLength="1334.98" waitingTime="426.00" waitingCount="13" stopTime="0.00" timeLoss="512.91" rerouteNo="0" devices="tripinfo_f_0_0.20" vType="type1" speedFactor="1.00" vaporized=""/>
    <tripinfo id="f_0_0.21" depart="287.00" departLane="np13_nt13_0" departPos="0.36" departSpeed="0.00" departDelay="0.64" arrival="880.00" arrivalLane="nt4_np5_0" arrivalPos="75.00" arrivalSpeed="16.99" duration="593.00" routeLength="1347.53" waitingTime="403.00" waitingCount="12" stopTime="0.00" timeLoss="490.62" rerouteNo="0" devices="tripinfo_f_0_0.21" vType="type1" speedFactor="0.91" vaporized=""/>
    <tripinfo id="f_0_2.9" depart="74.00" departLane="np2_nt2_0" departPos="51.44" departSpeed="0.00" departDelay="0.36" arrival="882.00" arrivalLane="nt15_np10_0" arrivalPos="75.00" arrivalSpeed="10.50" duration="808.00" routeLength="899.64" waitingTime="581.00" waitingCount="22" stopTime="0.00" timeLoss="736.45" rerouteNo="0" devices="tripinfo_f_0_2.9" vType="type1" speedFactor="1.06" vaporized=""/>
    <tripinfo id="f_0_1.4" depart="55.00" departLane="np16_nt1_0" departPos="28.79" departSpeed="0.00" departDelay="0.46" arrival="883.00" arrivalLane="nt16_np8_0" arrivalPos="75.00" arrivalSpeed="19.55" duration="828.00" routeLength="1319.09" waitingTime="598.00" waitingCount="21" stopTime="0.00" timeLoss="742.43" rerouteNo="0" devices="tripinfo_f_0_1.4" vType="type1" speedFactor="1.08" vaporized=""/>
    <tripinfo id="f_0_2.10" depart="82.00" departLane="np2_nt2_0" departPos="56.27" departSpeed="0.00" departDelay="0.18" arrival="885.00" arrivalLane="nt15_np10_0" arrivalPos="75.00" arrivalSpeed="8.43" duration="803.00" routeLength="894.81" waitingTime="565.00" waitingCount="21" stopTime="0.00" timeLoss="725.60" rerouteNo="0" devices="tripinfo_f_0_2.10" vType="type1" speedFactor="0.97" vaporized=""/>
    <tripinfo id="f_0_3.12" depart="108.00" departLane="np3_nt3_0" departPos="1.08" departSpeed="0.00" departDelay="9.82" arrival="886.00" arrivalLane="nt14_np11_0" arrivalPos="75.00" arrivalSpeed="10.12" duration="778.00" routeLength="950.01" waitingTime="592.00" waitingCount="13" stopTime="0.00" timeLoss="702.62" rerouteNo="0" devices="tripinfo_f_0_3.12" vType="type1" speedFactor="1.07" vaporized=""/>
    <tripinfo id="f_0_2.11" depart="90.00" departLane="np2_nt2_0" departPos="51.90" departSpeed="0.00" departDelay="0.00" arrival="899.00" arrivalLane="nt15_np10_0" arrivalPos="75.00" arrivalSpeed="8.63" duration="809.00" routeLength="899.18" waitingTime="552.00" waitingCount="22" stopTime="0.00" timeLoss="726.03" rerouteNo="0" devices="tripinfo_f_0_2.11" vType="type1" speedFactor="0.91" vaporized=""/>
    <tripinfo id="f_0_3.13" depart="112.00" departLane="np3_nt3_0" departPos="0.00" departSpeed="0.00" departDelay="5.63" arrival="983.00" arrivalLane="nt14_np11_0" arrivalPos="75.00" arrivalSpeed="10.13" duration="871.00" routeLength="951.09" waitingTime="677.00" waitingCount="13" stopTime="0.00" timeLoss="784.61" rerouteNo="0" devices="tripinfo_f_0_3.13" vType="type1" speedFactor="0.93" vaporized=""/>
    <tripinfo id="f_0_2.12" depart="99.00" departLane="np2_nt2_0" departPos="1.64" departSpeed="0.00" departDelay="0.82" arrival="986.00" arrivalLane="nt15_np10_0" arrivalPos="75.00" arrivalSpeed="9.57" duration="887.00" routeLength="949.44" waitingTime="626.00" waitingCount="22" stopTime="0.00" timeLoss="809.77" rerouteNo="0" devices="tripinfo_f_0_2.12" vType="type1" speedFactor="1.03" vaporized=""/>
    <tripinfo id="f_0_3.14" depart="115.00" departLane="np3_nt3_0" departPos="0.00" departSpeed="0.00" departDelay="0.45" arrival="986.00" arrivalLane="nt14_np11_0" arrivalPos="75.00" arrivalSpeed="8.78" duration="871.00" routeLength="951.09" waitingTime="674.00" waitingCount="14" stopTime="0.00" timeLoss="779.15" rerouteNo="0" devices="tripinfo_f_0_3.14" vType="type1" speedFactor="0.88" vaporized=""/>
    <tripinfo id="f_0_2.13" depart="107.00" departLane="np2_nt2_0" departPos="25.29" departSpeed="0.00" departDelay="0.63" arrival="1081.00" arrivalLane="nt15_np10_0" arrivalPos="75.00" arrivalSpeed="10.65" duration="974.00" routeLength="925.79" waitingTime="731.00" waitingCount="24" stopTime="0.00" timeLoss="905.43" rerouteNo="0" devices="tripinfo_f_0_2.13" vType="type1" speedFactor="1.13" vaporized=""/>
    <tripinfo id="f_0_2.14" depart="115.00" departLane="np2_nt2_0" departPos="51.60" departSpeed="0.00" departDelay="0.45" arrival="1085.00" arrivalLane="nt15_np10_0" arrivalPos="75.00" arrivalSpeed="9.80" duration="970.00" routeLength="899.48" waitingTime="736.00" waitingCount="23" stopTime="0.00" timeLoss="890.20" rerouteNo="0" devices="tripinfo_f_0_2.14" vType="type1" speedFactor="0.95" vaporized=""/>
    <tripinfo id="f_0_3.15" depart="123.00" departLane="np3_nt3_0" departPos="6.84" departSpeed="0.00" departDelay="0.27" arrival="1085.00" arrivalLane="nt14_np11_0" arrivalPos="75.00" arrivalSpeed="8.31" duration="962.00" routeLength="944.25" waitingTime="747.00" waitingCount="18" stopTime="0.00" timeLoss="862.17" rerouteNo="0" devices="tripinfo_f_0_3.15" vType="type1" speedFactor="0.80" vaporized=""/>
    <tripinfo id="f_0_3.16" depart="131.00" departLane="np3_nt3_0" departPos="1.56" departSpeed="0.00" departDelay="0.09" arrival="1086.00" arrivalLane="nt14_np11_0" arrivalPos="75.00" arrivalSpeed="10.40" duration="955.00" routeLength="949.53" waitingTime="747.00" waitingCount="19" stopTime="0.00" timeLoss="882.02" rerouteNo="0" devices="tripinfo_f_0_3.16" vType="type1" speedFactor="1.09" vaporized=""/>
    <tripinfo id="f_0_3.17" depart="140.00" departLane="np3_nt3_0" departPos="28.50" departSpeed="0.00" departDelay="0.91" arrival="1088.00" arrivalLane="nt14_np11_0" arrivalPos="75.00" arrivalSpeed="9.89" duration="948.00" routeLength="922.59" waitingTime="755.00" waitingCount="17" stopTime="0.00" timeLoss="873.58" rerouteNo="0" devices="tripinfo_f_0_3.17" vType="type1" speedFactor="1.03" vaporized=""/>
    <tripinfo id="f_0_3.18" depart="148.00" departLane="np3_nt3_0" departPos="0.97" departSpeed="0.00" departDelay="0.72" arrival="1091.00" arrivalLane="nt14_np11_0" arrivalPos="75.00" arrivalSpeed="9.63" duration="943.00" routeLength="950.12" waitingTime="743.00" waitingCount="16" stopTime="0.00" timeLoss="865.31" rerouteNo="0" devices="tripinfo_f_0_3.18" vType="type1" speedFactor="1.03" vaporized=""/>
    <tripinfo id="f_0_3.19" depart="156.00" departLane="np3_nt3_0" departPos="16.44" departSpeed="0.00" departDelay="0.54" arrival="1107.00" arrivalLane="nt14_np11_0" arrivalPos="75.00" arrivalSpeed="11.63" duration="951.00" routeLength="934.65" waitingTime="763.00" waitingCount="16" stopTime="0.00" timeLoss="876.82" rerouteNo="0" devices="tripinfo_f_0_3.19" vType="type1" speedFactor="1.06" vaporized=""/>
    <tripinfo id="f_0_3.20" depart="164.00" departLane="np3_nt3_0" departPos="15.10" departSpeed="0.00" departDelay="0.36" arrival="1120.00" arrivalLane="nt14_np11_0" arrivalPos="75.00" arrivalSpeed="8.42" duration="956.00" routeLength="935.99" waitingTime="753.00" waitingCount="17" stopTime="0.00" timeLoss="860.62" rerouteNo="0" devices="tripinfo_f_0_3.20" vType="type1" speedFactor="0.83" vaporized=""/>
    <tripinfo id="f_0_3.21" depart="172.00" departLane="np3_nt3_0" departPos="12.46" departSpeed="0.00" departDelay="0.18" arrival="1138.00" arrivalLane="nt14_np11_0" arrivalPos="75.00" arrivalSpeed="8.97" duration="966.00" routeLength="938.63" waitingTime="753.00" waitingCount="18" stopTime="0.00" timeLoss="880.18" rerouteNo="0" devices="tripinfo_f_0_3.21" vType="type1" speedFactor="0.91" vaporized=""/>
    <tripinfo id="f_3_5.0" depart="900.00" departLane="np8_nt16_0" departPos="69.38" departSpeed="0.00" departDelay="0.00" arrival="1147.00" arrivalLane="nt1_np16_0" arrivalPos="67.80" arrivalSpeed="21.71" duration="247.00" routeLength="1278.50" waitingTime="133.00" waitingCount="6" stopTime="0.00" timeLoss="164.36" rerouteNo="0" devices="tripinfo_f_3_5.0" vType="type1" speedFactor="1.09" vaporized=""/>
    <tripinfo id="f_1_0.0" depart="300.00" departLane="np13_nt13_0" departPos="26.12" departSpeed="0.00" departDelay="0.00" arrival="1153.00" arrivalLane="nt4_np5_0" arrivalPos="75.00" arrivalSpeed="18.12" duration="853.00" routeLength="1321.77" waitingTime="659.00" waitingCount="13" stopTime="0.00" timeLoss="758.37" rerouteNo="0" devices="tripinfo_f_1_0.0" vType="type1" speedFactor="0.97" vaporized=""/>
    <tripinfo id="f_3_5.1" depart="922.00" departLane="np8_nt16_0" departPos="56.53" departSpeed="0.00" departDelay="0.31" arrival="1153.00" arrivalLane="nt1_np16_0" arrivalPos="67.80" arrivalSpeed="16.55" duration="231.00" routeLength="1291.35" waitingTime="92.00" waitingCount="7" stopTime="0.00" timeLoss="133.73" rerouteNo="0" devices="tripinfo_f_3_5.1" vType="type1" speedFactor="0.94" vaporized=""/>
    <tripinfo id="f_0_0.22" depart="300.00" departLane="np13_nt13_0" departPos="5.38" departSpeed="0.00" departDelay="0.01" arrival="1155.00" arrivalLane="nt4_np5_0" arrivalPos="75.00" arrivalSpeed="16.76" duration="855.00" routeLength="1342.51" waitingTime="643.00" waitingCount="13" stopTime="0.00" timeLoss="752.34" rerouteNo="0" devices="tripinfo_f_0_0.22" vType="type1" speedFactor="0.91" vaporized=""/>
    <tripinfo id="f_0_3.22" depart="180.00" departLane="np3_nt3_0" departPos="3.52" departSpeed="0.00" departDelay="0.00" arrival="1167.00" arrivalLane="nt14_np11_0" arrivalPos="75.00" arrivalSpeed="9.91" duration="987.00" routeLength="947.57" waitingTime="766.00" waitingCount="18" stopTime="0.00" timeLoss="912.52" rerouteNo="0" devices="tripinfo_f_0_3.22" vType="type1" speedFactor="1.08" vaporized=""/>
    <tripinfo id="f_1_0.1" depart="308.00" departLane="np13_nt13_0" departPos="8.82" departSpeed="0.00" departDelay="0.19" arrival="1178.00" arrivalLane="nt4_np5_0" arrivalPos="75.00" arrivalSpeed="20.82" duration="870.00" routeLength="1339.07" waitingTime="655.00" waitingCount="15" stopTime="0.00" timeLoss="788.75" rerouteNo="0" devices="tripinfo_f_1_0.1" vType="type1" speedFactor="1.14" vaporized=""/>
    <tripinfo id="f_0_2.15" depart="123.00" departLane="np2_nt2_0" departPos="8.56" departSpeed="0.00" departDelay="0.27" arrival="1182.00" arrivalLane="nt15_np10_0" arrivalPos="75.00" arrivalSpeed="9.80" duration="1059.00" routeLength="942.52" waitingTime="868.00" waitingCount="18" stopTime="0.00" timeLoss="980.11" rerouteNo="0" devices="tripinfo_f_0_2.15" vType="type1" speedFactor="1.00" vaporized=""/>