<?xml version="1.0" encoding="UTF-8"?>

<!-- generated on 2023-08-30 19:49:38 by Eclipse SUMO libsumo Version 1.18.0
<configuration xmlns:xsi="http://www.w3.org/2001/XMLSchema-instance" xsi:noNamespaceSchemaLocation="http://sumo.dlr.de/xsd/libsumoConfiguration.xsd">

    <input>
        <net-file value="/home/stefan/RESCO/./environments/arterial4x4/arterial4x4.net.xml"/>
        <route-files value="/home/stefan/RESCO/./environments/arterial4x4/arterial4x4_99.rou.xml"/>
    </input>

    <output>
        <tripinfo-output value="/home/stefan/results/RAINBOW-tr0-arterial4x4-0-drq_norm-wait_norm/tripinfo_99.xml"/>
        <tripinfo-output.write-unfinished value="true"/>
    </output>

    <processing>
        <time-to-teleport value="-1"/>
    </processing>

    <report>
        <no-warnings value="True"/>
        <no-step-log value="True"/>
    </report>

    <random_number>
        <random value="true"/>
    </random_number>

</configuration>
-->

<tripinfos xmlns:xsi="http://www.w3.org/2001/XMLSchema-instance" xsi:noNamespaceSchemaLocation="http://sumo.dlr.de/xsd/tripinfo_file.xsd">
    <tripinfo id="f_0_0.0" depart="0.00" departLane="np13_nt13_0" departPos="1.94" departSpeed="0.00" departDelay="0.00" arrival="-1.00" arrivalLane="" arrivalPos="-1.00" arrivalSpeed="-1.00" duration="3600.00" routeLength="653.08" waitingTime="3539.00" waitingCount="3" stopTime="0.00" timeLoss="3556.37" rerouteNo="0" devices="tripinfo_f_0_0.0" vType="type1" speedFactor="0.95" vaporized="end"/>
    <tripinfo id="f_0_1.0" depart="0.00" departLane="np16_nt1_0" departPos="31.86" departSpeed="0.00" departDelay="0.00" arrival="-1.00" arrivalLane="" arrivalPos="-1.00" arrivalSpeed="-1.00" duration="3600.00" routeLength="239.91" waitingTime="3580.00" waitingCount="2" stopTime="0.00" timeLoss="3587.54" rerouteNo="0" devices="tripinfo_f_0_1.0" vType="type1" speedFactor="1.05" vaporized="end"/>
    <tripinfo id="f_0_2.0" depart="0.00" departLane="np2_nt2_0" departPos="49.57" departSpeed="0.00" departDelay="0.00" arrival="-1.00" arrivalLane="" arrivalPos="-1.00" arrivalSpeed="-1.00" duration="3600.00" routeLength="604.71" waitingTime="3540.00" waitingCount="2" stopTime="0.00" timeLoss="3551.88" rerouteNo="0" devices="tripinfo_f_0_2.0" vType="type1" speedFactor="1.02" vaporized="end"/>
    <tripinfo id="f_0_3.0" depart="0.00" departLane="np3_nt3_0" departPos="54.29" departSpeed="0.00" departDelay="0.00" arrival="-1.00" arrivalLane="" arrivalPos="-1.00" arrivalSpeed="-1.00" duration="3600.00" routeLength="9.30" waitingTime="3594.00" waitingCount="1" stopTime="0.00" timeLoss="3598.06" rerouteNo="0" devices="tripinfo_f_0_3.0" vType="type1" speedFactor="0.90" vaporized="end"/>
    <tripinfo id="f_0_2.1" depart="9.00" departLane="np2_nt2_0" departPos="40.16" departSpeed="0.00" departDelay="0.82" arrival="-1.00" arrivalLane="" arrivalPos="-1.00" arrivalSpeed="-1.00" duration="3591.00" routeLength="606.62" waitingTime="3533.00" waitingCount="2" stopTime="0.00" timeLoss="3547.51" rerouteNo="0" devices="tripinfo_f_0_2.1" vType="type1" speedFactor="1.13" vaporized="end"/>
    <tripinfo id="f_0_3.1" depart="9.00" departLane="np3_nt3_0" departPos="7.11" departSpeed="0.00" departDelay="0.82" arrival="-1.00" arrivalLane="" arrivalPos="-1.00" arrivalSpeed="-1.00" duration="3591.00" routeLength="48.98" waitingTime="3582.00" waitingCount="1" stopTime="0.00" timeLoss="3585.63" rerouteNo="0" devices="tripinfo_f_0_3.1" vType="type1" speedFactor="1.02" vaporized="end"/>
    <tripinfo id="f_0_0.1" depart="14.00" departLane="np13_nt13_0" departPos="35.14" departSpeed="0.00" departDelay="0.36" arrival="-1.00" arrivalLane="" arrivalPos="-1.00" arrivalSpeed="-1.00" duration="3586.00" routeLength="612.39" waitingTime="3524.00" waitingCount="4" stopTime="0.00" timeLoss="3545.60" rerouteNo="0" devices="tripinfo_f_0_0.1" vType="type1" speedFactor="0.98" vaporized="end"/>
    <tripinfo id="f_0_1.1" depart="14.00" departLane="np16_nt1_0" departPos="43.71" departSpeed="0.00" departDelay="0.36" arrival="-1.00" arrivalLane="" arrivalPos="-1.00" arrivalSpeed="-1.00" duration="3586.00" routeLength="220.56" waitingTime="3565.00" waitingCount="2" stopTime="0.00" timeLoss="3575.39" rerouteNo="0" devices="tripinfo_f_0_1.1" vType="type1" speedFactor="1.15" vaporized="end"/>
    <tripinfo id="f_0_2.2" depart="17.00" departLane="np2_nt2_0" departPos="42.03" departSpeed="0.00" departDelay="0.64" arrival="-1.00" arrivalLane="" arrivalPos="-1.00" arrivalSpeed="-1.00" duration="3583.00" routeLength="597.25" waitingTime="3519.00" waitingCount="2" stopTime="0.00" timeLoss="3532.19" rerouteNo="0" devices="tripinfo_f_0_2.2" vType="type1" speedFactor="0.96" vaporized="end"/>
    <tripinfo id="f_0_3.2" depart="17.00" departLane="np3_nt3_0" departPos="38.45" departSpeed="0.00" departDelay="0.64" arrival="-1.00" arrivalLane="" arrivalPos="-1.00" arrivalSpeed="-1.00" duration="3583.00" routeLength="10.15" waitingTime="3579.00" waitingCount="1" stopTime="0.00" timeLoss="3581.19" rerouteNo="0" devices="tripinfo_f_0_3.2" vType="type1" speedFactor="1.14" vaporized="end"/>
    <tripinfo id="f_0_2.3" depart="25.00" departLane="np2_nt2_0" departPos="6.14" departSpeed="0.00" departDelay="0.45" arrival="-1.00" arrivalLane="" arrivalPos="-1.00" arrivalSpeed="-1.00" duration="3575.00" routeLength="625.64" waitingTime="3505.00" waitingCount="2" stopTime="0.00" timeLoss="3518.91" rerouteNo="0" devices="tripinfo_f_0_2.3" vType="type1" speedFactor="0.91" vaporized="end"/>
    <tripinfo id="f_0_3.3" depart="25.00" departLane="np3_nt3_0" departPos="26.02" departSpeed="0.00" departDelay="0.45" arrival="-1.00" arrivalLane="" arrivalPos="-1.00" arrivalSpeed="-1.00" duration="3575.00" routeLength="15.08" waitingTime="3570.00" waitingCount="1" stopTime="0.00" timeLoss="3572.76" rerouteNo="0" devices="tripinfo_f_0_3.3" vType="type1" speedFactor="1.10" vaporized="end"/>
    <tripinfo id="f_0_0.2" depart="28.00" departLane="np13_nt13_0" departPos="60.38" departSpeed="0.00" departDelay="0.73" arrival="-1.00" arrivalLane="" arrivalPos="-1.00" arrivalSpeed="-1.00" duration="3572.00" routeLength="579.65" waitingTime="3507.00" waitingCount="4" stopTime="0.00" timeLoss="3531.80" rerouteNo="0" devices="tripinfo_f_0_0.2" vType="type1" speedFactor="0.93" vaporized="end"/>
    <tripinfo id="f_0_1.2" depart="28.00" departLane="np16_nt1_0" departPos="50.28" departSpeed="0.00" departDelay="0.73" arrival="-1.00" arrivalLane="" arrivalPos="-1.00" arrivalSpeed="-1.00" duration="3572.00" routeLength="206.49" waitingTime="3551.00" waitingCount="2" stopTime="0.00" timeLoss="3559.56" rerouteNo="0" devices="tripinfo_f_0_1.2" vType="type1" speedFactor="0.90" vaporized="end"/>
    <tripinfo id="f_0_2.4" depart="33.00" departLane="np2_nt2_0" departPos="38.89" departSpeed="0.00" departDelay="0.27" arrival="-1.00" arrivalLane="" arrivalPos="-1.00" arrivalSpeed="-1.00" duration="3567.00" routeLength="585.38" waitingTime="3504.00" waitingCount="2" stopTime="0.00" timeLoss="3526.24" rerouteNo="0" devices="tripinfo_f_0_2.4" vType="type1" speedFactor="1.15" vaporized="end"/>
    <tripinfo id="f_0_3.4" depart="33.00" departLane="np3_nt3_0" departPos="22.91" departSpeed="0.00" departDelay="0.27" arrival="-1.00" arrivalLane="" arrivalPos="-1.00" arrivalSpeed="-1.00" duration="3567.00" routeLength="10.69" waitingTime="3562.00" waitingCount="1" stopTime="0.00" timeLoss="3565.00" rerouteNo="0" devices="tripinfo_f_0_3.4" vType="type1" speedFactor="0.97" vaporized="end"/>
    <tripinfo id="f_0_0.3" depart="41.00" departLane="np13_nt13_0" departPos="56.54" departSpeed="0.00" departDelay="0.09" arrival="-1.00" arrivalLane="" arrivalPos="-1.00" arrivalSpeed="-1.00" duration="3559.00" routeLength="575.98" waitingTime="3495.00" waitingCount="4" stopTime="0.00" timeLoss="3523.45" rerouteNo="0" devices="tripinfo_f_0_0.3" vType="type1" speedFactor="1.04" vaporized="end"/>
    <tripinfo id="f_0_1.3" depart="41.00" departLane="np16_nt1_0" departPos="47.63" departSpeed="0.00" departDelay="0.09" arrival="-1.00" arrivalLane="" arrivalPos="-1.00" arrivalSpeed="-1.00" duration="3559.00" routeLength="201.64" waitingTime="3535.00" waitingCount="2" stopTime="0.00" timeLoss="3544.77" rerouteNo="0" devices="tripinfo_f_0_1.3" vType="type1" speedFactor="0.76" vaporized="end"/>
    <tripinfo id="f_0_2.5" depart="41.00" departLane="np2_nt2_0" departPos="40.61" departSpeed="0.00" departDelay="0.09" arrival="-1.00" arrivalLane="" arrivalPos="-1.00" arrivalSpeed="-1.00" duration="3559.00" routeLength="576.16" waitingTime="3501.00" waitingCount="2" stopTime="0.00" timeLoss="3519.50" rerouteNo="0" devices="tripinfo_f_0_2.5" vType="type1" speedFactor="1.18" vaporized="end"/>
    <tripinfo id="f_0_3.5" depart="41.00" departLane="np3_nt3_0" departPos="17.05" departSpeed="0.00" departDelay="0.09" arrival="-1.00" arrivalLane="" arrivalPos="-1.00" arrivalSpeed="-1.00" duration="3559.00" routeLength="9.05" waitingTime="3554.00" waitingCount="1" stopTime="0.00" timeLoss="3557.22" rerouteNo="0" devices="tripinfo_f_0_3.5" vType="type1" speedFactor="1.05" vaporized="end"/>
    <tripinfo id="f_0_2.6" depart="50.00" departLane="np2_nt2_0" departPos="17.08" departSpeed="0.00" departDelay="0.91" arrival="-1.00" arrivalLane="" arrivalPos="-1.00" arrivalSpeed="-1.00" duration="3550.00" routeLength="592.19" waitingTime="3487.00" waitingCount="2" stopTime="0.00" timeLoss="3499.20" rerouteNo="0" devices="tripinfo_f_0_2.6" vType="type1" speedFactor="0.95" vaporized="end"/>
    <tripinfo id="f_0_3.6" depart="50.00" departLane="np3_nt3_0" departPos="0.64" departSpeed="0.00" departDelay="0.91" arrival="-1.00" arrivalLane="" arrivalPos="-1.00" arrivalSpeed="-1.00" duration="3550.00" routeLength="17.95" waitingTime="3544.00" waitingCount="1" stopTime="0.00" timeLoss="3547.58" rerouteNo="0" devices="tripinfo_f_0_3.6" vType="type1" speedFactor="1.15" vaporized="end"/>
    <tripinfo id="f_0_0.4" depart="55.00" departLane="np13_nt13_0" departPos="67.54" departSpeed="0.00" departDelay="0.46" arrival="-1.00" arrivalLane="" arrivalPos="-1.00" arrivalSpeed="-1.00" duration="3545.00" routeLength="557.49" waitingTime="3476.00" waitingCount="5" stopTime="0.00" timeLoss="3508.16" rerouteNo="0" devices="tripinfo_f_0_0.4" vType="type1" speedFactor="0.97" vaporized="end"/>
    <tripinfo id="f_0_1.4" depart="55.00" departLane="np16_nt1_0" departPos="15.18" departSpeed="0.00" departDelay="0.46" arrival="-1.00" arrivalLane="" arrivalPos="-1.00" arrivalSpeed="-1.00" duration="3545.00" routeLength="226.59" waitingTime="3524.00" waitingCount="2" stopTime="0.00" timeLoss="3535.38" rerouteNo="0" devices="tripinfo_f_0_1.4" vType="type1" speedFactor="1.31" vaporized="end"/>
    <tripinfo id="f_0_2.7" depart="58.00" departLane="np2_nt2_0" departPos="14.10" departSpeed="0.00" departDelay="0.73" arrival="-1.00" arrivalLane="" arrivalPos="-1.00" arrivalSpeed="-1.00" duration="3542.00" routeLength="587.67" waitingTime="3479.00" waitingCount="2" stopTime="0.00" timeLoss="3492.61" rerouteNo="0" devices="tripinfo_f_0_2.7" vType="type1" speedFactor="0.96" vaporized="end"/>
    <tripinfo id="f_0_3.7" depart="58.00" departLane="np3_nt3_0" departPos="3.08" departSpeed="0.00" departDelay="0.73" arrival="-1.00" arrivalLane="" arrivalPos="-1.00" arrivalSpeed="-1.00" duration="3542.00" routeLength="8.01" waitingTime="3538.00" waitingCount="1" stopTime="0.00" timeLoss="3540.31" rerouteNo="0" devices="tripinfo_f_0_3.7" vType="type1" speedFactor="1.05" vaporized="end"/>
    <tripinfo id="f_0_2.8" depart="66.00" departLane="np2_nt2_0" departPos="11.85" departSpeed="0.00" departDelay="0.54" arrival="-1.00" arrivalLane="" arrivalPos="-1.00" arrivalSpeed="-1.00" duration="3534.00" routeLength="582.42" waitingTime="3477.00" waitingCount="2" stopTime="0.00" timeLoss="3494.50" rerouteNo="0" devices="tripinfo_f_0_2.8" vType="type1" speedFactor="1.19" vaporized="end"/>
    <tripinfo id="f_0_3.8" depart="66.00" departLane="np3_nt3_0" departPos="0.00" departSpeed="0.00" departDelay="0.54" arrival="-1.00" arrivalLane="" arrivalPos="-1.00" arrivalSpeed="-1.00" duration="3534.00" routeLength="3.59" waitingTime="3531.00" waitingCount="1" stopTime="0.00" timeLoss="3532.69" rerouteNo="0" devices="tripinfo_f_0_3.8" vType="type1" speedFactor="1.05" vaporized="end"/>
    <tripinfo id="f_0_0.5" depart="69.00" departLane="np13_nt13_0" departPos="28.10" departSpeed="0.00" departDelay="0.82" arrival="-1.00" arrivalLane="" arrivalPos="-1.00" arrivalSpeed="-1.00" duration="3531.00" routeLength="589.43" waitingTime="3453.00" waitingCount="3" stopTime="0.00" timeLoss="3492.99" rerouteNo="0" devices="tripinfo_f_0_0.5" vType="type1" speedFactor="0.97" vaporized="end"/>
    <tripinfo id="f_0_1.5" depart="69.00" departLane="np16_nt1_0" departPos="61.04" departSpeed="0.00" departDelay="0.82" arrival="-1.00" arrivalLane="" arrivalPos="-1.00" arrivalSpeed="-1.00" duration="3531.00" routeLength="173.22" waitingTime="3510.00" waitingCount="2" stopTime="0.00" timeLoss="3521.08" rerouteNo="0" devices="tripinfo_f_0_1.5" vType="type1" speedFactor="0.97" vaporized="end"/>
    <tripinfo id="f_0_2.9" depart="74.00" departLane="np2_nt2_0" departPos="18.12" departSpeed="0.00" departDelay="0.36" arrival="-1.00" arrivalLane="" arrivalPos="-1.00" arrivalSpeed="-1.00" duration="3526.00" routeLength="568.65" waitingTime="3470.00" waitingCount="2" stopTime="0.00" timeLoss="3480.78" rerouteNo="0" devices="tripinfo_f_0_2.9" vType="type1" speedFactor="1.02" vaporized="end"/>
    <tripinfo id="f_0_0.6" depart="82.00" departLane="np13_nt13_0" departPos="5.49" departSpeed="0.00" departDelay="0.18" arrival="-1.00" arrivalLane="" arrivalPos="-1.00" arrivalSpeed="-1.00" duration="3518.00" routeLength="604.53" waitingTime="3439.00" waitingCount="4" stopTime="0.00" timeLoss="3481.03" rerouteNo="0" devices="tripinfo_f_0_0.6" vType="type1" speedFactor="1.02" vaporized="end"/>
    <tripinfo id="f_0_1.6" depart="82.00" departLane="np16_nt1_0" departPos="8.97" departSpeed="0.00" departDelay="0.18" arrival="-1.00" arrivalLane="" arrivalPos="-1.00" arrivalSpeed="-1.00" duration="3518.00" routeLength="217.80" waitingTime="3492.00" waitingCount="2" stopTime="0.00" timeLoss="3504.05" rerouteNo="0" devices="tripinfo_f_0_1.6" vType="type1" speedFactor="0.84" vaporized="end"/>
    <tripinfo id="f_0_2.10" depart="82.00" departLane="np2_nt2_0" departPos="53.75" departSpeed="0.00" departDelay="0.18" arrival="-1.00" arrivalLane="" arrivalPos="-1.00" arrivalSpeed="-1.00" duration="3518.00" routeLength="525.52" waitingTime="3459.00" waitingCount="2" stopTime="0.00" timeLoss="3471.79" rerouteNo="0" devices="tripinfo_f_0_2.10" vType="type1" speedFactor="0.90" vaporized="end"/>
    <tripinfo id="f_0_2.11" depart="90.00" departLane="np2_nt2_0" departPos="12.61" departSpeed="0.00" departDelay="0.00" arrival="-1.00" arrivalLane="" arrivalPos="-1.00" arrivalSpeed="-1.00" duration="3510.00" routeLength="559.15" waitingTime="3449.00" waitingCount="2" stopTime="0.00" timeLoss="3462.09" rerouteNo="0" devices="tripinfo_f_0_2.11" vType="type1" speedFactor="0.94" vaporized="end"/>
    <tripinfo id="f_0_0.7" depart="96.00" departLane="np13_nt13_0" departPos="36.86" departSpeed="0.00" departDelay="0.55" arrival="-1.00" arrivalLane="" arrivalPos="-1.00" arrivalSpeed="-1.00" duration="3504.00" routeLength="550.66" waitingTime="3454.00" waitingCount="3" stopTime="0.00" timeLoss="3471.40" rerouteNo="0" devices="tripinfo_f_0_0.7" vType="type1" speedFactor="1.06" vaporized="end"/>
    <tripinfo id="f_0_1.7" depart="96.00" departLane="np16_nt1_0" departPos="49.98" departSpeed="0.00" departDelay="0.55" arrival="-1.00" arrivalLane="" arrivalPos="-1.00" arrivalSpeed="-1.00" duration="3504.00" routeLength="169.29" waitingTime="3484.00" waitingCount="2" stopTime="0.00" timeLoss="3495.34" rerouteNo="0" devices="tripinfo_f_0_1.7" vType="type1" speedFactor="1.11" vaporized="end"/>
    <tripinfo id="f_0_2.12" depart="99.00" departLane="np2_nt2_0" departPos="27.18" departSpeed="0.00" departDelay="0.82" arrival="-1.00" arrivalLane="" arrivalPos="-1.00" arrivalSpeed="-1.00" duration="3501.00" routeLength="537.09" waitingTime="3447.00" waitingCount="2" stopTime="0.00" timeLoss="3459.26" rerouteNo="0" devices="tripinfo_f_0_2.12" vType="type1" speedFactor="1.04" vaporized="end"/>
    <tripinfo id="f_0_2.13" depart="107.00" departLane="np2_nt2_0" departPos="28.89" departSpeed="0.00" departDelay="0.63" arrival="-1.00" arrivalLane="" arrivalPos="-1.00" arrivalSpeed="-1.00" duration="3493.00" routeLength="527.88" waitingTime="3434.00" waitingCount="2" stopTime="0.00" timeLoss="3447.17" rerouteNo="0" devices="tripinfo_f_0_2.13" vType="type1" speedFactor="0.92" vaporized="end"/>
    <tripinfo id="f_0_0.8" depart="110.00" departLane="np13_nt13_0" departPos="15.73" departSpeed="0.00" departDelay="0.91" arrival="-1.00" arrivalLane="" arrivalPos="-1.00" arrivalSpeed="-1.00" duration="3490.00" routeLength="564.29" waitingTime="3437.00" waitingCount="2" stopTime="0.00" timeLoss="3453.74" rerouteNo="0" devices="tripinfo_f_0_0.8" vType="type1" speedFactor="0.95" vaporized="end"/>
    <tripinfo id="f_0_1.8" depart="110.00" departLane="np16_nt1_0" departPos="28.34" departSpeed="0.00" departDelay="0.91" arrival="-1.00" arrivalLane="" arrivalPos="-1.00" arrivalSpeed="-1.00" duration="3490.00" routeLength="183.42" waitingTime="3465.00" waitingCount="2" stopTime="0.00" timeLoss="3480.30" rerouteNo="0" devices="tripinfo_f_0_1.8" vType="type1" speedFactor="1.05" vaporized="end"/>
    <tripinfo id="f_0_2.14" depart="115.00" departLane="np2_nt2_0" departPos="23.75" departSpeed="0.00" departDelay="0.45" arrival="-1.00" arrivalLane="" arrivalPos="-1.00" arrivalSpeed="-1.00" duration="3485.00" routeLength="525.52" waitingTime="3425.00" waitingCount="2" stopTime="0.00" timeLoss="3437.60" rerouteNo="0" devices="tripinfo_f_0_2.14" vType="type1" speedFactor="0.88" vaporized="end"/>
    <tripinfo id="f_0_0.9" depart="123.00" departLane="np13_nt13_0" departPos="44.68" departSpeed="0.00" departDelay="0.28" arrival="-1.00" arrivalLane="" arrivalPos="-1.00" arrivalSpeed="-1.00" duration="3477.00" routeLength="363.01" waitingTime="3447.00" waitingCount="3" stopTime="0.00" timeLoss="3459.71" rerouteNo="0" devices="tripinfo_f_0_0.9" vType="type1" speedFactor="1.11" vaporized="end"/>
    <tripinfo id="f_0_1.9" depart="123.00" departLane="np16_nt1_0" departPos="58.98" departSpeed="0.00" departDelay="0.28" arrival="-1.00" arrivalLane="" arrivalPos="-1.00" arrivalSpeed="-1.00" duration="3477.00" routeLength="145.28" waitingTime="3454.00" waitingCount="2" stopTime="0.00" timeLoss="3469.06" rerouteNo="0" devices="tripinfo_f_0_1.9" vType="type1" speedFactor="1.05" vaporized="end"/>
    <tripinfo id="f_0_2.15" depart="123.00" departLane="np2_nt2_0" departPos="21.33" departSpeed="0.00" departDelay="0.27" arrival="-1.00" arrivalLane="" arrivalPos="-1.00" arrivalSpeed="-1.00" duration="3477.00" routeLength="520.44" waitingTime="3421.00" waitingCount="2" stopTime="0.00" timeLoss="3441.53" rerouteNo="0" devices="tripinfo_f_0_2.15" vType="type1" speedFactor="1.17" vaporized="end"/>
    <tripinfo id="f_0_2.16" depart="131.00" departLane="np2_nt2_0" departPos="18.08" departSpeed="0.00" departDelay="0.09" arrival="-1.00" arrivalLane="" arrivalPos="-1.00" arrivalSpeed="-1.00" duration="3469.00" routeLength="516.19" waitingTime="3411.00" waitingCount="2" stopTime="0.00" timeLoss="3422.45" rerouteNo="0" devices="tripinfo_f_0_2.16" vType="type1" speedFactor="0.88" vaporized="end"/>
    <tripinfo id="f_0_0.10" depart="137.00" departLane="np13_nt13_0" departPos="36.80" departSpeed="0.00" departDelay="0.64" arrival="-1.00" arrivalLane="" arrivalPos="-1.00" arrivalSpeed="-1.00" duration="3463.00" routeLength="363.39" waitingTime="3426.00" waitingCount="3" stopTime="0.00" timeLoss="3444.85" rerouteNo="0" devices="tripinfo_f_0_0.10" vType="type1" speedFactor="1.06" vaporized="end"/>
    <tripinfo id="f_0_1.10" depart="137.00" departLane="np16_nt1_0" departPos="19.94" departSpeed="0.00" departDelay="0.64" arrival="-1.00" arrivalLane="" arrivalPos="-1.00" arrivalSpeed="-1.00" duration="3463.00" routeLength="176.83" waitingTime="3440.00" waitingCount="2" stopTime="0.00" timeLoss="3453.79" rerouteNo="0" devices="tripinfo_f_0_1.10" vType="type1" speedFactor="1.08" vaporized="end"/>
    <tripinfo id="f_0_2.17" depart="140.00" departLane="np2_nt2_0" departPos="1.03" departSpeed="0.00" departDelay="0.91" arrival="-1.00" arrivalLane="" arrivalPos="-1.00" arrivalSpeed="-1.00" duration="3460.00" routeLength="525.73" waitingTime="3401.00" waitingCount="2" stopTime="0.00" timeLoss="3414.50" rerouteNo="0" devices="tripinfo_f_0_2.17" vType="type1" speedFactor="0.91" vaporized="end"/>
    <tripinfo id="f_0_2.18" depart="148.00" departLane="np2_nt2_0" departPos="53.84" departSpeed="0.00" departDelay="0.72" arrival="-1.00" arrivalLane="" arrivalPos="-1.00" arrivalSpeed="-1.00" duration="3452.00" routeLength="465.42" waitingTime="3393.00" waitingCount="2" stopTime="0.00" timeLoss="3410.59" rerouteNo="0" devices="tripinfo_f_0_2.18" vType="type1" speedFactor="0.88" vaporized="end"/>
    <tripinfo id="f_0_0.11" depart="150.00" departLane="np13_nt13_0" departPos="15.96" departSpeed="0.00" departDelay="0.00" arrival="-1.00" arrivalLane="" arrivalPos="-1.00" arrivalSpeed="-1.00" duration="3450.00" routeLength="376.73" waitingTime="3409.00" waitingCount="3" stopTime="0.00" timeLoss="3427.67" rerouteNo="0" devices="tripinfo_f_0_0.11" vType="type1" speedFactor="0.88" vaporized="end"/>
    <tripinfo id="f_0_1.11" depart="150.00" departLane="np16_nt1_0" departPos="16.30" departSpeed="0.00" departDelay="0.00" arrival="-1.00" arrivalLane="" arrivalPos="-1.00" arrivalSpeed="-1.00" duration="3450.00" routeLength="172.96" waitingTime="3428.00" waitingCount="2" stopTime="0.00" timeLoss="3439.31" rerouteNo="0" devices="tripinfo_f_0_1.11" vType="type1" speedFactor="0.89" vaporized="end"/>
    <tripinfo id="f_0_2.19" depart="156.00" departLane="np2_nt2_0" departPos="55.72" departSpeed="0.00" departDelay="0.54" arrival="-1.00" arrivalLane="" arrivalPos="-1.00" arrivalSpeed="-1.00" duration="3444.00" routeLength="456.04" waitingTime="3392.00" waitingCount="2" stopTime="0.00" timeLoss="3406.26" rerouteNo="0" devices="tripinfo_f_0_2.19" vType="type1" speedFactor="0.94" vaporized="end"/>
    <tripinfo id="f_0_0.12" depart="164.00" departLane="np13_nt13_0" departPos="33.72" departSpeed="0.00" departDelay="0.37" arrival="-1.00" arrivalLane="" arrivalPos="-1.00" arrivalSpeed="-1.00" duration="3436.00" routeLength="351.46" waitingTime="3400.00" waitingCount="3" stopTime="0.00" timeLoss="3418.73" rerouteNo="0" devices="tripinfo_f_0_0.12" vType="type1" speedFactor="1.08" vaporized="end"/>
    <tripinfo id="f_0_1.12" depart="164.00" departLane="np16_nt1_0" departPos="0.53" departSpeed="0.00" departDelay="0.37" arrival="-1.00" arrivalLane="" arrivalPos="-1.00" arrivalSpeed="-1.00" duration="3436.00" routeLength="181.22" waitingTime="3410.00" waitingCount="3" stopTime="0.00" timeLoss="3426.05" rerouteNo="0" devices="tripinfo_f_0_1.12" vType="type1" speedFactor="1.01" vaporized="end"/>
    <tripinfo id="f_0_2.20" depart="164.00" departLane="np2_nt2_0" departPos="50.46" departSpeed="0.00" departDelay="0.36" arrival="-1.00" arrivalLane="" arrivalPos="-1.00" arrivalSpeed="-1.00" duration="3436.00" routeLength="453.80" waitingTime="3390.00" waitingCount="2" stopTime="0.00" timeLoss="3405.50" rerouteNo="0" devices="tripinfo_f_0_2.20" vType="type1" speedFactor="1.17" vaporized="end"/>
    <tripinfo id="f_0_2.21" depart="172.00" departLane="np2_nt2_0" departPos="50.00" departSpeed="0.00" departDelay="0.18" arrival="-1.00" arrivalLane="" arrivalPos="-1.00" arrivalSpeed="-1.00" duration="3428.00" routeLength="446.76" waitingTime="3387.00" waitingCount="2" stopTime="0.00" timeLoss="3397.50" rerouteNo="0" devices="tripinfo_f_0_2.21" vType="type1" speedFactor="1.13" vaporized="end"/>
    <tripinfo id="f_0_0.13" depart="178.00" departLane="np13_nt13_0" departPos="64.85" departSpeed="0.00" departDelay="0.73" arrival="-1.00" arrivalLane="" arrivalPos="-1.00" arrivalSpeed="-1.00" duration="3422.00" routeLength="312.84" waitingTime="3386.00" waitingCount="3" stopTime="0.00" timeLoss="3406.15" rerouteNo="0" devices="tripinfo_f_0_0.13" vType="type1" speedFactor="1.05" vaporized="end"/>
    <tripinfo id="f_0_1.13" depart="178.00" departLane="np16_nt1_0" departPos="11.70" departSpeed="0.00" departDelay="0.73" arrival="-1.00" arrivalLane="" arrivalPos="-1.00" arrivalSpeed="-1.00" duration="3422.00" routeLength="162.55" waitingTime="3398.00" waitingCount="2" stopTime="0.00" timeLoss="3412.98" rerouteNo="0" devices="tripinfo_f_0_1.13" vType="type1" speedFactor="1.01" vaporized="end"/>
    <tripinfo id="f_0_2.22" depart="180.00" departLane="np2_nt2_0" departPos="50.95" departSpeed="0.00" departDelay="0.00" arrival="-1.00" arrivalLane="" arrivalPos="-1.00" arrivalSpeed="-1.00" duration="3420.00" routeLength="438.31" waitingTime="3369.00" waitingCount="2" stopTime="0.00" timeLoss="3380.32" rerouteNo="0" devices="tripinfo_f_0_2.22" vType="type1" speedFactor="0.86" vaporized="end"/>
    <tripinfo id="f_0_2.23" depart="189.00" departLane="np2_nt2_0" departPos="51.78" departSpeed="0.00" departDelay="0.81" arrival="-1.00" arrivalLane="" arrivalPos="-1.00" arrivalSpeed="-1.00" duration="3411.00" routeLength="429.97" waitingTime="3362.00" waitingCount="2" stopTime="0.00" timeLoss="3373.32" rerouteNo="0" devices="tripinfo_f_0_2.23" vType="type1" speedFactor="0.89" vaporized="end"/>
    <tripinfo id="f_0_0.14" depart="191.00" departLane="np13_nt13_0" departPos="34.49" departSpeed="0.00" departDelay="0.10" arrival="-1.00" arrivalLane="" arrivalPos="-1.00" arrivalSpeed="-1.00" duration="3409.00" routeLength="335.70" waitingTime="3370.00" waitingCount="3" stopTime="0.00" timeLoss="3393.73" rerouteNo="0" devices="tripinfo_f_0_0.14" vType="type1" speedFactor="1.18" vaporized="end"/>
    <tripinfo id="f_0_1.14" depart="191.00" departLane="np16_nt1_0" departPos="16.87" departSpeed="0.00" departDelay="0.10" arrival="-1.00" arrivalLane="" arrivalPos="-1.00" arrivalSpeed="-1.00" duration="3409.00" routeLength="149.88" waitingTime="3384.00" waitingCount="2" stopTime="0.00" timeLoss="3400.40" rerouteNo="0" devices="tripinfo_f_0_1.14" vType="type1" speedFactor="0.99" vaporized="end"/>
    <tripinfo id="f_0_2.24" depart="197.00" departLane="np2_nt2_0" departPos="63.59" departSpeed="0.00" departDelay="0.63" arrival="-1.00" arrivalLane="" arrivalPos="-1.00" arrivalSpeed="-1.00" duration="3403.00" routeLength="390.69" waitingTime="3363.00" waitingCount="2" stopTime="0.00" timeLoss="3376.18" rerouteNo="0" devices="tripinfo_f_0_2.24" vType="type1" speedFactor="1.11" vaporized="end"/>
    <tripinfo id="f_0_0.15" depart="205.00" departLane="np13_nt13_0" departPos="26.11" departSpeed="0.00" departDelay="0.46" arrival="-1.00" arrivalLane="" arrivalPos="-1.00" arrivalSpeed="-1.00" duration="3395.00" routeLength="336.57" waitingTime="3352.00" waitingCount="3" stopTime="0.00" timeLoss="3377.13" rerouteNo="0" devices="tripinfo_f_0_0.15" vType="type1" speedFactor="1.00" vaporized="end"/>
    <tripinfo id="f_0_1.15" depart="205.00" departLane="np16_nt1_0" departPos="6.10" departSpeed="0.00" departDelay="0.46" arrival="-1.00" arrivalLane="" arrivalPos="-1.00" arrivalSpeed="-1.00" duration="3395.00" routeLength="153.15" waitingTime="3372.00" waitingCount="2" stopTime="0.00" timeLoss="3387.12" rerouteNo="0" devices="tripinfo_f_0_1.15" vType="type1" speedFactor="1.11" vaporized="end"/>
    <tripinfo id="f_0_2.25" depart="205.00" departLane="np2_nt2_0" departPos="50.08" departSpeed="0.00" departDelay="0.45" arrival="-1.00" arrivalLane="" arrivalPos="-1.00" arrivalSpeed="-1.00" duration="3395.00" routeLength="396.70" waitingTime="3354.00" waitingCount="2" stopTime="0.00" timeLoss="3366.52" rerouteNo="0" devices="tripinfo_f_0_2.25" vType="type1" speedFactor="1.07" vaporized="end"/>
    <tripinfo id="f_0_2.26" depart="213.00" departLane="np2_nt2_0" departPos="12.02" departSpeed="0.00" departDelay="0.27" arrival="-1.00" arrivalLane="" arrivalPos="-1.00" arrivalSpeed="-1.00" duration="3387.00" routeLength="427.25" waitingTime="3341.00" waitingCount="2" stopTime="0.00" timeLoss="3351.58" rerouteNo="0" devices="tripinfo_f_0_2.26" vType="type1" speedFactor="0.93" vaporized="end"/>
    <tripinfo id="f_0_0.16" depart="219.00" departLane="np13_nt13_0" departPos="15.49" departSpeed="0.00" departDelay="0.82" arrival="-1.00" arrivalLane="" arrivalPos="-1.00" arrivalSpeed="-1.00" duration="3381.00" routeLength="272.18" waitingTime="3339.00" waitingCount="4" stopTime="0.00" timeLoss="3364.25" rerouteNo="0" devices="tripinfo_f_0_0.16" vType="type1" speedFactor="0.86" vaporized="end"/>
    <tripinfo id="f_0_1.16" depart="219.00" departLane="np16_nt1_0" departPos="55.91" departSpeed="0.00" departDelay="0.82" arrival="-1.00" arrivalLane="" arrivalPos="-1.00" arrivalSpeed="-1.00" duration="3381.00" routeLength="95.84" waitingTime="3360.00" waitingCount="2" stopTime="0.00" timeLoss="3375.69" rerouteNo="0" devices="tripinfo_f_0_1.16" vType="type1" speedFactor="1.11" vaporized="end"/>
    <tripinfo id="f_0_2.27" depart="221.00" departLane="np2_nt2_0" departPos="4.01" departSpeed="0.00" departDelay="0.09" arrival="-1.00" arrivalLane="" arrivalPos="-1.00" arrivalSpeed="-1.00" duration="3379.00" routeLength="427.76" waitingTime="3337.00" waitingCount="2" stopTime="0.00" timeLoss="3348.68" rerouteNo="0" devices="tripinfo_f_0_2.27" vType="type1" speedFactor="1.08" vaporized="end"/>
    <tripinfo id="f_0_2.28" depart="230.00" departLane="np2_nt2_0" departPos="9.81" departSpeed="0.00" departDelay="0.90" arrival="-1.00" arrivalLane="" arrivalPos="-1.00" arrivalSpeed="-1.00" duration="3370.00" routeLength="414.47" waitingTime="3331.00" waitingCount="2" stopTime="0.00" timeLoss="3343.26" rerouteNo="0" devices="tripinfo_f_0_2.28" vType="type1" speedFactor="1.19" vaporized="end"/>