<?xml version="1.0" encoding="UTF-8"?>

<!-- generated on 2023-08-30 18:03:00 by Eclipse SUMO libsumo Version 1.18.0
<configuration xmlns:xsi="http://www.w3.org/2001/XMLSchema-instance" xsi:noNamespaceSchemaLocation="http://sumo.dlr.de/xsd/libsumoConfiguration.xsd">

    <input>
        <net-file value="/home/stefan/RESCO/./environments/arterial4x4/arterial4x4.net.xml"/>
        <route-files value="/home/stefan/RESCO/./environments/arterial4x4/arterial4x4_12.rou.xml"/>
    </input>

    <output>
        <tripinfo-output value="/home/stefan/results/RAINBOW-tr0-arterial4x4-0-drq_norm-wait_norm/tripinfo_12.xml"/>
        <tripinfo-output.write-unfinished value="true"/>
    </output>

    <processing>
        <time-to-teleport value="-1"/>
    </processing>

    <report>
        <no-warnings value="True"/>
        <no-step-log value="True"/>
    </report>

    <random_number>
        <random value="true"/>
    </random_number>

</configuration>
-->

<tripinfos xmlns:xsi="http://www.w3.org/2001/XMLSchema-instance" xsi:noNamespaceSchemaLocation="http://sumo.dlr.de/xsd/tripinfo_file.xsd">
    <tripinfo id="f_0_0.0" depart="0.00" departLane="np13_nt13_0" departPos="65.13" departSpeed="0.00" departDelay="0.00" arrival="170.00" arrivalLane="nt4_np5_0" arrivalPos="75.00" arrivalSpeed="20.79" duration="170.00" routeLength="1282.76" waitingTime="58.00" waitingCount="3" stopTime="0.00" timeLoss="89.41" rerouteNo="0" devices="tripinfo_f_0_0.0" vType="type1" speedFactor="1.12" vaporized=""/>
    <tripinfo id="f_0_0.1" depart="14.00" departLane="np13_nt13_0" departPos="43.90" departSpeed="0.00" departDelay="0.36" arrival="182.00" arrivalLane="nt4_np5_0" arrivalPos="75.00" arrivalSpeed="15.85" duration="168.00" routeLength="1303.99" waitingTime="32.00" waitingCount="6" stopTime="0.00" timeLoss="65.96" rerouteNo="0" devices="tripinfo_f_0_0.1" vType="type1" speedFactor="0.89" vaporized=""/>
    <tripinfo id="f_0_2.0" depart="0.00" departLane="np2_nt2_0" departPos="51.07" departSpeed="0.00" departDelay="0.00" arrival="192.00" arrivalLane="nt15_np10_0" arrivalPos="75.00" arrivalSpeed="11.56" duration="192.00" routeLength="900.01" waitingTime="100.00" waitingCount="2" stopTime="0.00" timeLoss="121.16" rerouteNo="0" devices="tripinfo_f_0_2.0" vType="type1" speedFactor="1.07" vaporized=""/>
    <tripinfo id="f_0_3.0" depart="0.00" departLane="np3_nt3_0" departPos="41.30" departSpeed="0.00" departDelay="0.00" arrival="197.00" arrivalLane="nt14_np11_0" arrivalPos="75.00" arrivalSpeed="11.24" duration="197.00" routeLength="909.79" waitingTime="105.00" waitingCount="3" stopTime="0.00" timeLoss="127.70" rerouteNo="0" devices="tripinfo_f_0_3.0" vType="type1" speedFactor="1.10" vaporized=""/>
    <tripinfo id="f_0_3.1" depart="9.00" departLane="np3_nt3_0" departPos="5.72" departSpeed="0.00" departDelay="0.82" arrival="199.00" arrivalLane="nt14_np11_0" arrivalPos="75.00" arrivalSpeed="10.76" duration="190.00" routeLength="945.37" waitingTime="85.00" waitingCount="3" stopTime="0.00" timeLoss="109.73" rerouteNo="0" devices="tripinfo_f_0_3.1" vType="type1" speedFactor="0.99" vaporized=""/>
    <tripinfo id="f_0_2.1" depart="9.00" departLane="np2_nt2_0" departPos="16.86" departSpeed="0.00" departDelay="0.82" arrival="204.00" arrivalLane="nt15_np10_0" arrivalPos="75.00" arrivalSpeed="7.41" duration="195.00" routeLength="934.22" waitingTime="70.00" waitingCount="4" stopTime="0.00" timeLoss="100.73" rerouteNo="0" devices="tripinfo_f_0_2.1" vType="type1" speedFactor="0.83" vaporized=""/>
    <tripinfo id="f_0_0.2" depart="28.00" departLane="np13_nt13_0" departPos="31.50" departSpeed="0.00" departDelay="0.73" arrival="207.00" arrivalLane="nt4_np5_0" arrivalPos="75.00" arrivalSpeed="17.09" duration="179.00" routeLength="1316.39" waitingTime="48.00" waitingCount="4" stopTime="0.00" timeLoss="80.53" rerouteNo="0" devices="tripinfo_f_0_0.2" vType="type1" speedFactor="0.93" vaporized=""/>
    <tripinfo id="f_0_2.2" depart="17.00" departLane="np2_nt2_0" departPos="39.50" departSpeed="0.00" departDelay="0.64" arrival="227.00" arrivalLane="nt15_np10_0" arrivalPos="75.00" arrivalSpeed="10.55" duration="210.00" routeLength="911.58" waitingTime="91.00" waitingCount="6" stopTime="0.00" timeLoss="139.48" rerouteNo="0" devices="tripinfo_f_0_2.2" vType="type1" speedFactor="1.09" vaporized=""/>
    <tripinfo id="f_0_3.2" depart="17.00" departLane="np3_nt3_0" departPos="20.63" departSpeed="0.00" departDelay="0.64" arrival="233.00" arrivalLane="nt14_np11_0" arrivalPos="75.00" arrivalSpeed="10.36" duration="216.00" routeLength="930.46" waitingTime="105.00" waitingCount="7" stopTime="0.00" timeLoss="138.43" rerouteNo="0" devices="tripinfo_f_0_3.2" vType="type1" speedFactor="1.01" vaporized=""/>
    <tripinfo id="f_0_0.3" depart="41.00" departLane="np13_nt13_0" departPos="21.53" departSpeed="0.00" departDelay="0.09" arrival="240.00" arrivalLane="nt4_np5_0" arrivalPos="75.00" arrivalSpeed="20.88" duration="199.00" routeLength="1326.36" waitingTime="83.00" waitingCount="5" stopTime="0.00" timeLoss="110.98" rerouteNo="0" devices="tripinfo_f_0_0.3" vType="type1" speedFactor="1.05" vaporized=""/>
    <tripinfo id="f_0_2.3" depart="25.00" departLane="np2_nt2_0" departPos="21.41" departSpeed="0.00" departDelay="0.45" arrival="247.00" arrivalLane="nt15_np10_0" arrivalPos="75.00" arrivalSpeed="9.83" duration="222.00" routeLength="929.67" waitingTime="98.00" waitingCount="8" stopTime="0.00" timeLoss="147.26" rerouteNo="0" devices="tripinfo_f_0_2.3" vType="type1" speedFactor="1.04" vaporized=""/>
    <tripinfo id="f_0_3.3" depart="25.00" departLane="np3_nt3_0" departPos="38.60" departSpeed="0.00" departDelay="0.45" arrival="263.00" arrivalLane="nt14_np11_0" arrivalPos="75.00" arrivalSpeed="8.53" duration="238.00" routeLength="912.49" waitingTime="120.00" waitingCount="6" stopTime="0.00" timeLoss="155.28" rerouteNo="0" devices="tripinfo_f_0_3.3" vType="type1" speedFactor="0.93" vaporized=""/>
    <tripinfo id="f_0_2.4" depart="33.00" departLane="np2_nt2_0" departPos="10.19" departSpeed="0.00" departDelay="0.27" arrival="277.00" arrivalLane="nt15_np10_0" arrivalPos="75.00" arrivalSpeed="10.74" duration="244.00" routeLength="940.89" waitingTime="114.00" waitingCount="7" stopTime="0.00" timeLoss="164.36" rerouteNo="0" devices="tripinfo_f_0_2.4" vType="type1" speedFactor="1.00" vaporized=""/>
    <tripinfo id="f_0_0.4" depart="55.00" departLane="np13_nt13_0" departPos="41.06" departSpeed="0.00" departDelay="0.46" arrival="277.00" arrivalLane="nt4_np5_0" arrivalPos="75.00" arrivalSpeed="19.37" duration="222.00" routeLength="1306.83" waitingTime="98.00" waitingCount="5" stopTime="0.00" timeLoss="132.87" rerouteNo="0" devices="tripinfo_f_0_0.4" vType="type1" speedFactor="1.02" vaporized=""/>
    <tripinfo id="f_0_2.5" depart="41.00" departLane="np2_nt2_0" departPos="51.91" departSpeed="0.00" departDelay="0.09" arrival="279.00" arrivalLane="nt15_np10_0" arrivalPos="75.00" arrivalSpeed="10.28" duration="238.00" routeLength="899.17" waitingTime="128.00" waitingCount="8" stopTime="0.00" timeLoss="172.21" rerouteNo="0" devices="tripinfo_f_0_2.5" vType="type1" speedFactor="1.16" vaporized=""/>
    <tripinfo id="f_0_3.4" depart="33.00" departLane="np3_nt3_0" departPos="4.73" departSpeed="0.00" departDelay="0.27" arrival="286.00" arrivalLane="nt14_np11_0" arrivalPos="75.00" arrivalSpeed="10.67" duration="253.00" routeLength="946.36" waitingTime="143.00" waitingCount="6" stopTime="0.00" timeLoss="183.53" rerouteNo="0" devices="tripinfo_f_0_3.4" vType="type1" speedFactor="1.15" vaporized=""/>
    <tripinfo id="f_0_0.5" depart="69.00" departLane="np13_nt13_0" departPos="16.02" departSpeed="0.00" departDelay="0.82" arrival="293.00" arrivalLane="nt4_np5_0" arrivalPos="75.00" arrivalSpeed="23.47" duration="224.00" routeLength="1331.87" waitingTime="103.00" waitingCount="7" stopTime="0.00" timeLoss="150.21" rerouteNo="0" devices="tripinfo_f_0_0.5" vType="type1" speedFactor="1.26" vaporized=""/>
    <tripinfo id="f_0_0.6" depart="82.00" departLane="np13_nt13_0" departPos="4.10" departSpeed="0.00" departDelay="0.18" arrival="295.00" arrivalLane="nt4_np5_0" arrivalPos="75.00" arrivalSpeed="22.63" duration="213.00" routeLength="1343.79" waitingTime="76.00" waitingCount="6" stopTime="0.00" timeLoss="130.11" rerouteNo="0" devices="tripinfo_f_0_0.6" vType="type1" speedFactor="1.13" vaporized=""/>
    <tripinfo id="f_0_3.5" depart="41.00" departLane="np3_nt3_0" departPos="28.42" departSpeed="0.00" departDelay="0.09" arrival="303.00" arrivalLane="nt14_np11_0" arrivalPos="75.00" arrivalSpeed="7.71" duration="262.00" routeLength="922.67" waitingTime="135.00" waitingCount="9" stopTime="0.00" timeLoss="177.94" rerouteNo="0" devices="tripinfo_f_0_3.5" vType="type1" speedFactor="0.92" vaporized=""/>
    <tripinfo id="f_0_3.6" depart="50.00" departLane="np3_nt3_0" departPos="19.92" departSpeed="0.00" departDelay="0.91" arrival="305.00" arrivalLane="nt14_np11_0" arrivalPos="75.00" arrivalSpeed="10.65" duration="255.00" routeLength="931.17" waitingTime="134.00" waitingCount="6" stopTime="0.00" timeLoss="176.69" rerouteNo="0" devices="tripinfo_f_0_3.6" vType="type1" speedFactor="1.00" vaporized=""/>
    <tripinfo id="f_0_2.6" depart="50.00" departLane="np2_nt2_0" departPos="54.20" departSpeed="0.00" departDelay="0.91" arrival="306.00" arrivalLane="nt15_np10_0" arrivalPos="75.00" arrivalSpeed="11.35" duration="256.00" routeLength="896.88" waitingTime="139.00" waitingCount="8" stopTime="0.00" timeLoss="189.46" rerouteNo="0" devices="tripinfo_f_0_2.6" vType="type1" speedFactor="1.12" vaporized=""/>
    <tripinfo id="f_0_0.7" depart="96.00" departLane="np13_nt13_0" departPos="49.68" departSpeed="0.00" departDelay="0.55" arrival="314.00" arrivalLane="nt4_np5_0" arrivalPos="75.00" arrivalSpeed="22.35" duration="218.00" routeLength="1298.21" waitingTime="97.00" waitingCount="7" stopTime="0.00" timeLoss="138.52" rerouteNo="0" devices="tripinfo_f_0_0.7" vType="type1" speedFactor="1.14" vaporized=""/>
    <tripinfo id="f_0_3.7" depart="58.00" departLane="np3_nt3_0" departPos="0.77" departSpeed="0.00" departDelay="0.73" arrival="318.00" arrivalLane="nt14_np11_0" arrivalPos="75.00" arrivalSpeed="8.39" duration="260.00" routeLength="950.32" waitingTime="140.00" waitingCount="7" stopTime="0.00" timeLoss="177.00" rerouteNo="0" devices="tripinfo_f_0_3.7" vType="type1" speedFactor="0.96" vaporized=""/>
    <tripinfo id="f_0_3.8" depart="66.00" departLane="np3_nt3_0" departPos="12.78" departSpeed="0.00" departDelay="0.54" arrival="320.00" arrivalLane="nt14_np11_0" arrivalPos="75.00" arrivalSpeed="9.09" duration="254.00" routeLength="938.31" waitingTime="129.00" waitingCount="7" stopTime="0.00" timeLoss="178.86" rerouteNo="0" devices="tripinfo_f_0_3.8" vType="type1" speedFactor="1.05" vaporized=""/>
    <tripinfo id="f_0_3.9" depart="74.00" departLane="np3_nt3_0" departPos="18.66" departSpeed="0.00" departDelay="0.36" arrival="327.00" arrivalLane="nt14_np11_0" arrivalPos="75.00" arrivalSpeed="9.98" duration="253.00" routeLength="932.43" waitingTime="123.00" waitingCount="8" stopTime="0.00" timeLoss="181.74" rerouteNo="0" devices="tripinfo_f_0_3.9" vType="type1" speedFactor="1.09" vaporized=""/>
    <tripinfo id="f_0_1.0" depart="0.00" departLane="np16_nt1_0" departPos="62.64" departSpeed="0.00" departDelay="0.00" arrival="334.00" arrivalLane="nt16_np8_0" arrivalPos="75.00" arrivalSpeed="17.51" duration="334.00" routeLength="1285.24" waitingTime="186.00" waitingCount="10" stopTime="0.00" timeLoss="241.09" rerouteNo="0" devices="tripinfo_f_0_1.0" vType="type1" speedFactor="0.98" vaporized=""/>
    <tripinfo id="f_0_1.1" depart="14.00" departLane="np16_nt1_0" departPos="52.05" departSpeed="0.00" departDelay="0.36" arrival="335.00" arrivalLane="nt16_np8_0" arrivalPos="75.00" arrivalSpeed="21.07" duration="321.00" routeLength="1295.83" waitingTime="162.00" waitingCount="12" stopTime="0.00" timeLoss="241.53" rerouteNo="0" devices="tripinfo_f_0_1.1" vType="type1" speedFactor="1.14" vaporized=""/>
    <tripinfo id="f_0_2.7" depart="58.00" departLane="np2_nt2_0" departPos="44.92" departSpeed="0.00" departDelay="0.73" arrival="342.00" arrivalLane="nt15_np10_0" arrivalPos="75.00" arrivalSpeed="9.47" duration="284.00" routeLength="906.16" waitingTime="150.00" waitingCount="9" stopTime="0.00" timeLoss="210.72" rerouteNo="0" devices="tripinfo_f_0_2.7" vType="type1" speedFactor="1.05" vaporized=""/>
    <tripinfo id="f_0_1.2" depart="28.00" departLane="np16_nt1_0" departPos="4.68" departSpeed="0.00" departDelay="0.73" arrival="358.00" arrivalLane="nt16_np8_0" arrivalPos="75.00" arrivalSpeed="18.40" duration="330.00" routeLength="1343.20" waitingTime="163.00" waitingCount="12" stopTime="0.00" timeLoss="234.48" rerouteNo="0" devices="tripinfo_f_0_1.2" vType="type1" speedFactor="0.98" vaporized=""/>
    <tripinfo id="f_0_3.10" depart="82.00" departLane="np3_nt3_0" departPos="10.18" departSpeed="0.00" departDelay="0.18" arrival="359.00" arrivalLane="nt14_np11_0" arrivalPos="75.00" arrivalSpeed="7.21" duration="277.00" routeLength="940.91" waitingTime="126.00" waitingCount="7" stopTime="0.00" timeLoss="180.92" rerouteNo="0" devices="tripinfo_f_0_3.10" vType="type1" speedFactor="0.83" vaporized=""/>
    <tripinfo id="f_0_0.8" depart="110.00" departLane="np13_nt13_0" departPos="37.92" departSpeed="0.00" departDelay="0.91" arrival="364.00" arrivalLane="nt4_np5_0" arrivalPos="75.00" arrivalSpeed="20.74" duration="254.00" routeLength="1309.97" waitingTime="122.00" waitingCount="9" stopTime="0.00" timeLoss="170.60" rerouteNo="0" devices="tripinfo_f_0_0.8" vType="type1" speedFactor="1.09" vaporized=""/>
    <tripinfo id="f_0_0.9" depart="123.00" departLane="np13_nt13_0" departPos="61.51" departSpeed="0.00" departDelay="0.28" arrival="366.00" arrivalLane="nt4_np5_0" arrivalPos="75.00" arrivalSpeed="19.99" duration="243.00" routeLength="1286.38" waitingTime="116.00" waitingCount="9" stopTime="0.00" timeLoss="161.89" rerouteNo="0" devices="tripinfo_f_0_0.9" vType="type1" speedFactor="1.11" vaporized=""/>
    <tripinfo id="f_0_0.10" depart="137.00" departLane="np13_nt13_0" departPos="17.24" departSpeed="0.00" departDelay="0.64" arrival="368.00" arrivalLane="nt4_np5_0" arrivalPos="75.00" arrivalSpeed="23.21" duration="231.00" routeLength="1330.65" waitingTime="101.00" waitingCount="7" stopTime="0.00" timeLoss="151.35" rerouteNo="0" devices="tripinfo_f_0_0.10" vType="type1" speedFactor="1.17" vaporized=""/>
    <tripinfo id="f_0_0.11" depart="150.00" departLane="np13_nt13_0" departPos="25.59" departSpeed="0.00" departDelay="0.00" arrival="372.00" arrivalLane="nt4_np5_0" arrivalPos="75.00" arrivalSpeed="17.78" duration="222.00" routeLength="1322.30" waitingTime="83.00" waitingCount="6" stopTime="0.00" timeLoss="128.41" rerouteNo="0" devices="tripinfo_f_0_0.11" vType="type1" speedFactor="0.98" vaporized=""/>
    <tripinfo id="f_0_2.8" depart="66.00" departLane="np2_nt2_0" departPos="6.79" departSpeed="0.00" departDelay="0.54" arrival="377.00" arrivalLane="nt15_np10_0" arrivalPos="75.00" arrivalSpeed="10.72" duration="311.00" routeLength="944.29" waitingTime="164.00" waitingCount="10" stopTime="0.00" timeLoss="231.84" rerouteNo="0" devices="tripinfo_f_0_2.8" vType="type1" speedFactor="1.01" vaporized=""/>
    <tripinfo id="f_0_2.9" depart="74.00" departLane="np2_nt2_0" departPos="38.37" departSpeed="0.00" departDelay="0.36" arrival="379.00" arrivalLane="nt15_np10_0" arrivalPos="75.00" arrivalSpeed="10.50" duration="305.00" routeLength="912.71" waitingTime="160.00" waitingCount="11" stopTime="0.00" timeLoss="231.00" rerouteNo="0" devices="tripinfo_f_0_2.9" vType="type1" speedFactor="1.03" vaporized=""/>
    <tripinfo id="f_0_0.12" depart="164.00" departLane="np13_nt13_0" departPos="14.84" departSpeed="0.00" departDelay="0.37" arrival="382.00" arrivalLane="nt4_np5_0" arrivalPos="75.00" arrivalSpeed="23.27" duration="218.00" routeLength="1333.05" waitingTime="89.00" waitingCount="6" stopTime="0.00" timeLoss="142.97" rerouteNo="0" devices="tripinfo_f_0_0.12" vType="type1" speedFactor="1.23" vaporized=""/>
    <tripinfo id="f_0_1.3" depart="41.00" departLane="np16_nt1_0" departPos="46.73" departSpeed="0.00" departDelay="0.09" arrival="403.00" arrivalLane="nt16_np8_0" arrivalPos="75.00" arrivalSpeed="18.40" duration="362.00" routeLength="1301.15" waitingTime="192.00" waitingCount="13" stopTime="0.00" timeLoss="269.92" rerouteNo="0" devices="tripinfo_f_0_1.3" vType="type1" speedFactor="0.99" vaporized=""/>
    <tripinfo id="f_0_1.4" depart="55.00" departLane="np16_nt1_0" departPos="3.12" departSpeed="0.00" departDelay="0.46" arrival="405.00" arrivalLane="nt16_np8_0" arrivalPos="75.00" arrivalSpeed="20.05" duration="350.00" routeLength="1344.76" waitingTime="177.00" waitingCount="11" stopTime="0.00" timeLoss="267.12" rerouteNo="0" devices="tripinfo_f_0_1.4" vType="type1" speedFactor="1.12" vaporized=""/>
    <tripinfo id="f_0_2.10" depart="82.00" departLane="np2_nt2_0" departPos="39.85" departSpeed="0.00" departDelay="0.18" arrival="409.00" arrivalLane="nt15_np10_0" arrivalPos="75.00" arrivalSpeed="9.39" duration="327.00" routeLength="911.23" waitingTime="153.00" waitingCount="15" stopTime="0.00" timeLoss="244.71" rerouteNo="0" devices="tripinfo_f_0_2.10" vType="type1" speedFactor="0.93" vaporized=""/>
    <tripinfo id="f_0_2.11" depart="90.00" departLane="np2_nt2_0" departPos="45.86" departSpeed="0.00" departDelay="0.00" arrival="416.00" arrivalLane="nt15_np10_0" arrivalPos="75.00" arrivalSpeed="9.75" duration="326.00" routeLength="905.22" waitingTime="139.00" waitingCount="15" stopTime="0.00" timeLoss="257.89" rerouteNo="0" devices="tripinfo_f_0_2.11" vType="type1" speedFactor="1.11" vaporized=""/>
    <tripinfo id="f_0_1.5" depart="69.00" departLane="np16_nt1_0" departPos="1.05" departSpeed="0.00" departDelay="0.82" arrival="418.00" arrivalLane="nt16_np8_0" arrivalPos="75.00" arrivalSpeed="20.19" duration="349.00" routeLength="1346.83" waitingTime="172.00" waitingCount="12" stopTime="0.00" timeLoss="260.23" rerouteNo="0" devices="tripinfo_f_0_1.5" vType="type1" speedFactor="1.05" vaporized=""/>
    <tripinfo id="f_0_2.12" depart="99.00" departLane="np2_nt2_0" departPos="34.75" departSpeed="0.00" departDelay="0.82" arrival="419.00" arrivalLane="nt15_np10_0" arrivalPos="75.00" arrivalSpeed="10.27" duration="320.00" routeLength="916.33" waitingTime="133.00" waitingCount="15" stopTime="0.00" timeLoss="243.63" rerouteNo="0" devices="tripinfo_f_0_2.12" vType="type1" speedFactor="1.01" vaporized=""/>
    <tripinfo id="f_0_1.6" depart="82.00" departLane="np16_nt1_0" departPos="44.18" departSpeed="0.00" departDelay="0.18" arrival="420.00" arrivalLane="nt16_np8_0" arrivalPos="75.00" arrivalSpeed="18.66" duration="338.00" routeLength="1303.70" waitingTime="145.00" waitingCount="15" stopTime="0.00" timeLoss="241.26" rerouteNo="0" devices="tripinfo_f_0_1.6" vType="type1" speedFactor="0.94" vaporized=""/>
    <tripinfo id="f_0_2.13" depart="107.00" departLane="np2_nt2_0" departPos="22.63" departSpeed="0.00" departDelay="0.63" arrival="433.00" arrivalLane="nt15_np10_0" arrivalPos="75.00" arrivalSpeed="8.73" duration="326.00" routeLength="928.45" waitingTime="137.00" waitingCount="15" stopTime="0.00" timeLoss="241.56" rerouteNo="0" devices="tripinfo_f_0_2.13" vType="type1" speedFactor="0.92" vaporized=""/>
    <tripinfo id="f_0_2.14" depart="115.00" departLane="np2_nt2_0" departPos="32.55" departSpeed="0.00" departDelay="0.45" arrival="435.00" arrivalLane="nt15_np10_0" arrivalPos="75.00" arrivalSpeed="8.34" duration="320.00" routeLength="918.53" waitingTime="125.00" waitingCount="13" stopTime="0.00" timeLoss="240.30" rerouteNo="0" devices="tripinfo_f_0_2.14" vType="type1" speedFactor="0.96" vaporized=""/>
    <tripinfo id="f_0_2.15" depart="123.00" departLane="np2_nt2_0" departPos="27.32" departSpeed="0.00" departDelay="0.27" arrival="437.00" arrivalLane="nt15_np10_0" arrivalPos="75.00" arrivalSpeed="8.43" duration="314.00" routeLength="923.76" waitingTime="120.00" waitingCount="13" stopTime="0.00" timeLoss="229.07" rerouteNo="0" devices="tripinfo_f_0_2.15" vType="type1" speedFactor="0.91" vaporized=""/>
    <tripinfo id="f_0_3.11" depart="90.00" departLane="np3_nt3_0" departPos="1.99" departSpeed="0.00" departDelay="0.00" arrival="447.00" arrivalLane="nt14_np11_0" arrivalPos="75.00" arrivalSpeed="10.46" duration="357.00" routeLength="949.10" waitingTime="226.00" waitingCount="7" stopTime="0.00" timeLoss="281.75" rerouteNo="0" devices="tripinfo_f_0_3.11" vType="type1" speedFactor="1.07" vaporized=""/>
    <tripinfo id="f_0_3.12" depart="99.00" departLane="np3_nt3_0" departPos="1.16" departSpeed="0.00" departDelay="0.82" arrival="449.00" arrivalLane="nt14_np11_0" arrivalPos="75.00" arrivalSpeed="10.51" duration="350.00" routeLength="949.93" waitingTime="212.00" waitingCount="8" stopTime="0.00" timeLoss="268.03" rerouteNo="0" devices="tripinfo_f_0_3.12" vType="type1" speedFactor="0.98" vaporized=""/>
    <tripinfo id="f_0_1.7" depart="96.00" departLane="np16_nt1_0" departPos="65.52" departSpeed="0.00" departDelay="0.55" arrival="458.00" arrivalLane="nt16_np8_0" arrivalPos="75.00" arrivalSpeed="19.90" duration="362.00" routeLength="1282.36" waitingTime="173.00" waitingCount="16" stopTime="0.00" timeLoss="276.84" rerouteNo="0" devices="tripinfo_f_0_1.7" vType="type1" speedFactor="1.06" vaporized=""/>
    <tripinfo id="f_0_2.16" depart="131.00" departLane="np2_nt2_0" departPos="37.99" departSpeed="0.00" departDelay="0.09" arrival="463.00" arrivalLane="nt15_np10_0" arrivalPos="75.00" arrivalSpeed="9.66" duration="332.00" routeLength="913.09" waitingTime="157.00" waitingCount="12" stopTime="0.00" timeLoss="255.60" rerouteNo="0" devices="tripinfo_f_0_2.16" vType="type1" speedFactor="1.01" vaporized=""/>
    <tripinfo id="f_0_3.13" depart="107.00" departLane="np3_nt3_0" departPos="0.00" departSpeed="0.00" departDelay="0.63" arrival="473.00" arrivalLane="nt14_np11_0" arrivalPos="75.00" arrivalSpeed="9.53" duration="366.00" routeLength="951.09" waitingTime="223.00" waitingCount="11" stopTime="0.00" timeLoss="280.56" rerouteNo="0" devices="tripinfo_f_0_3.13" vType="type1" speedFactor="0.94" vaporized=""/>
    <tripinfo id="f_0_3.14" depart="163.00" departLane="np3_nt3_0" departPos="0.00" departSpeed="0.00" departDelay="48.45" arrival="474.00" arrivalLane="nt14_np11_0" arrivalPos="75.00" arrivalSpeed="11.26" duration="311.00" routeLength="951.09" waitingTime="171.00" waitingCount="9" stopTime="0.00" timeLoss="237.17" rerouteNo="0" devices="tripinfo_f_0_3.14" vType="type1" speedFactor="1.08" vaporized=""/>
    <tripinfo id="f_0_0.13" depart="178.00" departLane="np13_nt13_0" departPos="16.15" departSpeed="0.00" departDelay="0.73" arrival="475.00" arrivalLane="nt4_np5_0" arrivalPos="75.00" arrivalSpeed="14.50" duration="297.00" routeLength="1331.74" waitingTime="132.00" waitingCount="6" stopTime="0.00" timeLoss="172.33" rerouteNo="0" devices="tripinfo_f_0_0.13" vType="type1" speedFactor="0.74" vaporized=""/>
    <tripinfo id="f_0_3.15" depart="172.00" departLane="np3_nt3_0" departPos="0.00" departSpeed="0.00" departDelay="49.27" arrival="481.00" arrivalLane="nt14_np11_0" arrivalPos="75.00" arrivalSpeed="10.66" duration="309.00" routeLength="951.09" waitingTime="169.00" waitingCount="12" stopTime="0.00" timeLoss="238.33" rerouteNo="0" devices="tripinfo_f_0_3.15" vType="type1" speedFactor="1.13" vaporized=""/>
    <tripinfo id="f_0_3.16" depart="176.00" departLane="np3_nt3_0" departPos="0.00" departSpeed="0.00" departDelay="45.09" arrival="497.00" arrivalLane="nt14_np11_0" arrivalPos="75.00" arrivalSpeed="9.82" duration="321.00" routeLength="951.09" waitingTime="175.00" waitingCount="11" stopTime="0.00" timeLoss="246.34" rerouteNo="0" devices="tripinfo_f_0_3.16" vType="type1" speedFactor="1.07" vaporized=""/>
    <tripinfo id="f_0_0.14" depart="191.00" departLane="np13_nt13_0" departPos="18.23" departSpeed="0.00" departDelay="0.10" arrival="518.00" arrivalLane="nt4_np5_0" arrivalPos="75.00" arrivalSpeed="18.64" duration="327.00" routeLength="1329.66" waitingTime="180.00" waitingCount="8" stopTime="0.00" timeLoss="235.70" rerouteNo="0" devices="tripinfo_f_0_0.14" vType="type1" speedFactor="1.01" vaporized=""/>
    <tripinfo id="f_0_0.15" depart="205.00" departLane="np13_nt13_0" departPos="7.16" departSpeed="0.00" departDelay="0.46" arrival="520.00" arrivalLane="nt4_np5_0" arrivalPos="75.00" arrivalSpeed="19.75" duration="315.00" routeLength="1340.73" waitingTime="155.00" waitingCount="9" stopTime="0.00" timeLoss="228.82" rerouteNo="0" devices="tripinfo_f_0_0.15" vType="type1" speedFactor="1.07" vaporized=""/>
    <tripinfo id="f_0_3.17" depart="180.00" departLane="np3_nt3_0" departPos="0.00" departSpeed="0.00" departDelay="40.91" arrival="521.00" arrivalLane="nt14_np11_0" arrivalPos="75.00" arrivalSpeed="11.13" duration="341.00" routeLength="951.09" waitingTime="189.00" waitingCount="12" stopTime="0.00" timeLoss="273.26" rerouteNo="0" devices="tripinfo_f_0_3.17" vType="type1" speedFactor="1.18" vaporized=""/>
    <tripinfo id="f_0_3.18" depart="197.00" departLane="np3_nt3_0" departPos="0.59" departSpeed="0.00" departDelay="49.72" arrival="525.00" arrivalLane="nt14_np11_0" arrivalPos="75.00" arrivalSpeed="8.58" duration="328.00" routeLength="950.50" waitingTime="171.00" waitingCount="11" stopTime="0.00" timeLoss="244.67" rerouteNo="0" devices="tripinfo_f_0_3.18" vType="type1" speedFactor="0.96" vaporized=""/>
    <tripinfo id="f_0_2.17" depart="140.00" departLane="np2_nt2_0" departPos="44.68" departSpeed="0.00" departDelay="0.91" arrival="526.00" arrivalLane="nt15_np10_0" arrivalPos="75.00" arrivalSpeed="10.04" duration="386.00" routeLength="906.40" waitingTime="217.00" waitingCount="15" stopTime="0.00" timeLoss="318.04" rerouteNo="0" devices="tripinfo_f_0_2.17" vType="type1" speedFactor="1.12" vaporized=""/>
    <tripinfo id="f_0_3.19" depart="201.00" departLane="np3_nt3_0" departPos="0.00" departSpeed="0.00" departDelay="45.54" arrival="527.00" arrivalLane="nt14_np11_0" arrivalPos="75.00" arrivalSpeed="9.16" duration="326.00" routeLength="951.09" waitingTime="183.00" waitingCount="10" stopTime="0.00" timeLoss="250.51" rerouteNo="0" devices="tripinfo_f_0_3.19" vType="type1" speedFactor="1.06" vaporized=""/>
    <tripinfo id="f_0_0.16" depart="219.00" departLane="np13_nt13_0" departPos="37.53" departSpeed="0.00" departDelay="0.82" arrival="548.00" arrivalLane="nt4_np5_0" arrivalPos="75.00" arrivalSpeed="19.00" duration="329.00" routeLength="1310.36" waitingTime="169.00" waitingCount="12" stopTime="0.00" timeLoss="242.98" rerouteNo="0" devices="tripinfo_f_0_0.16" vType="type1" speedFactor="1.06" vaporized=""/>
    <tripinfo id="f_0_0.17" depart="232.00" departLane="np13_nt13_0" departPos="20.15" departSpeed="0.00" departDelay="0.19" arrival="550.00" arrivalLane="nt4_np5_0" arrivalPos="75.00" arrivalSpeed="22.51" duration="318.00" routeLength="1327.74" waitingTime="170.00" waitingCount="13" stopTime="0.00" timeLoss="239.86" rerouteNo="0" devices="tripinfo_f_0_0.17" vType="type1" speedFactor="1.18" vaporized=""/>
    <tripinfo id="f_0_0.18" depart="246.00" departLane="np13_nt13_0" departPos="9.52" departSpeed="0.00" departDelay="0.55" arrival="551.00" arrivalLane="nt4_np5_0" arrivalPos="75.00" arrivalSpeed="20.87" duration="305.00" routeLength="1338.37" waitingTime="150.00" waitingCount="12" stopTime="0.00" timeLoss="221.13" rerouteNo="0" devices="tripinfo_f_0_0.18" vType="type1" speedFactor="1.10" vaporized=""/>
    <tripinfo id="f_0_3.20" depart="233.00" departLane="np3_nt3_0" departPos="0.00" departSpeed="0.00" departDelay="69.36" arrival="573.00" arrivalLane="nt14_np11_0" arrivalPos="75.00" arrivalSpeed="8.47" duration="340.00" routeLength="951.09" waitingTime="193.00" waitingCount="10" stopTime="0.00" timeLoss="251.62" rerouteNo="0" devices="tripinfo_f_0_3.20" vType="type1" speedFactor="0.90" vaporized=""/>
    <tripinfo id="f_0_0.19" depart="260.00" departLane="np13_nt13_0" departPos="59.29" departSpeed="0.00" departDelay="0.92" arrival="573.00" arrivalLane="nt4_np5_0" arrivalPos="75.00" arrivalSpeed="17.02" duration="313.00" routeLength="1288.60" waitingTime="141.00" waitingCount="14" stopTime="0.00" timeLoss="214.00" rerouteNo="0" devices="tripinfo_f_0_0.19" vType="type1" speedFactor="0.91" vaporized=""/>
    <tripinfo id="f_0_2.18" depart="148.00" departLane="np2_nt2_0" departPos="24.51" departSpeed="0.00" departDelay="0.72" arrival="578.00" arrivalLane="nt15_np10_0" arrivalPos="75.00" arrivalSpeed="8.91" duration="430.00" routeLength="926.57" waitingTime="241.00" waitingCount="14" stopTime="0.00" timeLoss="342.89" rerouteNo="0" devices="tripinfo_f_0_2.18" vType="type1" speedFactor="0.89" vaporized=""/>
    <tripinfo id="f_0_0.20" depart="273.00" departLane="np13_nt13_0" departPos="39.77" departSpeed="0.00" departDelay="0.28" arrival="589.00" arrivalLane="nt4_np5_0" arrivalPos="75.00" arrivalSpeed="18.41" duration="316.00" routeLength="1308.12" waitingTime="144.00" waitingCount="13" stopTime="0.00" timeLoss="221.40" rerouteNo="0" devices="tripinfo_f_0_0.20" vType="type1" speedFactor="0.96" vaporized=""/>
    <tripinfo id="f_0_0.21" depart="287.00" departLane="np13_nt13_0" departPos="20.87" departSpeed="0.00" departDelay="0.64" arrival="590.00" arrivalLane="nt4_np5_0" arrivalPos="75.00" arrivalSpeed="20.11" duration="303.00" routeLength="1327.02" waitingTime="125.00" waitingCount="13" stopTime="0.00" timeLoss="219.03" rerouteNo="0" devices="tripinfo_f_0_0.21" vType="type1" speedFactor="1.10" vaporized=""/>
    <tripinfo id="f_0_1.15" depart="205.00" departLane="np16_nt1_0" departPos="22.64" departSpeed="0.00" departDelay="0.46" arrival="593.00" arrivalLane="nt16_np8_0" arrivalPos="75.00" arrivalSpeed="19.71" duration="388.00" routeLength="1325.24" waitingTime="198.00" waitingCount="15" stopTime="0.00" timeLoss="298.87" rerouteNo="0" devices="tripinfo_f_0_1.15" vType="type1" speedFactor="1.03" vaporized=""/>