<?xml version="1.0" encoding="UTF-8"?>

<!-- generated on 2023-08-30 19:24:48 by Eclipse SUMO libsumo Version 1.18.0
<configuration xmlns:xsi="http://www.w3.org/2001/XMLSchema-instance" xsi:noNamespaceSchemaLocation="http://sumo.dlr.de/xsd/libsumoConfiguration.xsd">

    <input>
        <net-file value="/home/stefan/RESCO/./environments/arterial4x4/arterial4x4.net.xml"/>
        <route-files value="/home/stefan/RESCO/./environments/arterial4x4/arterial4x4_78.rou.xml"/>
    </input>

    <output>
        <tripinfo-output value="/home/stefan/results/RAINBOW-tr0-arterial4x4-0-drq_norm-wait_norm/tripinfo_78.xml"/>
        <tripinfo-output.write-unfinished value="true"/>
    </output>

    <processing>
        <time-to-teleport value="-1"/>
    </processing>

    <report>
        <no-warnings value="True"/>
        <no-step-log value="True"/>
    </report>

    <random_number>
        <random value="true"/>
    </random_number>

</configuration>
-->

<tripinfos xmlns:xsi="http://www.w3.org/2001/XMLSchema-instance" xsi:noNamespaceSchemaLocation="http://sumo.dlr.de/xsd/tripinfo_file.xsd">
    <tripinfo id="f_3_5.0" depart="900.00" departLane="np8_nt16_0" departPos="51.61" departSpeed="0.00" departDelay="0.00" arrival="1677.00" arrivalLane="nt1_np16_0" arrivalPos="67.80" arrivalSpeed="19.32" duration="777.00" routeLength="1296.27" waitingTime="668.00" waitingCount="5" stopTime="0.00" timeLoss="691.35" rerouteNo="0" devices="tripinfo_f_3_5.0" vType="type1" speedFactor="1.07" vaporized=""/>
    <tripinfo id="f_3_5.1" depart="922.00" departLane="np8_nt16_0" departPos="60.99" departSpeed="0.00" departDelay="0.31" arrival="1682.00" arrivalLane="nt1_np16_0" arrivalPos="67.80" arrivalSpeed="17.11" duration="760.00" routeLength="1286.89" waitingTime="633.00" waitingCount="5" stopTime="0.00" timeLoss="660.38" rerouteNo="0" devices="tripinfo_f_3_5.1" vType="type1" speedFactor="0.91" vaporized=""/>
    <tripinfo id="f_0_2.0" depart="0.00" departLane="np2_nt2_0" departPos="17.32" departSpeed="0.00" departDelay="0.00" arrival="1993.00" arrivalLane="nt15_np10_0" arrivalPos="75.00" arrivalSpeed="9.86" duration="1993.00" routeLength="933.76" waitingTime="1886.00" waitingCount="4" stopTime="0.00" timeLoss="1907.20" rerouteNo="0" devices="tripinfo_f_0_2.0" vType="type1" speedFactor="0.92" vaporized=""/>
    <tripinfo id="f_3_4.0" depart="900.00" departLane="np5_nt4_0" departPos="6.94" departSpeed="0.00" departDelay="0.00" arrival="2154.00" arrivalLane="nt13_np13_1" arrivalPos="67.80" arrivalSpeed="20.68" duration="1254.00" routeLength="1340.95" waitingTime="1141.00" waitingCount="5" stopTime="0.00" timeLoss="1173.37" rerouteNo="0" devices="tripinfo_f_3_4.0" vType="type1" speedFactor="1.15" vaporized=""/>
    <tripinfo id="f_3_4.1" depart="922.00" departLane="np5_nt4_0" departPos="30.42" departSpeed="0.00" departDelay="0.31" arrival="2156.00" arrivalLane="nt13_np13_1" arrivalPos="67.80" arrivalSpeed="21.16" duration="1234.00" routeLength="1317.47" waitingTime="1116.00" waitingCount="5" stopTime="0.00" timeLoss="1148.80" rerouteNo="0" devices="tripinfo_f_3_4.1" vType="type1" speedFactor="1.07" vaporized=""/>
    <tripinfo id="f_0_0.0" depart="0.00" departLane="np13_nt13_0" departPos="41.90" departSpeed="0.00" departDelay="0.00" arrival="2628.00" arrivalLane="nt4_np5_0" arrivalPos="75.00" arrivalSpeed="19.94" duration="2628.00" routeLength="1305.99" waitingTime="2508.00" waitingCount="6" stopTime="0.00" timeLoss="2541.35" rerouteNo="0" devices="tripinfo_f_0_0.0" vType="type1" speedFactor="1.05" vaporized=""/>
    <tripinfo id="f_0_0.1" depart="14.00" departLane="np13_nt13_0" departPos="23.60" departSpeed="0.00" departDelay="0.36" arrival="2630.00" arrivalLane="nt4_np5_0" arrivalPos="75.00" arrivalSpeed="17.93" duration="2616.00" routeLength="1324.29" waitingTime="2485.00" waitingCount="7" stopTime="0.00" timeLoss="2523.22" rerouteNo="0" devices="tripinfo_f_0_0.1" vType="type1" speedFactor="0.99" vaporized=""/>
    <tripinfo id="f_3_4.2" depart="944.00" departLane="np5_nt4_0" departPos="25.65" departSpeed="0.00" departDelay="0.63" arrival="2861.00" arrivalLane="nt13_np13_1" arrivalPos="67.80" arrivalSpeed="20.62" duration="1917.00" routeLength="1322.24" waitingTime="1795.00" waitingCount="6" stopTime="0.00" timeLoss="1835.59" rerouteNo="0" devices="tripinfo_f_3_4.2" vType="type1" speedFactor="1.13" vaporized=""/>
    <tripinfo id="f_3_5.2" depart="944.00" departLane="np8_nt16_0" departPos="16.18" departSpeed="0.00" departDelay="0.63" arrival="3272.00" arrivalLane="nt1_np16_0" arrivalPos="67.80" arrivalSpeed="22.85" duration="2328.00" routeLength="1331.70" waitingTime="2214.00" waitingCount="7" stopTime="0.00" timeLoss="2256.42" rerouteNo="0" devices="tripinfo_f_3_5.2" vType="type1" speedFactor="1.29" vaporized=""/>
    <tripinfo id="f_3_6.0" depart="900.00" departLane="np10_nt15_0" departPos="50.41" departSpeed="0.00" departDelay="0.00" arrival="3425.00" arrivalLane="nt2_np2_0" arrivalPos="64.60" arrivalSpeed="13.16" duration="2525.00" routeLength="900.67" waitingTime="2441.00" waitingCount="4" stopTime="0.00" timeLoss="2462.30" rerouteNo="0" devices="tripinfo_f_3_6.0" vType="type1" speedFactor="1.21" vaporized=""/>
    <tripinfo id="f_0_1.0" depart="0.00" departLane="np16_nt1_0" departPos="52.94" departSpeed="0.00" departDelay="0.00" arrival="-1.00" arrivalLane="" arrivalPos="-1.00" arrivalSpeed="-1.00" duration="3600.00" routeLength="383.85" waitingTime="3558.00" waitingCount="4" stopTime="0.00" timeLoss="3576.59" rerouteNo="0" devices="tripinfo_f_0_1.0" vType="type1" speedFactor="0.86" vaporized="end"/>
    <tripinfo id="f_0_3.0" depart="0.00" departLane="np3_nt3_0" departPos="24.62" departSpeed="0.00" departDelay="0.00" arrival="-1.00" arrivalLane="" arrivalPos="-1.00" arrivalSpeed="-1.00" duration="3600.00" routeLength="829.67" waitingTime="3505.00" waitingCount="5" stopTime="0.00" timeLoss="3525.53" rerouteNo="0" devices="tripinfo_f_0_3.0" vType="type1" speedFactor="0.93" vaporized="end"/>
    <tripinfo id="f_0_2.1" depart="9.00" departLane="np2_nt2_0" departPos="4.41" departSpeed="0.00" departDelay="0.82" arrival="-1.00" arrivalLane="" arrivalPos="-1.00" arrivalSpeed="-1.00" duration="3591.00" routeLength="650.56" waitingTime="3511.00" waitingCount="4" stopTime="0.00" timeLoss="3530.19" rerouteNo="0" devices="tripinfo_f_0_2.1" vType="type1" speedFactor="0.88" vaporized="end"/>
    <tripinfo id="f_0_3.1" depart="9.00" departLane="np3_nt3_0" departPos="2.42" departSpeed="0.00" departDelay="0.82" arrival="-1.00" arrivalLane="" arrivalPos="-1.00" arrivalSpeed="-1.00" duration="3591.00" routeLength="844.36" waitingTime="3490.00" waitingCount="5" stopTime="0.00" timeLoss="3524.35" rerouteNo="0" devices="tripinfo_f_0_3.1" vType="type1" speedFactor="1.06" vaporized="end"/>
    <tripinfo id="f_0_1.1" depart="14.00" departLane="np16_nt1_0" departPos="49.97" departSpeed="0.00" departDelay="0.36" arrival="-1.00" arrivalLane="" arrivalPos="-1.00" arrivalSpeed="-1.00" duration="3586.00" routeLength="240.94" waitingTime="3561.00" waitingCount="3" stopTime="0.00" timeLoss="3571.20" rerouteNo="0" devices="tripinfo_f_0_1.1" vType="type1" speedFactor="0.87" vaporized="end"/>
    <tripinfo id="f_0_2.2" depart="17.00" departLane="np2_nt2_0" departPos="6.11" departSpeed="0.00" departDelay="0.64" arrival="-1.00" arrivalLane="" arrivalPos="-1.00" arrivalSpeed="-1.00" duration="3583.00" routeLength="641.35" waitingTime="3508.00" waitingCount="4" stopTime="0.00" timeLoss="3535.89" rerouteNo="0" devices="tripinfo_f_0_2.2" vType="type1" speedFactor="1.10" vaporized="end"/>
    <tripinfo id="f_0_3.2" depart="17.00" departLane="np3_nt3_0" departPos="8.09" departSpeed="0.00" departDelay="0.64" arrival="-1.00" arrivalLane="" arrivalPos="-1.00" arrivalSpeed="-1.00" duration="3583.00" routeLength="831.20" waitingTime="3472.00" waitingCount="6" stopTime="0.00" timeLoss="3500.66" rerouteNo="0" devices="tripinfo_f_0_3.2" vType="type1" speedFactor="0.85" vaporized="end"/>
    <tripinfo id="f_0_2.3" depart="25.00" departLane="np2_nt2_0" departPos="45.71" departSpeed="0.00" departDelay="0.45" arrival="-1.00" arrivalLane="" arrivalPos="-1.00" arrivalSpeed="-1.00" duration="3575.00" routeLength="594.25" waitingTime="3500.00" waitingCount="3" stopTime="0.00" timeLoss="3527.77" rerouteNo="0" devices="tripinfo_f_0_2.3" vType="type1" speedFactor="1.02" vaporized="end"/>
    <tripinfo id="f_0_3.3" depart="25.00" departLane="np3_nt3_0" departPos="24.80" departSpeed="0.00" departDelay="0.45" arrival="-1.00" arrivalLane="" arrivalPos="-1.00" arrivalSpeed="-1.00" duration="3575.00" routeLength="806.99" waitingTime="3460.00" waitingCount="6" stopTime="0.00" timeLoss="3510.24" rerouteNo="0" devices="tripinfo_f_0_3.3" vType="type1" speedFactor="1.04" vaporized="end"/>
    <tripinfo id="f_0_0.2" depart="28.00" departLane="np13_nt13_0" departPos="24.08" departSpeed="0.00" departDelay="0.73" arrival="-1.00" arrivalLane="" arrivalPos="-1.00" arrivalSpeed="-1.00" duration="3572.00" routeLength="630.95" waitingTime="3496.00" waitingCount="6" stopTime="0.00" timeLoss="3526.58" rerouteNo="0" devices="tripinfo_f_0_0.2" vType="type1" speedFactor="0.90" vaporized="end"/>
    <tripinfo id="f_0_1.2" depart="28.00" departLane="np16_nt1_0" departPos="42.08" departSpeed="0.00" departDelay="0.73" arrival="-1.00" arrivalLane="" arrivalPos="-1.00" arrivalSpeed="-1.00" duration="3572.00" routeLength="224.72" waitingTime="3547.00" waitingCount="3" stopTime="0.00" timeLoss="3560.58" rerouteNo="0" devices="tripinfo_f_0_1.2" vType="type1" speedFactor="1.08" vaporized="end"/>
    <tripinfo id="f_0_2.4" depart="33.00" departLane="np2_nt2_0" departPos="48.97" departSpeed="0.00" departDelay="0.27" arrival="-1.00" arrivalLane="" arrivalPos="-1.00" arrivalSpeed="-1.00" duration="3567.00" routeLength="583.49" waitingTime="3497.00" waitingCount="3" stopTime="0.00" timeLoss="3516.56" rerouteNo="0" devices="tripinfo_f_0_2.4" vType="type1" speedFactor="0.93" vaporized="end"/>
    <tripinfo id="f_0_3.4" depart="33.00" departLane="np3_nt3_0" departPos="29.02" departSpeed="0.00" departDelay="0.27" arrival="-1.00" arrivalLane="" arrivalPos="-1.00" arrivalSpeed="-1.00" duration="3567.00" routeLength="787.76" waitingTime="3442.00" waitingCount="9" stopTime="0.00" timeLoss="3503.17" rerouteNo="0" devices="tripinfo_f_0_3.4" vType="type1" speedFactor="1.03" vaporized="end"/>
    <tripinfo id="f_0_0.3" depart="41.00" departLane="np13_nt13_0" departPos="5.62" departSpeed="0.00" departDelay="0.09" arrival="-1.00" arrivalLane="" arrivalPos="-1.00" arrivalSpeed="-1.00" duration="3559.00" routeLength="275.82" waitingTime="3507.00" waitingCount="7" stopTime="0.00" timeLoss="3542.42" rerouteNo="0" devices="tripinfo_f_0_0.3" vType="type1" speedFactor="0.89" vaporized="end"/>
    <tripinfo id="f_0_1.3" depart="41.00" departLane="np16_nt1_0" departPos="0.85" departSpeed="0.00" departDelay="0.09" arrival="-1.00" arrivalLane="" arrivalPos="-1.00" arrivalSpeed="-1.00" duration="3559.00" routeLength="258.45" waitingTime="3530.00" waitingCount="3" stopTime="0.00" timeLoss="3544.81" rerouteNo="0" devices="tripinfo_f_0_1.3" vType="type1" speedFactor="0.98" vaporized="end"/>
    <tripinfo id="f_0_2.5" depart="41.00" departLane="np2_nt2_0" departPos="61.13" departSpeed="0.00" departDelay="0.09" arrival="-1.00" arrivalLane="" arrivalPos="-1.00" arrivalSpeed="-1.00" duration="3559.00" routeLength="563.83" waitingTime="3495.00" waitingCount="3" stopTime="0.00" timeLoss="3521.37" rerouteNo="0" devices="tripinfo_f_0_2.5" vType="type1" speedFactor="1.20" vaporized="end"/>
    <tripinfo id="f_0_3.5" depart="41.00" departLane="np3_nt3_0" departPos="6.89" departSpeed="0.00" departDelay="0.09" arrival="-1.00" arrivalLane="" arrivalPos="-1.00" arrivalSpeed="-1.00" duration="3559.00" routeLength="647.40" waitingTime="3447.00" waitingCount="8" stopTime="0.00" timeLoss="3505.84" rerouteNo="0" devices="tripinfo_f_0_3.5" vType="type1" speedFactor="1.00" vaporized="end"/>
    <tripinfo id="f_0_2.6" depart="50.00" departLane="np2_nt2_0" departPos="10.93" departSpeed="0.00" departDelay="0.91" arrival="-1.00" arrivalLane="" arrivalPos="-1.00" arrivalSpeed="-1.00" duration="3550.00" routeLength="606.53" waitingTime="3472.00" waitingCount="5" stopTime="0.00" timeLoss="3494.96" rerouteNo="0" devices="tripinfo_f_0_2.6" vType="type1" speedFactor="0.89" vaporized="end"/>
    <tripinfo id="f_0_3.6" depart="50.00" departLane="np3_nt3_0" departPos="4.42" departSpeed="0.00" departDelay="0.91" arrival="-1.00" arrivalLane="" arrivalPos="-1.00" arrivalSpeed="-1.00" duration="3550.00" routeLength="642.37" waitingTime="3426.00" waitingCount="8" stopTime="0.00" timeLoss="3494.23" rerouteNo="0" devices="tripinfo_f_0_3.6" vType="type1" speedFactor="0.94" vaporized="end"/>
    <tripinfo id="f_0_0.4" depart="55.00" departLane="np13_nt13_0" departPos="3.99" departSpeed="0.00" departDelay="0.46" arrival="-1.00" arrivalLane="" arrivalPos="-1.00" arrivalSpeed="-1.00" duration="3545.00" routeLength="262.80" waitingTime="3499.00" waitingCount="8" stopTime="0.00" timeLoss="3530.92" rerouteNo="0" devices="tripinfo_f_0_0.4" vType="type1" speedFactor="1.00" vaporized="end"/>
    <tripinfo id="f_0_1.4" depart="55.00" departLane="np16_nt1_0" departPos="60.58" departSpeed="0.00" departDelay="0.46" arrival="-1.00" arrivalLane="" arrivalPos="-1.00" arrivalSpeed="-1.00" duration="3545.00" routeLength="191.22" waitingTime="3519.00" waitingCount="3" stopTime="0.00" timeLoss="3534.05" rerouteNo="0" devices="tripinfo_f_0_1.4" vType="type1" speedFactor="0.96" vaporized="end"/>
    <tripinfo id="f_0_2.7" depart="58.00" departLane="np2_nt2_0" departPos="55.95" departSpeed="0.00" departDelay="0.73" arrival="-1.00" arrivalLane="" arrivalPos="-1.00" arrivalSpeed="-1.00" duration="3542.00" routeLength="554.01" waitingTime="3466.00" waitingCount="5" stopTime="0.00" timeLoss="3497.97" rerouteNo="0" devices="tripinfo_f_0_2.7" vType="type1" speedFactor="1.02" vaporized="end"/>
    <tripinfo id="f_0_3.7" depart="58.00" departLane="np3_nt3_0" departPos="2.68" departSpeed="0.00" departDelay="0.73" arrival="-1.00" arrivalLane="" arrivalPos="-1.00" arrivalSpeed="-1.00" duration="3542.00" routeLength="451.61" waitingTime="3438.00" waitingCount="8" stopTime="0.00" timeLoss="3508.27" rerouteNo="0" devices="tripinfo_f_0_3.7" vType="type1" speedFactor="1.04" vaporized="end"/>
    <tripinfo id="f_0_2.8" depart="66.00" departLane="np2_nt2_0" departPos="63.91" departSpeed="0.00" departDelay="0.54" arrival="-1.00" arrivalLane="" arrivalPos="-1.00" arrivalSpeed="-1.00" duration="3534.00" routeLength="538.55" waitingTime="3467.00" waitingCount="7" stopTime="0.00" timeLoss="3495.44" rerouteNo="0" devices="tripinfo_f_0_2.8" vType="type1" speedFactor="1.13" vaporized="end"/>
    <tripinfo id="f_0_3.8" depart="66.00" departLane="np3_nt3_0" departPos="1.61" departSpeed="0.00" departDelay="0.54" arrival="-1.00" arrivalLane="" arrivalPos="-1.00" arrivalSpeed="-1.00" duration="3534.00" routeLength="445.17" waitingTime="3416.00" waitingCount="8" stopTime="0.00" timeLoss="3496.39" rerouteNo="0" devices="tripinfo_f_0_3.8" vType="type1" speedFactor="0.92" vaporized="end"/>
    <tripinfo id="f_0_0.5" depart="69.00" departLane="np13_nt13_0" departPos="19.51" departSpeed="0.00" departDelay="0.82" arrival="-1.00" arrivalLane="" arrivalPos="-1.00" arrivalSpeed="-1.00" duration="3531.00" routeLength="239.78" waitingTime="3481.00" waitingCount="7" stopTime="0.00" timeLoss="3518.14" rerouteNo="0" devices="tripinfo_f_0_0.5" vType="type1" speedFactor="1.01" vaporized="end"/>
    <tripinfo id="f_0_1.5" depart="69.00" departLane="np16_nt1_0" departPos="21.40" departSpeed="0.00" departDelay="0.82" arrival="-1.00" arrivalLane="" arrivalPos="-1.00" arrivalSpeed="-1.00" duration="3531.00" routeLength="222.89" waitingTime="3502.00" waitingCount="3" stopTime="0.00" timeLoss="3518.71" rerouteNo="0" devices="tripinfo_f_0_1.5" vType="type1" speedFactor="0.99" vaporized="end"/>
    <tripinfo id="f_0_2.9" depart="74.00" departLane="np2_nt2_0" departPos="26.91" departSpeed="0.00" departDelay="0.36" arrival="-1.00" arrivalLane="" arrivalPos="-1.00" arrivalSpeed="-1.00" duration="3526.00" routeLength="568.04" waitingTime="3449.00" waitingCount="8" stopTime="0.00" timeLoss="3487.85" rerouteNo="0" devices="tripinfo_f_0_2.9" vType="type1" speedFactor="1.20" vaporized="end"/>
    <tripinfo id="f_0_3.9" depart="210.00" departLane="np3_nt3_0" departPos="64.51" departSpeed="0.00" departDelay="136.36" arrival="-1.00" arrivalLane="" arrivalPos="-1.00" arrivalSpeed="-1.00" duration="3390.00" routeLength="759.78" waitingTime="3281.00" waitingCount="8" stopTime="0.00" timeLoss="3325.81" rerouteNo="0" devices="tripinfo_f_0_3.9" vType="type1" speedFactor="0.98" vaporized="end"/>
    <tripinfo id="f_0_0.6" depart="82.00" departLane="np13_nt13_0" departPos="20.22" departSpeed="0.00" departDelay="0.18" arrival="-1.00" arrivalLane="" arrivalPos="-1.00" arrivalSpeed="-1.00" duration="3518.00" routeLength="231.58" waitingTime="3464.00" waitingCount="8" stopTime="0.00" timeLoss="3502.29" rerouteNo="0" devices="tripinfo_f_0_0.6" vType="type1" speedFactor="0.79" vaporized="end"/>
    <tripinfo id="f_0_1.6" depart="82.00" departLane="np16_nt1_0" departPos="48.75" departSpeed="0.00" departDelay="0.18" arrival="-1.00" arrivalLane="" arrivalPos="-1.00" arrivalSpeed="-1.00" duration="3518.00" routeLength="188.04" waitingTime="3489.00" waitingCount="3" stopTime="0.00" timeLoss="3508.50" rerouteNo="0" devices="tripinfo_f_0_1.6" vType="type1" speedFactor="1.11" vaporized="end"/>
    <tripinfo id="f_0_2.10" depart="82.00" departLane="np2_nt2_0" departPos="32.11" departSpeed="0.00" departDelay="0.18" arrival="-1.00" arrivalLane="" arrivalPos="-1.00" arrivalSpeed="-1.00" duration="3518.00" routeLength="555.34" waitingTime="3437.00" waitingCount="8" stopTime="0.00" timeLoss="3479.52" rerouteNo="0" devices="tripinfo_f_0_2.10" vType="type1" speedFactor="1.16" vaporized="end"/>
    <tripinfo id="f_0_3.10" depart="212.00" departLane="np3_nt3_0" departPos="0.00" departSpeed="0.00" departDelay="130.18" arrival="-1.00" arrivalLane="" arrivalPos="-1.00" arrivalSpeed="-1.00" duration="3388.00" routeLength="439.29" waitingTime="3271.00" waitingCount="8" stopTime="0.00" timeLoss="3349.05" rerouteNo="0" devices="tripinfo_f_0_3.10" vType="type1" speedFactor="0.87" vaporized="end"/>
    <tripinfo id="f_0_2.11" depart="90.00" departLane="np2_nt2_0" departPos="6.00" departSpeed="0.00" departDelay="0.00" arrival="-1.00" arrivalLane="" arrivalPos="-1.00" arrivalSpeed="-1.00" duration="3510.00" routeLength="573.96" waitingTime="3414.00" waitingCount="8" stopTime="0.00" timeLoss="3456.06" rerouteNo="0" devices="tripinfo_f_0_2.11" vType="type1" speedFactor="0.86" vaporized="end"/>
    <tripinfo id="f_0_3.11" depart="215.00" departLane="np3_nt3_0" departPos="0.00" departSpeed="0.00" departDelay="125.00" arrival="-1.00" arrivalLane="" arrivalPos="-1.00" arrivalSpeed="-1.00" duration="3385.00" routeLength="431.79" waitingTime="3264.00" waitingCount="7" stopTime="0.00" timeLoss="3349.22" rerouteNo="0" devices="tripinfo_f_0_3.11" vType="type1" speedFactor="0.93" vaporized="end"/>
    <tripinfo id="f_0_0.7" depart="96.00" departLane="np13_nt13_0" departPos="8.94" departSpeed="0.00" departDelay="0.55" arrival="-1.00" arrivalLane="" arrivalPos="-1.00" arrivalSpeed="-1.00" duration="3504.00" routeLength="235.36" waitingTime="3451.00" waitingCount="7" stopTime="0.00" timeLoss="3489.40" rerouteNo="0" devices="tripinfo_f_0_0.7" vType="type1" speedFactor="0.87" vaporized="end"/>
    <tripinfo id="f_0_1.7" depart="96.00" departLane="np16_nt1_0" departPos="19.29" departSpeed="0.00" departDelay="0.55" arrival="-1.00" arrivalLane="" arrivalPos="-1.00" arrivalSpeed="-1.00" duration="3504.00" routeLength="210.01" waitingTime="3472.00" waitingCount="3" stopTime="0.00" timeLoss="3489.59" rerouteNo="0" devices="tripinfo_f_0_1.7" vType="type1" speedFactor="0.78" vaporized="end"/>
    <tripinfo id="f_0_2.12" depart="99.00" departLane="np2_nt2_0" departPos="34.34" departSpeed="0.00" departDelay="0.82" arrival="-1.00" arrivalLane="" arrivalPos="-1.00" arrivalSpeed="-1.00" duration="3501.00" routeLength="538.11" waitingTime="3408.00" waitingCount="9" stopTime="0.00" timeLoss="3462.51" rerouteNo="0" devices="tripinfo_f_0_2.12" vType="type1" speedFactor="1.11" vaporized="end"/>
    <tripinfo id="f_0_3.12" depart="217.00" departLane="np3_nt3_0" departPos="0.00" departSpeed="0.00" departDelay="118.82" arrival="-1.00" arrivalLane="" arrivalPos="-1.00" arrivalSpeed="-1.00" duration="3383.00" routeLength="424.28" waitingTime="3255.00" waitingCount="7" stopTime="0.00" timeLoss="3351.13" rerouteNo="0" devices="tripinfo_f_0_3.12" vType="type1" speedFactor="1.03" vaporized="end"/>
    <tripinfo id="f_0_2.13" depart="107.00" departLane="np2_nt2_0" departPos="29.70" departSpeed="0.00" departDelay="0.63" arrival="-1.00" arrivalLane="" arrivalPos="-1.00" arrivalSpeed="-1.00" duration="3493.00" routeLength="527.76" waitingTime="3393.00" waitingCount="11" stopTime="0.00" timeLoss="3449.35" rerouteNo="0" devices="tripinfo_f_0_2.13" vType="type1" speedFactor="0.96" vaporized="end"/>
    <tripinfo id="f_0_3.13" depart="222.00" departLane="np3_nt3_0" departPos="0.00" departSpeed="0.00" departDelay="115.63" arrival="-1.00" arrivalLane="" arrivalPos="-1.00" arrivalSpeed="-1.00" duration="3378.00" routeLength="416.78" waitingTime="3252.00" waitingCount="8" stopTime="0.00" timeLoss="3347.84" rerouteNo="0" devices="tripinfo_f_0_3.13" vType="type1" speedFactor="1.06" vaporized="end"/>
    <tripinfo id="f_0_0.8" depart="110.00" departLane="np13_nt13_0" departPos="10.36" departSpeed="0.00" departDelay="0.91" arrival="-1.00" arrivalLane="" arrivalPos="-1.00" arrivalSpeed="-1.00" duration="3490.00" routeLength="226.44" waitingTime="3440.00" waitingCount="5" stopTime="0.00" timeLoss="3479.34" rerouteNo="0" devices="tripinfo_f_0_0.8" vType="type1" speedFactor="1.17" vaporized="end"/>
    <tripinfo id="f_0_1.8" depart="110.00" departLane="np16_nt1_0" departPos="4.11" departSpeed="0.00" departDelay="0.91" arrival="-1.00" arrivalLane="" arrivalPos="-1.00" arrivalSpeed="-1.00" duration="3490.00" routeLength="217.68" waitingTime="3457.00" waitingCount="3" stopTime="0.00" timeLoss="3477.80" rerouteNo="0" devices="tripinfo_f_0_1.8" vType="type1" speedFactor="0.97" vaporized="end"/>
    <tripinfo id="f_0_2.14" depart="115.00" departLane="np2_nt2_0" departPos="25.83" departSpeed="0.00" departDelay="0.45" arrival="-1.00" arrivalLane="" arrivalPos="-1.00" arrivalSpeed="-1.00" duration="3485.00" routeLength="516.62" waitingTime="3371.00" waitingCount="9" stopTime="0.00" timeLoss="3439.70" rerouteNo="0" devices="tripinfo_f_0_2.14" vType="type1" speedFactor="0.91" vaporized="end"/>
    <tripinfo id="f_0_3.14" depart="225.00" departLane="np3_nt3_0" departPos="0.00" departSpeed="0.00" departDelay="110.45" arrival="-1.00" arrivalLane="" arrivalPos="-1.00" arrivalSpeed="-1.00" duration="3375.00" routeLength="409.28" waitingTime="3245.00" waitingCount="8" stopTime="0.00" timeLoss="3346.18" rerouteNo="0" devices="tripinfo_f_0_3.14" vType="type1" speedFactor="1.08" vaporized="end"/>
    <tripinfo id="f_0_0.9" depart="123.00" departLane="np13_nt13_0" departPos="38.26" departSpeed="0.00" departDelay="0.28" arrival="-1.00" arrivalLane="" arrivalPos="-1.00" arrivalSpeed="-1.00" duration="3477.00" routeLength="191.04" waitingTime="3432.00" waitingCount="4" stopTime="0.00" timeLoss="3466.13" rerouteNo="0" devices="tripinfo_f_0_0.9" vType="type1" speedFactor="0.97" vaporized="end"/>
    <tripinfo id="f_0_1.9" depart="123.00" departLane="np16_nt1_0" departPos="24.40" departSpeed="0.00" departDelay="0.28" arrival="-1.00" arrivalLane="" arrivalPos="-1.00" arrivalSpeed="-1.00" duration="3477.00" routeLength="189.89" waitingTime="3447.00" waitingCount="3" stopTime="0.00" timeLoss="3466.97" rerouteNo="0" devices="tripinfo_f_0_1.9" vType="type1" speedFactor="1.05" vaporized="end"/>
    <tripinfo id="f_0_2.15" depart="123.00" departLane="np2_nt2_0" departPos="9.21" departSpeed="0.00" departDelay="0.27" arrival="-1.00" arrivalLane="" arrivalPos="-1.00" arrivalSpeed="-1.00" duration="3477.00" routeLength="518.24" waitingTime="3363.00" waitingCount="9" stopTime="0.00" timeLoss="3442.14" rerouteNo="0" devices="tripinfo_f_0_2.15" vType="type1" speedFactor="1.18" vaporized="end"/>
    <tripinfo id="f_0_3.15" depart="228.00" departLane="np3_nt3_0" departPos="0.36" departSpeed="0.00" departDelay="105.27" arrival="-1.00" arrivalLane="" arrivalPos="-1.00" arrivalSpeed="-1.00" duration="3372.00" routeLength="401.42" waitingTime="3234.00" waitingCount="7" stopTime="0.00" timeLoss="3337.48" rerouteNo="0" devices="tripinfo_f_0_3.15" vType="type1" speedFactor="0.88" vaporized="end"/>
    <tripinfo id="f_0_2.16" depart="131.00" departLane="np2_nt2_0" departPos="25.36" departSpeed="0.00" departDelay="0.09" arrival="-1.00" arrivalLane="" arrivalPos="-1.00" arrivalSpeed="-1.00" duration="3469.00" routeLength="494.59" waitingTime="3350.00" waitingCount="9" stopTime="0.00" timeLoss="3427.95" rerouteNo="0" devices="tripinfo_f_0_2.16" vType="type1" speedFactor="0.95" vaporized="end"/>
    <tripinfo id="f_0_3.16" depart="230.00" departLane="np3_nt3_0" departPos="0.00" departSpeed="0.00" departDelay="99.09" arrival="-1.00" arrivalLane="" arrivalPos="-1.00" arrivalSpeed="-1.00" duration="3370.00" routeLength="394.28" waitingTime="3230.00" waitingCount="8" stopTime="0.00" timeLoss="3337.81" rerouteNo="0" devices="tripinfo_f_0_3.16" vType="type1" speedFactor="0.92" vaporized="end"/>
    <tripinfo id="f_0_0.10" depart="137.00" departLane="np13_nt13_0" departPos="25.17" departSpeed="0.00" departDelay="0.64" arrival="-1.00" arrivalLane="" arrivalPos="-1.00" arrivalSpeed="-1.00" duration="3463.00" routeLength="196.63" waitingTime="3422.00" waitingCount="4" stopTime="0.00" timeLoss="3451.30" rerouteNo="0" devices="tripinfo_f_0_0.10" vType="type1" speedFactor="0.92" vaporized="end"/>
    <tripinfo id="f_0_1.10" depart="137.00" departLane="np16_nt1_0" departPos="20.14" departSpeed="0.00" departDelay="0.64" arrival="-1.00" arrivalLane="" arrivalPos="-1.00" arrivalSpeed="-1.00" duration="3463.00" routeLength="186.65" waitingTime="3430.00" waitingCount="4" stopTime="0.00" timeLoss="3452.74" rerouteNo="0" devices="tripinfo_f_0_1.10" vType="type1" speedFactor="1.01" vaporized="end"/>
    <tripinfo id="f_0_2.17" depart="140.00" departLane="np2_nt2_0" departPos="21.77" departSpeed="0.00" departDelay="0.91" arrival="-1.00" arrivalLane="" arrivalPos="-1.00" arrivalSpeed="-1.00" duration="3460.00" routeLength="483.17" waitingTime="3342.00" waitingCount="9" stopTime="0.00" timeLoss="3421.03" rerouteNo="0" devices="tripinfo_f_0_2.17" vType="type1" speedFactor="0.97" vaporized="end"/>
    <tripinfo id="f_0_3.17" depart="233.00" departLane="np3_nt3_0" departPos="0.00" departSpeed="0.00" departDelay="93.91" arrival="-1.00" arrivalLane="" arrivalPos="-1.00" arrivalSpeed="-1.00" duration="3367.00" routeLength="386.78" waitingTime="3273.00" waitingCount="8" stopTime="0.00" timeLoss="3338.01" rerouteNo="0" devices="tripinfo_f_0_3.17" vType="type1" speedFactor="1.00" vaporized="end"/>
    <tripinfo id="f_0_2.18" depart="148.00" departLane="np2_nt2_0" departPos="40.99" departSpeed="0.00" departDelay="0.72" arrival="-1.00" arrivalLane="" arrivalPos="-1.00" arrivalSpeed="-1.00" duration="3452.00" routeLength="448.95" waitingTime="3336.00" waitingCount="9" stopTime="0.00" timeLoss="3420.63" rerouteNo="0" devices="tripinfo_f_0_2.18" vType="type1" speedFactor="1.11" vaporized="end"/>
    <tripinfo id="f_0_3.18" depart="235.00" departLane="np3_nt3_0" departPos="1.59" departSpeed="0.00" departDelay="87.72" arrival="-1.00" arrivalLane="" arrivalPos="-1.00" arrivalSpeed="-1.00" duration="3365.00" routeLength="362.68" waitingTime="3298.00" waitingCount="6" stopTime="0.00" timeLoss="3338.46" rerouteNo="0" devices="tripinfo_f_0_3.18" vType="type1" speedFactor="1.01" vaporized="end"/>
    <tripinfo id="f_0_0.11" depart="150.00" departLane="np13_nt13_0" departPos="14.05" departSpeed="0.00" departDelay="0.00" arrival="-1.00" arrivalLane="" arrivalPos="-1.00" arrivalSpeed="-1.00" duration="3450.00" routeLength="200.24" waitingTime="3408.00" waitingCount="4" stopTime="0.00" timeLoss="3438.98" rerouteNo="0" devices="tripinfo_f_0_0.11" vType="type1" speedFactor="1.00" vaporized="end"/>
    <tripinfo id="f_0_1.11" depart="150.00" departLane="np16_nt1_0" departPos="43.21" departSpeed="0.00" departDelay="0.00" arrival="-1.00" arrivalLane="" arrivalPos="-1.00" arrivalSpeed="-1.00" duration="3450.00" routeLength="156.08" waitingTime="3420.00" waitingCount="4" stopTime="0.00" timeLoss="3440.74" rerouteNo="0" devices="tripinfo_f_0_1.11" vType="type1" speedFactor="0.94" vaporized="end"/>
    <tripinfo id="f_0_2.19" depart="156.00" departLane="np2_nt2_0" departPos="60.73" departSpeed="0.00" departDelay="0.54" arrival="-1.00" arrivalLane="" arrivalPos="-1.00" arrivalSpeed="-1.00" duration="3444.00" routeLength="371.04" waitingTime="3338.00" waitingCount="11" stopTime="0.00" timeLoss="3414.85" rerouteNo="0" devices="tripinfo_f_0_2.19" vType="type1" speedFactor="0.95" vaporized="end"/>
    <tripinfo id="f_0_3.19" depart="236.00" departLane="np3_nt3_0" departPos="9.76" departSpeed="0.00" departDelay="80.54" arrival="-1.00" arrivalLane="" arrivalPos="-1.00" arrivalSpeed="-1.00" duration="3364.00" routeLength="369.52" waitingTime="3261.00" waitingCount="8" stopTime="0.00" timeLoss="3336.93" rerouteNo="0" devices="tripinfo_f_0_3.19" vType="type1" speedFactor="1.01" vaporized="end"/>
    <tripinfo id="f_0_0.12" depart="164.00" departLane="np13_nt13_0" departPos="47.28" departSpeed="0.00" departDelay="0.37" arrival="-1.00" arrivalLane="" arrivalPos="-1.00" arrivalSpeed="-1.00" duration="3436.00" routeLength="159.51" waitingTime="3394.00" waitingCount="4" stopTime="0.00" timeLoss="3427.21" rerouteNo="0" devices="tripinfo_f_0_0.12" vType="type1" speedFactor="1.02" vaporized="end"/>