<?xml version="1.0" encoding="UTF-8"?>

<!-- generated on 2023-08-30 19:46:04 by Eclipse SUMO libsumo Version 1.18.0
<configuration xmlns:xsi="http://www.w3.org/2001/XMLSchema-instance" xsi:noNamespaceSchemaLocation="http://sumo.dlr.de/xsd/libsumoConfiguration.xsd">

    <input>
        <net-file value="/home/stefan/RESCO/./environments/arterial4x4/arterial4x4.net.xml"/>
        <route-files value="/home/stefan/RESCO/./environments/arterial4x4/arterial4x4_96.rou.xml"/>
    </input>

    <output>
        <tripinfo-output value="/home/stefan/results/RAINBOW-tr0-arterial4x4-0-drq_norm-wait_norm/tripinfo_96.xml"/>
        <tripinfo-output.write-unfinished value="true"/>
    </output>

    <processing>
        <time-to-teleport value="-1"/>
    </processing>

    <report>
        <no-warnings value="True"/>
        <no-step-log value="True"/>
    </report>

    <random_number>
        <random value="true"/>
    </random_number>

</configuration>
-->

<tripinfos xmlns:xsi="http://www.w3.org/2001/XMLSchema-instance" xsi:noNamespaceSchemaLocation="http://sumo.dlr.de/xsd/tripinfo_file.xsd">
    <tripinfo id="f_0_0.0" depart="0.00" departLane="np13_nt13_0" departPos="65.27" departSpeed="0.00" departDelay="0.00" arrival="-1.00" arrivalLane="" arrivalPos="-1.00" arrivalSpeed="-1.00" duration="3600.00" routeLength="589.76" waitingTime="3537.00" waitingCount="4" stopTime="0.00" timeLoss="3552.86" rerouteNo="0" devices="tripinfo_f_0_0.0" vType="type1" speedFactor="0.81" vaporized="end"/>
    <tripinfo id="f_0_1.0" depart="0.00" departLane="np16_nt1_0" departPos="0.05" departSpeed="0.00" departDelay="0.00" arrival="-1.00" arrivalLane="" arrivalPos="-1.00" arrivalSpeed="-1.00" duration="3600.00" routeLength="862.80" waitingTime="3535.00" waitingCount="1" stopTime="0.00" timeLoss="3545.59" rerouteNo="0" devices="tripinfo_f_0_1.0" vType="type1" speedFactor="1.12" vaporized="end"/>
    <tripinfo id="f_0_2.0" depart="0.00" departLane="np2_nt2_0" departPos="20.26" departSpeed="0.00" departDelay="0.00" arrival="-1.00" arrivalLane="" arrivalPos="-1.00" arrivalSpeed="-1.00" duration="3600.00" routeLength="619.02" waitingTime="3542.00" waitingCount="2" stopTime="0.00" timeLoss="3555.94" rerouteNo="0" devices="tripinfo_f_0_2.0" vType="type1" speedFactor="1.15" vaporized="end"/>
    <tripinfo id="f_0_3.0" depart="0.00" departLane="np3_nt3_0" departPos="35.90" departSpeed="0.00" departDelay="0.00" arrival="-1.00" arrivalLane="" arrivalPos="-1.00" arrivalSpeed="-1.00" duration="3600.00" routeLength="27.70" waitingTime="3593.00" waitingCount="1" stopTime="0.00" timeLoss="3596.74" rerouteNo="0" devices="tripinfo_f_0_3.0" vType="type1" speedFactor="1.11" vaporized="end"/>
    <tripinfo id="f_0_2.1" depart="9.00" departLane="np2_nt2_0" departPos="54.96" departSpeed="0.00" departDelay="0.82" arrival="-1.00" arrivalLane="" arrivalPos="-1.00" arrivalSpeed="-1.00" duration="3591.00" routeLength="576.82" waitingTime="3534.00" waitingCount="4" stopTime="0.00" timeLoss="3547.41" rerouteNo="0" devices="tripinfo_f_0_2.1" vType="type1" speedFactor="1.06" vaporized="end"/>
    <tripinfo id="f_0_3.1" depart="9.00" departLane="np3_nt3_0" departPos="33.99" departSpeed="0.00" departDelay="0.82" arrival="-1.00" arrivalLane="" arrivalPos="-1.00" arrivalSpeed="-1.00" duration="3591.00" routeLength="22.11" waitingTime="3585.00" waitingCount="1" stopTime="0.00" timeLoss="3587.86" rerouteNo="0" devices="tripinfo_f_0_3.1" vType="type1" speedFactor="0.94" vaporized="end"/>
    <tripinfo id="f_0_0.1" depart="14.00" departLane="np13_nt13_0" departPos="53.48" departSpeed="0.00" departDelay="0.36" arrival="-1.00" arrivalLane="" arrivalPos="-1.00" arrivalSpeed="-1.00" duration="3586.00" routeLength="594.05" waitingTime="3520.00" waitingCount="3" stopTime="0.00" timeLoss="3542.89" rerouteNo="0" devices="tripinfo_f_0_0.1" vType="type1" speedFactor="0.89" vaporized="end"/>
    <tripinfo id="f_0_1.1" depart="14.00" departLane="np16_nt1_0" departPos="31.22" departSpeed="0.00" departDelay="0.36" arrival="-1.00" arrivalLane="" arrivalPos="-1.00" arrivalSpeed="-1.00" duration="3586.00" routeLength="824.13" waitingTime="3523.00" waitingCount="1" stopTime="0.00" timeLoss="3532.29" rerouteNo="0" devices="tripinfo_f_0_1.1" vType="type1" speedFactor="1.09" vaporized="end"/>
    <tripinfo id="f_0_2.2" depart="17.00" departLane="np2_nt2_0" departPos="44.42" departSpeed="0.00" departDelay="0.64" arrival="-1.00" arrivalLane="" arrivalPos="-1.00" arrivalSpeed="-1.00" duration="3583.00" routeLength="579.86" waitingTime="3513.00" waitingCount="5" stopTime="0.00" timeLoss="3535.77" rerouteNo="0" devices="tripinfo_f_0_2.2" vType="type1" speedFactor="0.98" vaporized="end"/>
    <tripinfo id="f_0_3.2" depart="17.00" departLane="np3_nt3_0" departPos="20.07" departSpeed="0.00" departDelay="0.64" arrival="-1.00" arrivalLane="" arrivalPos="-1.00" arrivalSpeed="-1.00" duration="3583.00" routeLength="28.52" waitingTime="3578.00" waitingCount="1" stopTime="0.00" timeLoss="3579.38" rerouteNo="0" devices="tripinfo_f_0_3.2" vType="type1" speedFactor="0.99" vaporized="end"/>
    <tripinfo id="f_0_2.3" depart="25.00" departLane="np2_nt2_0" departPos="14.29" departSpeed="0.00" departDelay="0.45" arrival="-1.00" arrivalLane="" arrivalPos="-1.00" arrivalSpeed="-1.00" duration="3575.00" routeLength="602.48" waitingTime="3491.00" waitingCount="5" stopTime="0.00" timeLoss="3516.36" rerouteNo="0" devices="tripinfo_f_0_2.3" vType="type1" speedFactor="0.84" vaporized="end"/>
    <tripinfo id="f_0_3.3" depart="25.00" departLane="np3_nt3_0" departPos="14.98" departSpeed="0.00" departDelay="0.45" arrival="-1.00" arrivalLane="" arrivalPos="-1.00" arrivalSpeed="-1.00" duration="3575.00" routeLength="26.11" waitingTime="3569.00" waitingCount="1" stopTime="0.00" timeLoss="3571.42" rerouteNo="0" devices="tripinfo_f_0_3.3" vType="type1" speedFactor="0.92" vaporized="end"/>
    <tripinfo id="f_0_0.2" depart="28.00" departLane="np13_nt13_0" departPos="54.18" departSpeed="0.00" departDelay="0.73" arrival="-1.00" arrivalLane="" arrivalPos="-1.00" arrivalSpeed="-1.00" duration="3572.00" routeLength="585.85" waitingTime="3510.00" waitingCount="4" stopTime="0.00" timeLoss="3536.00" rerouteNo="0" devices="tripinfo_f_0_0.2" vType="type1" speedFactor="1.05" vaporized="end"/>
    <tripinfo id="f_0_1.2" depart="28.00" departLane="np16_nt1_0" departPos="67.31" departSpeed="0.00" departDelay="0.73" arrival="-1.00" arrivalLane="" arrivalPos="-1.00" arrivalSpeed="-1.00" duration="3572.00" routeLength="475.52" waitingTime="3514.00" waitingCount="5" stopTime="0.00" timeLoss="3544.93" rerouteNo="0" devices="tripinfo_f_0_1.2" vType="type1" speedFactor="1.06" vaporized="end"/>
    <tripinfo id="f_0_2.4" depart="33.00" departLane="np2_nt2_0" departPos="11.09" departSpeed="0.00" departDelay="0.27" arrival="-1.00" arrivalLane="" arrivalPos="-1.00" arrivalSpeed="-1.00" duration="3567.00" routeLength="598.18" waitingTime="3482.00" waitingCount="4" stopTime="0.00" timeLoss="3521.89" rerouteNo="0" devices="tripinfo_f_0_2.4" vType="type1" speedFactor="1.08" vaporized="end"/>
    <tripinfo id="f_0_3.4" depart="33.00" departLane="np3_nt3_0" departPos="14.45" departSpeed="0.00" departDelay="0.27" arrival="-1.00" arrivalLane="" arrivalPos="-1.00" arrivalSpeed="-1.00" duration="3567.00" routeLength="19.15" waitingTime="3561.00" waitingCount="1" stopTime="0.00" timeLoss="3564.02" rerouteNo="0" devices="tripinfo_f_0_3.4" vType="type1" speedFactor="0.88" vaporized="end"/>
    <tripinfo id="f_0_0.3" depart="41.00" departLane="np13_nt13_0" departPos="21.55" departSpeed="0.00" departDelay="0.09" arrival="-1.00" arrivalLane="" arrivalPos="-1.00" arrivalSpeed="-1.00" duration="3559.00" routeLength="610.97" waitingTime="3488.00" waitingCount="4" stopTime="0.00" timeLoss="3517.52" rerouteNo="0" devices="tripinfo_f_0_0.3" vType="type1" speedFactor="0.93" vaporized="end"/>
    <tripinfo id="f_0_1.3" depart="41.00" departLane="np16_nt1_0" departPos="0.63" departSpeed="0.00" departDelay="0.09" arrival="-1.00" arrivalLane="" arrivalPos="-1.00" arrivalSpeed="-1.00" duration="3559.00" routeLength="527.20" waitingTime="3500.00" waitingCount="5" stopTime="0.00" timeLoss="3533.11" rerouteNo="0" devices="tripinfo_f_0_1.3" vType="type1" speedFactor="1.18" vaporized="end"/>
    <tripinfo id="f_0_2.5" depart="41.00" departLane="np2_nt2_0" departPos="24.70" departSpeed="0.00" departDelay="0.09" arrival="-1.00" arrivalLane="" arrivalPos="-1.00" arrivalSpeed="-1.00" duration="3559.00" routeLength="577.07" waitingTime="3476.00" waitingCount="4" stopTime="0.00" timeLoss="3509.81" rerouteNo="0" devices="tripinfo_f_0_2.5" vType="type1" speedFactor="0.95" vaporized="end"/>
    <tripinfo id="f_0_3.5" depart="41.00" departLane="np3_nt3_0" departPos="17.68" departSpeed="0.00" departDelay="0.09" arrival="-1.00" arrivalLane="" arrivalPos="-1.00" arrivalSpeed="-1.00" duration="3559.00" routeLength="8.42" waitingTime="3554.00" waitingCount="1" stopTime="0.00" timeLoss="3557.08" rerouteNo="0" devices="tripinfo_f_0_3.5" vType="type1" speedFactor="0.83" vaporized="end"/>
    <tripinfo id="f_0_2.6" depart="50.00" departLane="np2_nt2_0" departPos="29.00" departSpeed="0.00" departDelay="0.91" arrival="-1.00" arrivalLane="" arrivalPos="-1.00" arrivalSpeed="-1.00" duration="3550.00" routeLength="565.27" waitingTime="3469.00" waitingCount="3" stopTime="0.00" timeLoss="3500.81" rerouteNo="0" devices="tripinfo_f_0_2.6" vType="type1" speedFactor="0.94" vaporized="end"/>
    <tripinfo id="f_0_3.6" depart="50.00" departLane="np3_nt3_0" departPos="5.08" departSpeed="0.00" departDelay="0.91" arrival="-1.00" arrivalLane="" arrivalPos="-1.00" arrivalSpeed="-1.00" duration="3550.00" routeLength="13.51" waitingTime="3544.00" waitingCount="1" stopTime="0.00" timeLoss="3547.87" rerouteNo="0" devices="tripinfo_f_0_3.6" vType="type1" speedFactor="1.09" vaporized="end"/>
    <tripinfo id="f_0_0.4" depart="55.00" departLane="np13_nt13_0" departPos="51.96" departSpeed="0.00" departDelay="0.46" arrival="-1.00" arrivalLane="" arrivalPos="-1.00" arrivalSpeed="-1.00" duration="3545.00" routeLength="573.06" waitingTime="3492.00" waitingCount="4" stopTime="0.00" timeLoss="3512.98" rerouteNo="0" devices="tripinfo_f_0_0.4" vType="type1" speedFactor="1.14" vaporized="end"/>
    <tripinfo id="f_0_1.4" depart="55.00" departLane="np16_nt1_0" departPos="4.62" departSpeed="0.00" departDelay="0.46" arrival="-1.00" arrivalLane="" arrivalPos="-1.00" arrivalSpeed="-1.00" duration="3545.00" routeLength="515.71" waitingTime="3484.00" waitingCount="5" stopTime="0.00" timeLoss="3517.06" rerouteNo="0" devices="tripinfo_f_0_1.4" vType="type1" speedFactor="1.05" vaporized="end"/>
    <tripinfo id="f_0_2.7" depart="58.00" departLane="np2_nt2_0" departPos="19.86" departSpeed="0.00" departDelay="0.73" arrival="-1.00" arrivalLane="" arrivalPos="-1.00" arrivalSpeed="-1.00" duration="3542.00" routeLength="566.90" waitingTime="3467.00" waitingCount="3" stopTime="0.00" timeLoss="3500.60" rerouteNo="0" devices="tripinfo_f_0_2.7" vType="type1" speedFactor="1.10" vaporized="end"/>
    <tripinfo id="f_0_3.7" depart="58.00" departLane="np3_nt3_0" departPos="8.11" departSpeed="0.00" departDelay="0.73" arrival="-1.00" arrivalLane="" arrivalPos="-1.00" arrivalSpeed="-1.00" duration="3542.00" routeLength="2.98" waitingTime="3538.00" waitingCount="1" stopTime="0.00" timeLoss="3540.71" rerouteNo="0" devices="tripinfo_f_0_3.7" vType="type1" speedFactor="0.94" vaporized="end"/>
    <tripinfo id="f_0_2.8" depart="66.00" departLane="np2_nt2_0" departPos="20.84" departSpeed="0.00" departDelay="0.54" arrival="-1.00" arrivalLane="" arrivalPos="-1.00" arrivalSpeed="-1.00" duration="3534.00" routeLength="558.43" waitingTime="3457.00" waitingCount="3" stopTime="0.00" timeLoss="3486.24" rerouteNo="0" devices="tripinfo_f_0_2.8" vType="type1" speedFactor="0.94" vaporized="end"/>
    <tripinfo id="f_0_3.8" depart="66.00" departLane="np3_nt3_0" departPos="1.81" departSpeed="0.00" departDelay="0.54" arrival="-1.00" arrivalLane="" arrivalPos="-1.00" arrivalSpeed="-1.00" duration="3534.00" routeLength="1.78" waitingTime="3531.00" waitingCount="1" stopTime="0.00" timeLoss="3532.84" rerouteNo="0" devices="tripinfo_f_0_3.8" vType="type1" speedFactor="0.99" vaporized="end"/>
    <tripinfo id="f_0_0.5" depart="69.00" departLane="np13_nt13_0" departPos="65.40" departSpeed="0.00" departDelay="0.82" arrival="-1.00" arrivalLane="" arrivalPos="-1.00" arrivalSpeed="-1.00" duration="3531.00" routeLength="552.13" waitingTime="3469.00" waitingCount="4" stopTime="0.00" timeLoss="3492.45" rerouteNo="0" devices="tripinfo_f_0_0.5" vType="type1" speedFactor="0.91" vaporized="end"/>
    <tripinfo id="f_0_1.5" depart="69.00" departLane="np16_nt1_0" departPos="41.10" departSpeed="0.00" departDelay="0.82" arrival="-1.00" arrivalLane="" arrivalPos="-1.00" arrivalSpeed="-1.00" duration="3531.00" routeLength="471.72" waitingTime="3470.00" waitingCount="5" stopTime="0.00" timeLoss="3503.32" rerouteNo="0" devices="tripinfo_f_0_1.5" vType="type1" speedFactor="0.97" vaporized="end"/>
    <tripinfo id="f_0_2.9" depart="74.00" departLane="np2_nt2_0" departPos="19.05" departSpeed="0.00" departDelay="0.36" arrival="-1.00" arrivalLane="" arrivalPos="-1.00" arrivalSpeed="-1.00" duration="3526.00" routeLength="552.72" waitingTime="3453.00" waitingCount="3" stopTime="0.00" timeLoss="3483.37" rerouteNo="0" devices="tripinfo_f_0_2.9" vType="type1" speedFactor="1.04" vaporized="end"/>
    <tripinfo id="f_0_0.6" depart="82.00" departLane="np13_nt13_0" departPos="29.04" departSpeed="0.00" departDelay="0.18" arrival="-1.00" arrivalLane="" arrivalPos="-1.00" arrivalSpeed="-1.00" duration="3518.00" routeLength="580.98" waitingTime="3451.00" waitingCount="4" stopTime="0.00" timeLoss="3482.28" rerouteNo="0" devices="tripinfo_f_0_0.6" vType="type1" speedFactor="1.02" vaporized="end"/>
    <tripinfo id="f_0_1.6" depart="82.00" departLane="np16_nt1_0" departPos="27.12" departSpeed="0.00" departDelay="0.18" arrival="-1.00" arrivalLane="" arrivalPos="-1.00" arrivalSpeed="-1.00" duration="3518.00" routeLength="478.20" waitingTime="3453.00" waitingCount="5" stopTime="0.00" timeLoss="3493.24" rerouteNo="0" devices="tripinfo_f_0_1.6" vType="type1" speedFactor="1.10" vaporized="end"/>
    <tripinfo id="f_0_2.10" depart="82.00" departLane="np2_nt2_0" departPos="1.77" departSpeed="0.00" departDelay="0.18" arrival="-1.00" arrivalLane="" arrivalPos="-1.00" arrivalSpeed="-1.00" duration="3518.00" routeLength="562.49" waitingTime="3447.00" waitingCount="3" stopTime="0.00" timeLoss="3474.08" rerouteNo="0" devices="tripinfo_f_0_2.10" vType="type1" speedFactor="1.03" vaporized="end"/>
    <tripinfo id="f_0_2.11" depart="90.00" departLane="np2_nt2_0" departPos="42.22" departSpeed="0.00" departDelay="0.00" arrival="-1.00" arrivalLane="" arrivalPos="-1.00" arrivalSpeed="-1.00" duration="3510.00" routeLength="514.55" waitingTime="3438.00" waitingCount="3" stopTime="0.00" timeLoss="3467.00" rerouteNo="0" devices="tripinfo_f_0_2.11" vType="type1" speedFactor="0.96" vaporized="end"/>
    <tripinfo id="f_0_0.7" depart="96.00" departLane="np13_nt13_0" departPos="30.99" departSpeed="0.00" departDelay="0.55" arrival="-1.00" arrivalLane="" arrivalPos="-1.00" arrivalSpeed="-1.00" duration="3504.00" routeLength="571.53" waitingTime="3430.00" waitingCount="4" stopTime="0.00" timeLoss="3464.06" rerouteNo="0" devices="tripinfo_f_0_0.7" vType="type1" speedFactor="0.89" vaporized="end"/>
    <tripinfo id="f_0_1.7" depart="96.00" departLane="np16_nt1_0" departPos="32.24" departSpeed="0.00" departDelay="0.55" arrival="-1.00" arrivalLane="" arrivalPos="-1.00" arrivalSpeed="-1.00" duration="3504.00" routeLength="465.59" waitingTime="3436.00" waitingCount="5" stopTime="0.00" timeLoss="3480.05" rerouteNo="0" devices="tripinfo_f_0_1.7" vType="type1" speedFactor="1.10" vaporized="end"/>
    <tripinfo id="f_0_2.12" depart="99.00" departLane="np2_nt2_0" departPos="8.21" departSpeed="0.00" departDelay="0.82" arrival="-1.00" arrivalLane="" arrivalPos="-1.00" arrivalSpeed="-1.00" duration="3501.00" routeLength="541.05" waitingTime="3430.00" waitingCount="3" stopTime="0.00" timeLoss="3455.84" rerouteNo="0" devices="tripinfo_f_0_2.12" vType="type1" speedFactor="0.95" vaporized="end"/>
    <tripinfo id="f_0_2.13" depart="107.00" departLane="np2_nt2_0" departPos="46.78" departSpeed="0.00" departDelay="0.63" arrival="-1.00" arrivalLane="" arrivalPos="-1.00" arrivalSpeed="-1.00" duration="3493.00" routeLength="494.99" waitingTime="3421.00" waitingCount="3" stopTime="0.00" timeLoss="3446.71" rerouteNo="0" devices="tripinfo_f_0_2.13" vType="type1" speedFactor="0.85" vaporized="end"/>
    <tripinfo id="f_0_0.8" depart="110.00" departLane="np13_nt13_0" departPos="43.50" departSpeed="0.00" departDelay="0.91" arrival="-1.00" arrivalLane="" arrivalPos="-1.00" arrivalSpeed="-1.00" duration="3490.00" routeLength="551.52" waitingTime="3420.00" waitingCount="3" stopTime="0.00" timeLoss="3458.72" rerouteNo="0" devices="tripinfo_f_0_0.8" vType="type1" speedFactor="1.09" vaporized="end"/>
    <tripinfo id="f_0_1.8" depart="110.00" departLane="np16_nt1_0" departPos="49.35" departSpeed="0.00" departDelay="0.91" arrival="-1.00" arrivalLane="" arrivalPos="-1.00" arrivalSpeed="-1.00" duration="3490.00" routeLength="440.97" waitingTime="3420.00" waitingCount="5" stopTime="0.00" timeLoss="3466.11" rerouteNo="0" devices="tripinfo_f_0_1.8" vType="type1" speedFactor="1.03" vaporized="end"/>
    <tripinfo id="f_0_2.14" depart="115.00" departLane="np2_nt2_0" departPos="45.21" departSpeed="0.00" departDelay="0.45" arrival="-1.00" arrivalLane="" arrivalPos="-1.00" arrivalSpeed="-1.00" duration="3485.00" routeLength="489.06" waitingTime="3418.00" waitingCount="3" stopTime="0.00" timeLoss="3452.10" rerouteNo="0" devices="tripinfo_f_0_2.14" vType="type1" speedFactor="1.18" vaporized="end"/>
    <tripinfo id="f_0_0.9" depart="123.00" departLane="np13_nt13_0" departPos="30.81" departSpeed="0.00" departDelay="0.28" arrival="-1.00" arrivalLane="" arrivalPos="-1.00" arrivalSpeed="-1.00" duration="3477.00" routeLength="556.71" waitingTime="3404.00" waitingCount="4" stopTime="0.00" timeLoss="3442.29" rerouteNo="0" devices="tripinfo_f_0_0.9" vType="type1" speedFactor="1.00" vaporized="end"/>
    <tripinfo id="f_0_1.9" depart="123.00" departLane="np16_nt1_0" departPos="49.03" departSpeed="0.00" departDelay="0.28" arrival="-1.00" arrivalLane="" arrivalPos="-1.00" arrivalSpeed="-1.00" duration="3477.00" routeLength="417.77" waitingTime="3412.00" waitingCount="6" stopTime="0.00" timeLoss="3451.96" rerouteNo="0" devices="tripinfo_f_0_1.9" vType="type1" speedFactor="0.87" vaporized="end"/>
    <tripinfo id="f_0_2.15" depart="123.00" departLane="np2_nt2_0" departPos="13.39" departSpeed="0.00" departDelay="0.27" arrival="-1.00" arrivalLane="" arrivalPos="-1.00" arrivalSpeed="-1.00" duration="3477.00" routeLength="513.38" waitingTime="3408.00" waitingCount="3" stopTime="0.00" timeLoss="3432.24" rerouteNo="0" devices="tripinfo_f_0_2.15" vType="type1" speedFactor="0.90" vaporized="end"/>
    <tripinfo id="f_0_2.16" depart="131.00" departLane="np2_nt2_0" departPos="39.73" departSpeed="0.00" departDelay="0.09" arrival="-1.00" arrivalLane="" arrivalPos="-1.00" arrivalSpeed="-1.00" duration="3469.00" routeLength="479.53" waitingTime="3405.00" waitingCount="3" stopTime="0.00" timeLoss="3432.77" rerouteNo="0" devices="tripinfo_f_0_2.16" vType="type1" speedFactor="1.04" vaporized="end"/>
    <tripinfo id="f_0_0.10" depart="137.00" departLane="np13_nt13_0" departPos="53.32" departSpeed="0.00" departDelay="0.64" arrival="-1.00" arrivalLane="" arrivalPos="-1.00" arrivalSpeed="-1.00" duration="3463.00" routeLength="526.70" waitingTime="3389.00" waitingCount="3" stopTime="0.00" timeLoss="3430.85" rerouteNo="0" devices="tripinfo_f_0_0.10" vType="type1" speedFactor="1.02" vaporized="end"/>
    <tripinfo id="f_0_1.10" depart="137.00" departLane="np16_nt1_0" departPos="2.98" departSpeed="0.00" departDelay="0.64" arrival="-1.00" arrivalLane="" arrivalPos="-1.00" arrivalSpeed="-1.00" duration="3463.00" routeLength="441.31" waitingTime="3396.00" waitingCount="6" stopTime="0.00" timeLoss="3438.75" rerouteNo="0" devices="tripinfo_f_0_1.10" vType="type1" speedFactor="0.95" vaporized="end"/>
    <tripinfo id="f_0_2.17" depart="140.00" departLane="np2_nt2_0" departPos="4.44" departSpeed="0.00" departDelay="0.91" arrival="-1.00" arrivalLane="" arrivalPos="-1.00" arrivalSpeed="-1.00" duration="3460.00" routeLength="507.32" waitingTime="3397.00" waitingCount="3" stopTime="0.00" timeLoss="3423.01" rerouteNo="0" devices="tripinfo_f_0_2.17" vType="type1" speedFactor="1.08" vaporized="end"/>
    <tripinfo id="f_0_2.18" depart="148.00" departLane="np2_nt2_0" departPos="48.24" departSpeed="0.00" departDelay="0.72" arrival="-1.00" arrivalLane="" arrivalPos="-1.00" arrivalSpeed="-1.00" duration="3452.00" routeLength="456.02" waitingTime="3384.00" waitingCount="3" stopTime="0.00" timeLoss="3411.20" rerouteNo="0" devices="tripinfo_f_0_2.18" vType="type1" speedFactor="0.87" vaporized="end"/>
    <tripinfo id="f_0_0.11" depart="150.00" departLane="np13_nt13_0" departPos="6.08" departSpeed="0.00" departDelay="0.00" arrival="-1.00" arrivalLane="" arrivalPos="-1.00" arrivalSpeed="-1.00" duration="3450.00" routeLength="566.44" waitingTime="3371.00" waitingCount="3" stopTime="0.00" timeLoss="3415.09" rerouteNo="0" devices="tripinfo_f_0_0.11" vType="type1" speedFactor="0.98" vaporized="end"/>
    <tripinfo id="f_0_1.11" depart="150.00" departLane="np16_nt1_0" departPos="42.12" departSpeed="0.00" departDelay="0.00" arrival="-1.00" arrivalLane="" arrivalPos="-1.00" arrivalSpeed="-1.00" duration="3450.00" routeLength="568.22" waitingTime="3392.00" waitingCount="3" stopTime="0.00" timeLoss="3415.59" rerouteNo="0" devices="tripinfo_f_0_1.11" vType="type1" speedFactor="1.03" vaporized="end"/>
    <tripinfo id="f_0_2.19" depart="156.00" departLane="np2_nt2_0" departPos="10.92" departSpeed="0.00" departDelay="0.54" arrival="-1.00" arrivalLane="" arrivalPos="-1.00" arrivalSpeed="-1.00" duration="3444.00" routeLength="485.84" waitingTime="3377.00" waitingCount="3" stopTime="0.00" timeLoss="3403.84" rerouteNo="0" devices="tripinfo_f_0_2.19" vType="type1" speedFactor="0.95" vaporized="end"/>
    <tripinfo id="f_0_0.12" depart="164.00" departLane="np13_nt13_0" departPos="52.90" departSpeed="0.00" departDelay="0.37" arrival="-1.00" arrivalLane="" arrivalPos="-1.00" arrivalSpeed="-1.00" duration="3436.00" routeLength="512.12" waitingTime="3362.00" waitingCount="3" stopTime="0.00" timeLoss="3407.37" rerouteNo="0" devices="tripinfo_f_0_0.12" vType="type1" speedFactor="1.09" vaporized="end"/>
    <tripinfo id="f_0_1.12" depart="164.00" departLane="np16_nt1_0" departPos="60.66" departSpeed="0.00" departDelay="0.37" arrival="-1.00" arrivalLane="" arrivalPos="-1.00" arrivalSpeed="-1.00" duration="3436.00" routeLength="376.13" waitingTime="3372.00" waitingCount="5" stopTime="0.00" timeLoss="3415.53" rerouteNo="0" devices="tripinfo_f_0_1.12" vType="type1" speedFactor="0.97" vaporized="end"/>
    <tripinfo id="f_0_2.20" depart="164.00" departLane="np2_nt2_0" departPos="4.75" departSpeed="0.00" departDelay="0.36" arrival="-1.00" arrivalLane="" arrivalPos="-1.00" arrivalSpeed="-1.00" duration="3436.00" routeLength="484.51" waitingTime="3371.00" waitingCount="3" stopTime="0.00" timeLoss="3397.01" rerouteNo="0" devices="tripinfo_f_0_2.20" vType="type1" speedFactor="0.98" vaporized="end"/>
    <tripinfo id="f_0_2.21" depart="172.00" departLane="np2_nt2_0" departPos="0.58" departSpeed="0.00" departDelay="0.18" arrival="-1.00" arrivalLane="" arrivalPos="-1.00" arrivalSpeed="-1.00" duration="3428.00" routeLength="481.18" waitingTime="3367.00" waitingCount="2" stopTime="0.00" timeLoss="3390.84" rerouteNo="0" devices="tripinfo_f_0_2.21" vType="type1" speedFactor="1.03" vaporized="end"/>
    <tripinfo id="f_0_0.13" depart="178.00" departLane="np13_nt13_0" departPos="23.44" departSpeed="0.00" departDelay="0.73" arrival="-1.00" arrivalLane="" arrivalPos="-1.00" arrivalSpeed="-1.00" duration="3422.00" routeLength="534.08" waitingTime="3339.00" waitingCount="3" stopTime="0.00" timeLoss="3388.43" rerouteNo="0" devices="tripinfo_f_0_0.13" vType="type1" speedFactor="0.95" vaporized="end"/>
    <tripinfo id="f_0_1.13" depart="178.00" departLane="np16_nt1_0" departPos="55.97" departSpeed="0.00" departDelay="0.73" arrival="-1.00" arrivalLane="" arrivalPos="-1.00" arrivalSpeed="-1.00" duration="3422.00" routeLength="531.86" waitingTime="3365.00" waitingCount="4" stopTime="0.00" timeLoss="3393.72" rerouteNo="0" devices="tripinfo_f_0_1.13" vType="type1" speedFactor="1.17" vaporized="end"/>
    <tripinfo id="f_0_2.22" depart="180.00" departLane="np2_nt2_0" departPos="16.91" departSpeed="0.00" departDelay="0.00" arrival="-1.00" arrivalLane="" arrivalPos="-1.00" arrivalSpeed="-1.00" duration="3420.00" routeLength="437.37" waitingTime="3372.00" waitingCount="2" stopTime="0.00" timeLoss="3386.24" rerouteNo="0" devices="tripinfo_f_0_2.22" vType="type1" speedFactor="1.01" vaporized="end"/>
    <tripinfo id="f_0_2.23" depart="189.00" departLane="np2_nt2_0" departPos="35.81" departSpeed="0.00" departDelay="0.81" arrival="-1.00" arrivalLane="" arrivalPos="-1.00" arrivalSpeed="-1.00" duration="3411.00" routeLength="410.97" waitingTime="3363.00" waitingCount="2" stopTime="0.00" timeLoss="3374.01" rerouteNo="0" devices="tripinfo_f_0_2.23" vType="type1" speedFactor="0.85" vaporized="end"/>
    <tripinfo id="f_0_0.14" depart="191.00" departLane="np13_nt13_0" departPos="59.62" departSpeed="0.00" departDelay="0.10" arrival="-1.00" arrivalLane="" arrivalPos="-1.00" arrivalSpeed="-1.00" duration="3409.00" routeLength="490.40" waitingTime="3330.00" waitingCount="3" stopTime="0.00" timeLoss="3379.21" rerouteNo="0" devices="tripinfo_f_0_0.14" vType="type1" speedFactor="0.99" vaporized="end"/>
    <tripinfo id="f_0_1.14" depart="191.00" departLane="np16_nt1_0" departPos="66.07" departSpeed="0.00" departDelay="0.10" arrival="-1.00" arrivalLane="" arrivalPos="-1.00" arrivalSpeed="-1.00" duration="3409.00" routeLength="355.72" waitingTime="3343.00" waitingCount="5" stopTime="0.00" timeLoss="3388.55" rerouteNo="0" devices="tripinfo_f_0_1.14" vType="type1" speedFactor="0.91" vaporized="end"/>
    <tripinfo id="f_0_2.24" depart="197.00" departLane="np2_nt2_0" departPos="9.22" departSpeed="0.00" departDelay="0.63" arrival="-1.00" arrivalLane="" arrivalPos="-1.00" arrivalSpeed="-1.00" duration="3403.00" routeLength="430.05" waitingTime="3362.00" waitingCount="2" stopTime="0.00" timeLoss="3372.97" rerouteNo="0" devices="tripinfo_f_0_2.24" vType="type1" speedFactor="1.12" vaporized="end"/>
    <tripinfo id="f_0_0.15" depart="205.00" departLane="np13_nt13_0" departPos="29.71" departSpeed="0.00" departDelay="0.46" arrival="-1.00" arrivalLane="" arrivalPos="-1.00" arrivalSpeed="-1.00" duration="3395.00" routeLength="512.80" waitingTime="3312.00" waitingCount="3" stopTime="0.00" timeLoss="3361.74" rerouteNo="0" devices="tripinfo_f_0_0.15" vType="type1" speedFactor="0.91" vaporized="end"/>
    <tripinfo id="f_0_1.15" depart="205.00" departLane="np16_nt1_0" departPos="8.65" departSpeed="0.00" departDelay="0.46" arrival="-1.00" arrivalLane="" arrivalPos="-1.00" arrivalSpeed="-1.00" duration="3395.00" routeLength="398.14" waitingTime="3327.00" waitingCount="5" stopTime="0.00" timeLoss="3371.02" rerouteNo="0" devices="tripinfo_f_0_1.15" vType="type1" speedFactor="0.87" vaporized="end"/>
    <tripinfo id="f_0_2.25" depart="205.00" departLane="np2_nt2_0" departPos="10.66" departSpeed="0.00" departDelay="0.45" arrival="-1.00" arrivalLane="" arrivalPos="-1.00" arrivalSpeed="-1.00" duration="3395.00" routeLength="421.11" waitingTime="3352.00" waitingCount="2" stopTime="0.00" timeLoss="3363.12" rerouteNo="0" devices="tripinfo_f_0_2.25" vType="type1" speedFactor="1.02" vaporized="end"/>
    <tripinfo id="f_0_2.26" depart="213.00" departLane="np2_nt2_0" departPos="2.77" departSpeed="0.00" departDelay="0.27" arrival="-1.00" arrivalLane="" arrivalPos="-1.00" arrivalSpeed="-1.00" duration="3387.00" routeLength="421.50" waitingTime="3346.00" waitingCount="2" stopTime="0.00" timeLoss="3356.33" rerouteNo="0" devices="tripinfo_f_0_2.26" vType="type1" speedFactor="1.05" vaporized="end"/>
    <tripinfo id="f_0_0.16" depart="219.00" departLane="np13_nt13_0" departPos="19.85" departSpeed="0.00" departDelay="0.82" arrival="-1.00" arrivalLane="" arrivalPos="-1.00" arrivalSpeed="-1.00" duration="3381.00" routeLength="515.16" waitingTime="3298.00" waitingCount="3" stopTime="0.00" timeLoss="3348.16" rerouteNo="0" devices="tripinfo_f_0_0.16" vType="type1" speedFactor="0.91" vaporized="end"/>
    <tripinfo id="f_0_1.16" depart="219.00" departLane="np16_nt1_0" departPos="13.07" departSpeed="0.00" departDelay="0.82" arrival="-1.00" arrivalLane="" arrivalPos="-1.00" arrivalSpeed="-1.00" duration="3381.00" routeLength="386.22" waitingTime="3312.00" waitingCount="5" stopTime="0.00" timeLoss="3357.68" rerouteNo="0" devices="tripinfo_f_0_1.16" vType="type1" speedFactor="0.87" vaporized="end"/>
    <tripinfo id="f_0_2.27" depart="221.00" departLane="np2_nt2_0" departPos="10.19" departSpeed="0.00" departDelay="0.09" arrival="-1.00" arrivalLane="" arrivalPos="-1.00" arrivalSpeed="-1.00" duration="3379.00" routeLength="406.59" waitingTime="3329.00" waitingCount="3" stopTime="0.00" timeLoss="3346.67" rerouteNo="0" devices="tripinfo_f_0_2.27" vType="type1" speedFactor="0.95" vaporized="end"/>
    <tripinfo id="f_0_2.28" depart="230.00" departLane="np2_nt2_0" departPos="34.54" departSpeed="0.00" departDelay="0.90" arrival="-1.00" arrivalLane="" arrivalPos="-1.00" arrivalSpeed="-1.00" duration="3370.00" routeLength="374.73" waitingTime="3324.00" waitingCount="3" stopTime="0.00" timeLoss="3340.76" rerouteNo="0" devices="tripinfo_f_0_2.28" vType="type1" speedFactor="0.98" vaporized="end"/>