<?xml version="1.0" encoding="UTF-8"?>

<!-- generated on 2023-08-30 17:59:04 by Eclipse SUMO libsumo Version 1.18.0
<configuration xmlns:xsi="http://www.w3.org/2001/XMLSchema-instance" xsi:noNamespaceSchemaLocation="http://sumo.dlr.de/xsd/libsumoConfiguration.xsd">

    <input>
        <net-file value="/home/stefan/RESCO/./environments/arterial4x4/arterial4x4.net.xml"/>
        <route-files value="/home/stefan/RESCO/./environments/arterial4x4/arterial4x4_9.rou.xml"/>
    </input>

    <output>
        <tripinfo-output value="/home/stefan/results/RAINBOW-tr0-arterial4x4-0-drq_norm-wait_norm/tripinfo_9.xml"/>
        <tripinfo-output.write-unfinished value="true"/>
    </output>

    <processing>
        <time-to-teleport value="-1"/>
    </processing>

    <report>
        <no-warnings value="True"/>
        <no-step-log value="True"/>
    </report>

    <random_number>
        <random value="true"/>
    </random_number>

</configuration>
-->

<tripinfos xmlns:xsi="http://www.w3.org/2001/XMLSchema-instance" xsi:noNamespaceSchemaLocation="http://sumo.dlr.de/xsd/tripinfo_file.xsd">
    <tripinfo id="f_0_3.0" depart="0.00" departLane="np3_nt3_0" departPos="49.00" departSpeed="0.00" departDelay="0.00" arrival="149.00" arrivalLane="nt14_np11_0" arrivalPos="75.00" arrivalSpeed="7.41" duration="149.00" routeLength="902.09" waitingTime="38.00" waitingCount="2" stopTime="0.00" timeLoss="63.71" rerouteNo="0" devices="tripinfo_f_0_3.0" vType="type1" speedFactor="0.89" vaporized=""/>
    <tripinfo id="f_0_3.1" depart="9.00" departLane="np3_nt3_0" departPos="22.14" departSpeed="0.00" departDelay="0.82" arrival="150.00" arrivalLane="nt14_np11_0" arrivalPos="75.00" arrivalSpeed="9.76" duration="141.00" routeLength="928.95" waitingTime="28.00" waitingCount="2" stopTime="0.00" timeLoss="66.42" rerouteNo="0" devices="tripinfo_f_0_3.1" vType="type1" speedFactor="1.04" vaporized=""/>
    <tripinfo id="f_0_3.2" depart="17.00" departLane="np3_nt3_0" departPos="12.30" departSpeed="0.00" departDelay="0.64" arrival="152.00" arrivalLane="nt14_np11_0" arrivalPos="75.00" arrivalSpeed="9.96" duration="135.00" routeLength="938.79" waitingTime="32.00" waitingCount="2" stopTime="0.00" timeLoss="59.06" rerouteNo="0" devices="tripinfo_f_0_3.2" vType="type1" speedFactor="1.04" vaporized=""/>
    <tripinfo id="f_0_3.3" depart="25.00" departLane="np3_nt3_0" departPos="1.28" departSpeed="0.00" departDelay="0.45" arrival="154.00" arrivalLane="nt14_np11_0" arrivalPos="75.00" arrivalSpeed="12.95" duration="129.00" routeLength="949.81" waitingTime="30.00" waitingCount="3" stopTime="0.00" timeLoss="64.69" rerouteNo="0" devices="tripinfo_f_0_3.3" vType="type1" speedFactor="1.25" vaporized=""/>
    <tripinfo id="f_0_2.0" depart="0.00" departLane="np2_nt2_0" departPos="38.68" departSpeed="0.00" departDelay="0.00" arrival="162.00" arrivalLane="nt15_np10_0" arrivalPos="75.00" arrivalSpeed="10.20" duration="162.00" routeLength="912.40" waitingTime="61.00" waitingCount="4" stopTime="0.00" timeLoss="87.06" rerouteNo="0" devices="tripinfo_f_0_2.0" vType="type1" speedFactor="1.01" vaporized=""/>
    <tripinfo id="f_0_2.1" depart="9.00" departLane="np2_nt2_0" departPos="44.79" departSpeed="0.00" departDelay="0.82" arrival="165.00" arrivalLane="nt15_np10_0" arrivalPos="75.00" arrivalSpeed="9.80" duration="156.00" routeLength="906.29" waitingTime="50.00" waitingCount="4" stopTime="0.00" timeLoss="76.86" rerouteNo="0" devices="tripinfo_f_0_2.1" vType="type1" speedFactor="0.96" vaporized=""/>
    <tripinfo id="f_0_0.0" depart="0.00" departLane="np13_nt13_0" departPos="39.03" departSpeed="0.00" departDelay="0.00" arrival="168.00" arrivalLane="nt4_np5_0" arrivalPos="75.00" arrivalSpeed="18.58" duration="168.00" routeLength="1308.86" waitingTime="44.00" waitingCount="4" stopTime="0.00" timeLoss="79.30" rerouteNo="0" devices="tripinfo_f_0_0.0" vType="type1" speedFactor="1.02" vaporized=""/>
    <tripinfo id="f_0_1.0" depart="0.00" departLane="np16_nt1_0" departPos="9.93" departSpeed="0.00" departDelay="0.00" arrival="188.00" arrivalLane="nt16_np8_0" arrivalPos="75.00" arrivalSpeed="20.18" duration="188.00" routeLength="1337.95" waitingTime="57.00" waitingCount="7" stopTime="0.00" timeLoss="100.06" rerouteNo="0" devices="tripinfo_f_0_1.0" vType="type1" speedFactor="1.05" vaporized=""/>
    <tripinfo id="f_0_3.4" depart="33.00" departLane="np3_nt3_0" departPos="54.08" departSpeed="0.00" departDelay="0.27" arrival="193.00" arrivalLane="nt14_np11_0" arrivalPos="75.00" arrivalSpeed="8.96" duration="160.00" routeLength="897.01" waitingTime="58.00" waitingCount="3" stopTime="0.00" timeLoss="84.56" rerouteNo="0" devices="tripinfo_f_0_3.4" vType="type1" speedFactor="1.00" vaporized=""/>
    <tripinfo id="f_0_3.5" depart="41.00" departLane="np3_nt3_0" departPos="59.34" departSpeed="0.00" departDelay="0.09" arrival="195.00" arrivalLane="nt14_np11_0" arrivalPos="75.00" arrivalSpeed="10.17" duration="154.00" routeLength="891.75" waitingTime="56.00" waitingCount="3" stopTime="0.00" timeLoss="76.91" rerouteNo="0" devices="tripinfo_f_0_3.5" vType="type1" speedFactor="0.97" vaporized=""/>
    <tripinfo id="f_0_3.6" depart="50.00" departLane="np3_nt3_0" departPos="3.19" departSpeed="0.00" departDelay="0.91" arrival="197.00" arrivalLane="nt14_np11_0" arrivalPos="75.00" arrivalSpeed="11.51" duration="147.00" routeLength="947.90" waitingTime="54.00" waitingCount="4" stopTime="0.00" timeLoss="75.85" rerouteNo="0" devices="tripinfo_f_0_3.6" vType="type1" speedFactor="1.14" vaporized=""/>
    <tripinfo id="f_0_3.7" depart="58.00" departLane="np3_nt3_0" departPos="20.19" departSpeed="0.00" departDelay="0.73" arrival="203.00" arrivalLane="nt14_np11_0" arrivalPos="75.00" arrivalSpeed="8.96" duration="145.00" routeLength="930.90" waitingTime="44.00" waitingCount="5" stopTime="0.00" timeLoss="66.97" rerouteNo="0" devices="tripinfo_f_0_3.7" vType="type1" speedFactor="1.00" vaporized=""/>
    <tripinfo id="f_0_3.8" depart="66.00" departLane="np3_nt3_0" departPos="10.31" departSpeed="0.00" departDelay="0.54" arrival="205.00" arrivalLane="nt14_np11_0" arrivalPos="75.00" arrivalSpeed="11.75" duration="139.00" routeLength="940.78" waitingTime="34.00" waitingCount="2" stopTime="0.00" timeLoss="65.13" rerouteNo="0" devices="tripinfo_f_0_3.8" vType="type1" speedFactor="1.07" vaporized=""/>
    <tripinfo id="f_0_3.9" depart="74.00" departLane="np3_nt3_0" departPos="33.92" departSpeed="0.00" departDelay="0.36" arrival="239.00" arrivalLane="nt14_np11_0" arrivalPos="75.00" arrivalSpeed="8.79" duration="165.00" routeLength="917.17" waitingTime="61.00" waitingCount="5" stopTime="0.00" timeLoss="86.01" rerouteNo="0" devices="tripinfo_f_0_3.9" vType="type1" speedFactor="0.97" vaporized=""/>
    <tripinfo id="f_0_2.2" depart="17.00" departLane="np2_nt2_0" departPos="10.10" departSpeed="0.00" departDelay="0.64" arrival="247.00" arrivalLane="nt15_np10_0" arrivalPos="75.00" arrivalSpeed="9.91" duration="230.00" routeLength="940.98" waitingTime="101.00" waitingCount="8" stopTime="0.00" timeLoss="150.32" rerouteNo="0" devices="tripinfo_f_0_2.2" vType="type1" speedFactor="0.99" vaporized=""/>
    <tripinfo id="f_0_2.3" depart="25.00" departLane="np2_nt2_0" departPos="44.56" departSpeed="0.00" departDelay="0.45" arrival="249.00" arrivalLane="nt15_np10_0" arrivalPos="75.00" arrivalSpeed="11.51" duration="224.00" routeLength="906.52" waitingTime="98.00" waitingCount="7" stopTime="0.00" timeLoss="156.00" rerouteNo="0" devices="tripinfo_f_0_2.3" vType="type1" speedFactor="1.13" vaporized=""/>
    <tripinfo id="f_0_0.1" depart="14.00" departLane="np13_nt13_0" departPos="46.34" departSpeed="0.00" departDelay="0.36" arrival="254.00" arrivalLane="nt4_np5_0" arrivalPos="75.00" arrivalSpeed="18.52" duration="240.00" routeLength="1301.55" waitingTime="105.00" waitingCount="6" stopTime="0.00" timeLoss="145.97" rerouteNo="0" devices="tripinfo_f_0_0.1" vType="type1" speedFactor="0.97" vaporized=""/>
    <tripinfo id="f_0_3.10" depart="82.00" departLane="np3_nt3_0" departPos="30.06" departSpeed="0.00" departDelay="0.18" arrival="267.00" arrivalLane="nt14_np11_0" arrivalPos="75.00" arrivalSpeed="9.84" duration="185.00" routeLength="921.03" waitingTime="83.00" waitingCount="6" stopTime="0.00" timeLoss="112.10" rerouteNo="0" devices="tripinfo_f_0_3.10" vType="type1" speedFactor="1.06" vaporized=""/>
    <tripinfo id="f_0_1.1" depart="14.00" departLane="np16_nt1_0" departPos="24.93" departSpeed="0.00" departDelay="0.36" arrival="268.00" arrivalLane="nt16_np8_0" arrivalPos="75.00" arrivalSpeed="19.48" duration="254.00" routeLength="1322.95" waitingTime="101.00" waitingCount="8" stopTime="0.00" timeLoss="169.13" rerouteNo="0" devices="tripinfo_f_0_1.1" vType="type1" speedFactor="1.08" vaporized=""/>
    <tripinfo id="f_0_3.11" depart="90.00" departLane="np3_nt3_0" departPos="9.11" departSpeed="0.00" departDelay="0.00" arrival="269.00" arrivalLane="nt14_np11_0" arrivalPos="75.00" arrivalSpeed="10.68" duration="179.00" routeLength="941.98" waitingTime="69.00" waitingCount="5" stopTime="0.00" timeLoss="101.60" rerouteNo="0" devices="tripinfo_f_0_3.11" vType="type1" speedFactor="1.03" vaporized=""/>
    <tripinfo id="f_0_0.2" depart="28.00" departLane="np13_nt13_0" departPos="4.60" departSpeed="0.00" departDelay="0.73" arrival="273.00" arrivalLane="nt4_np5_0" arrivalPos="75.00" arrivalSpeed="17.78" duration="245.00" routeLength="1343.29" waitingTime="100.00" waitingCount="8" stopTime="0.00" timeLoss="140.30" rerouteNo="0" devices="tripinfo_f_0_0.2" vType="type1" speedFactor="0.89" vaporized=""/>
    <tripinfo id="f_0_1.2" depart="28.00" departLane="np16_nt1_0" departPos="18.58" departSpeed="0.00" departDelay="0.73" arrival="279.00" arrivalLane="nt16_np8_0" arrivalPos="75.00" arrivalSpeed="16.34" duration="251.00" routeLength="1329.30" waitingTime="90.00" waitingCount="7" stopTime="0.00" timeLoss="149.69" rerouteNo="0" devices="tripinfo_f_0_1.2" vType="type1" speedFactor="0.91" vaporized=""/>
    <tripinfo id="f_0_2.4" depart="33.00" departLane="np2_nt2_0" departPos="2.52" departSpeed="0.00" departDelay="0.27" arrival="302.00" arrivalLane="nt15_np10_0" arrivalPos="75.00" arrivalSpeed="8.93" duration="269.00" routeLength="948.56" waitingTime="130.00" waitingCount="9" stopTime="0.00" timeLoss="188.52" rerouteNo="0" devices="tripinfo_f_0_2.4" vType="type1" speedFactor="0.98" vaporized=""/>
    <tripinfo id="f_0_2.5" depart="41.00" departLane="np2_nt2_0" departPos="50.67" departSpeed="0.00" departDelay="0.09" arrival="307.00" arrivalLane="nt15_np10_0" arrivalPos="75.00" arrivalSpeed="8.77" duration="266.00" routeLength="900.41" waitingTime="113.00" waitingCount="8" stopTime="0.00" timeLoss="172.17" rerouteNo="0" devices="tripinfo_f_0_2.5" vType="type1" speedFactor="0.81" vaporized=""/>
    <tripinfo id="f_0_3.12" depart="99.00" departLane="np3_nt3_0" departPos="20.95" departSpeed="0.00" departDelay="0.82" arrival="310.00" arrivalLane="nt14_np11_0" arrivalPos="75.00" arrivalSpeed="8.40" duration="211.00" routeLength="930.14" waitingTime="87.00" waitingCount="6" stopTime="0.00" timeLoss="118.37" rerouteNo="0" devices="tripinfo_f_0_3.12" vType="type1" speedFactor="0.84" vaporized=""/>
    <tripinfo id="f_0_3.13" depart="107.00" departLane="np3_nt3_0" departPos="13.70" departSpeed="0.00" departDelay="0.63" arrival="312.00" arrivalLane="nt14_np11_0" arrivalPos="75.00" arrivalSpeed="8.99" duration="205.00" routeLength="937.39" waitingTime="80.00" waitingCount="5" stopTime="0.00" timeLoss="118.68" rerouteNo="0" devices="tripinfo_f_0_3.13" vType="type1" speedFactor="0.92" vaporized=""/>
    <tripinfo id="f_0_0.3" depart="41.00" departLane="np13_nt13_0" departPos="26.12" departSpeed="0.00" departDelay="0.09" arrival="315.00" arrivalLane="nt4_np5_0" arrivalPos="75.00" arrivalSpeed="18.67" duration="274.00" routeLength="1321.77" waitingTime="131.00" waitingCount="8" stopTime="0.00" timeLoss="185.29" rerouteNo="0" devices="tripinfo_f_0_0.3" vType="type1" speedFactor="1.04" vaporized=""/>
    <tripinfo id="f_0_1.3" depart="41.00" departLane="np16_nt1_0" departPos="30.01" departSpeed="0.00" departDelay="0.09" arrival="319.00" arrivalLane="nt16_np8_0" arrivalPos="75.00" arrivalSpeed="19.10" duration="278.00" routeLength="1317.87" waitingTime="111.00" waitingCount="8" stopTime="0.00" timeLoss="185.52" rerouteNo="0" devices="tripinfo_f_0_1.3" vType="type1" speedFactor="0.99" vaporized=""/>
    <tripinfo id="f_0_1.4" depart="55.00" departLane="np16_nt1_0" departPos="40.05" departSpeed="0.00" departDelay="0.46" arrival="333.00" arrivalLane="nt16_np8_0" arrivalPos="75.00" arrivalSpeed="18.85" duration="278.00" routeLength="1307.83" waitingTime="117.00" waitingCount="6" stopTime="0.00" timeLoss="182.36" rerouteNo="0" devices="tripinfo_f_0_1.4" vType="type1" speedFactor="0.95" vaporized=""/>
    <tripinfo id="f_0_3.14" depart="115.00" departLane="np3_nt3_0" departPos="25.79" departSpeed="0.00" departDelay="0.45" arrival="342.00" arrivalLane="nt14_np11_0" arrivalPos="75.00" arrivalSpeed="9.75" duration="227.00" routeLength="925.30" waitingTime="104.00" waitingCount="7" stopTime="0.00" timeLoss="151.46" rerouteNo="0" devices="tripinfo_f_0_3.14" vType="type1" speedFactor="1.03" vaporized=""/>
    <tripinfo id="f_0_3.15" depart="123.00" departLane="np3_nt3_0" departPos="22.45" departSpeed="0.00" departDelay="0.27" arrival="357.00" arrivalLane="nt14_np11_0" arrivalPos="75.00" arrivalSpeed="10.95" duration="234.00" routeLength="928.64" waitingTime="116.00" waitingCount="7" stopTime="0.00" timeLoss="155.98" rerouteNo="0" devices="tripinfo_f_0_3.15" vType="type1" speedFactor="1.00" vaporized=""/>
    <tripinfo id="f_0_0.4" depart="55.00" departLane="np13_nt13_0" departPos="25.69" departSpeed="0.00" departDelay="0.46" arrival="359.00" arrivalLane="nt4_np5_0" arrivalPos="75.00" arrivalSpeed="14.20" duration="304.00" routeLength="1322.20" waitingTime="137.00" waitingCount="9" stopTime="0.00" timeLoss="193.32" rerouteNo="0" devices="tripinfo_f_0_0.4" vType="type1" speedFactor="0.83" vaporized=""/>
    <tripinfo id="f_0_0.5" depart="69.00" departLane="np13_nt13_0" departPos="6.47" departSpeed="0.00" departDelay="0.82" arrival="361.00" arrivalLane="nt4_np5_0" arrivalPos="75.00" arrivalSpeed="18.91" duration="292.00" routeLength="1341.42" waitingTime="125.00" waitingCount="10" stopTime="0.00" timeLoss="204.00" rerouteNo="0" devices="tripinfo_f_0_0.5" vType="type1" speedFactor="1.06" vaporized=""/>
    <tripinfo id="f_0_2.6" depart="50.00" departLane="np2_nt2_0" departPos="42.96" departSpeed="0.00" departDelay="0.91" arrival="373.00" arrivalLane="nt15_np10_0" arrivalPos="75.00" arrivalSpeed="8.93" duration="323.00" routeLength="908.12" waitingTime="169.00" waitingCount="7" stopTime="0.00" timeLoss="242.84" rerouteNo="0" devices="tripinfo_f_0_2.6" vType="type1" speedFactor="0.95" vaporized=""/>
    <tripinfo id="f_0_3.16" depart="131.00" departLane="np3_nt3_0" departPos="7.12" departSpeed="0.00" departDelay="0.09" arrival="373.00" arrivalLane="nt14_np11_0" arrivalPos="75.00" arrivalSpeed="10.15" duration="242.00" routeLength="943.97" waitingTime="112.00" waitingCount="8" stopTime="0.00" timeLoss="159.05" rerouteNo="0" devices="tripinfo_f_0_3.16" vType="type1" speedFactor="0.96" vaporized=""/>
    <tripinfo id="f_0_2.7" depart="58.00" departLane="np2_nt2_0" departPos="34.09" departSpeed="0.00" departDelay="0.73" arrival="375.00" arrivalLane="nt15_np10_0" arrivalPos="75.00" arrivalSpeed="10.85" duration="317.00" routeLength="916.99" waitingTime="164.00" waitingCount="9" stopTime="0.00" timeLoss="251.29" rerouteNo="0" devices="tripinfo_f_0_2.7" vType="type1" speedFactor="1.17" vaporized=""/>
    <tripinfo id="f_0_0.6" depart="82.00" departLane="np13_nt13_0" departPos="57.11" departSpeed="0.00" departDelay="0.18" arrival="383.00" arrivalLane="nt4_np5_0" arrivalPos="75.00" arrivalSpeed="19.79" duration="301.00" routeLength="1290.78" waitingTime="145.00" waitingCount="10" stopTime="0.00" timeLoss="215.90" rerouteNo="0" devices="tripinfo_f_0_0.6" vType="type1" speedFactor="1.06" vaporized=""/>
    <tripinfo id="f_0_0.7" depart="96.00" departLane="np13_nt13_0" departPos="55.86" departSpeed="0.00" departDelay="0.55" arrival="389.00" arrivalLane="nt4_np5_0" arrivalPos="75.00" arrivalSpeed="15.78" duration="293.00" routeLength="1292.03" waitingTime="127.00" waitingCount="8" stopTime="0.00" timeLoss="192.15" rerouteNo="0" devices="tripinfo_f_0_0.7" vType="type1" speedFactor="0.90" vaporized=""/>
    <tripinfo id="f_0_2.8" depart="66.00" departLane="np2_nt2_0" departPos="19.69" departSpeed="0.00" departDelay="0.54" arrival="392.00" arrivalLane="nt15_np10_0" arrivalPos="75.00" arrivalSpeed="10.48" duration="326.00" routeLength="931.39" waitingTime="176.00" waitingCount="12" stopTime="0.00" timeLoss="248.11" rerouteNo="0" devices="tripinfo_f_0_2.8" vType="type1" speedFactor="1.01" vaporized=""/>
    <tripinfo id="f_0_1.5" depart="69.00" departLane="np16_nt1_0" departPos="28.06" departSpeed="0.00" departDelay="0.82" arrival="413.00" arrivalLane="nt16_np8_0" arrivalPos="75.00" arrivalSpeed="20.10" duration="344.00" routeLength="1319.82" waitingTime="183.00" waitingCount="12" stopTime="0.00" timeLoss="256.00" rerouteNo="0" devices="tripinfo_f_0_1.5" vType="type1" speedFactor="1.04" vaporized=""/>
    <tripinfo id="f_0_2.9" depart="74.00" departLane="np2_nt2_0" departPos="26.57" departSpeed="0.00" departDelay="0.36" arrival="423.00" arrivalLane="nt15_np10_0" arrivalPos="75.00" arrivalSpeed="8.49" duration="349.00" routeLength="924.51" waitingTime="191.00" waitingCount="12" stopTime="0.00" timeLoss="265.90" rerouteNo="0" devices="tripinfo_f_0_2.9" vType="type1" speedFactor="0.93" vaporized=""/>
    <tripinfo id="f_0_3.17" depart="140.00" departLane="np3_nt3_0" departPos="0.56" departSpeed="0.00" departDelay="0.91" arrival="423.00" arrivalLane="nt14_np11_0" arrivalPos="75.00" arrivalSpeed="9.15" duration="283.00" routeLength="950.53" waitingTime="144.00" waitingCount="7" stopTime="0.00" timeLoss="196.79" rerouteNo="0" devices="tripinfo_f_0_3.17" vType="type1" speedFactor="0.92" vaporized=""/>
    <tripinfo id="f_0_3.18" depart="148.00" departLane="np3_nt3_0" departPos="10.17" departSpeed="0.00" departDelay="0.72" arrival="425.00" arrivalLane="nt14_np11_0" arrivalPos="75.00" arrivalSpeed="9.96" duration="277.00" routeLength="940.92" waitingTime="146.00" waitingCount="8" stopTime="0.00" timeLoss="198.11" rerouteNo="0" devices="tripinfo_f_0_3.18" vType="type1" speedFactor="1.00" vaporized=""/>
    <tripinfo id="f_0_3.19" depart="156.00" departLane="np3_nt3_0" departPos="1.81" departSpeed="0.00" departDelay="0.54" arrival="438.00" arrivalLane="nt14_np11_0" arrivalPos="75.00" arrivalSpeed="8.81" duration="282.00" routeLength="949.28" waitingTime="146.00" waitingCount="8" stopTime="0.00" timeLoss="200.54" rerouteNo="0" devices="tripinfo_f_0_3.19" vType="type1" speedFactor="0.98" vaporized=""/>
    <tripinfo id="f_0_3.20" depart="164.00" departLane="np3_nt3_0" departPos="7.74" departSpeed="0.00" departDelay="0.36" arrival="440.00" arrivalLane="nt14_np11_0" arrivalPos="75.00" arrivalSpeed="8.86" duration="276.00" routeLength="943.35" waitingTime="149.00" waitingCount="7" stopTime="0.00" timeLoss="191.61" rerouteNo="0" devices="tripinfo_f_0_3.20" vType="type1" speedFactor="0.94" vaporized=""/>
    <tripinfo id="f_0_0.8" depart="110.00" departLane="np13_nt13_0" departPos="62.75" departSpeed="0.00" departDelay="0.91" arrival="443.00" arrivalLane="nt4_np5_0" arrivalPos="75.00" arrivalSpeed="20.71" duration="333.00" routeLength="1285.14" waitingTime="174.00" waitingCount="11" stopTime="0.00" timeLoss="249.84" rerouteNo="0" devices="tripinfo_f_0_0.8" vType="type1" speedFactor="1.09" vaporized=""/>
    <tripinfo id="f_0_0.9" depart="123.00" departLane="np13_nt13_0" departPos="27.85" departSpeed="0.00" departDelay="0.28" arrival="452.00" arrivalLane="nt4_np5_0" arrivalPos="75.00" arrivalSpeed="17.12" duration="329.00" routeLength="1320.04" waitingTime="177.00" waitingCount="11" stopTime="0.00" timeLoss="232.88" rerouteNo="0" devices="tripinfo_f_0_0.9" vType="type1" speedFactor="0.96" vaporized=""/>
    <tripinfo id="f_0_2.10" depart="82.00" departLane="np2_nt2_0" departPos="38.05" departSpeed="0.00" departDelay="0.18" arrival="461.00" arrivalLane="nt15_np10_0" arrivalPos="75.00" arrivalSpeed="10.07" duration="379.00" routeLength="913.03" waitingTime="216.00" waitingCount="14" stopTime="0.00" timeLoss="311.07" rerouteNo="0" devices="tripinfo_f_0_2.10" vType="type1" speedFactor="1.12" vaporized=""/>
    <tripinfo id="f_0_2.11" depart="90.00" departLane="np2_nt2_0" departPos="20.45" departSpeed="0.00" departDelay="0.00" arrival="464.00" arrivalLane="nt15_np10_0" arrivalPos="75.00" arrivalSpeed="10.53" duration="374.00" routeLength="930.63" waitingTime="205.00" waitingCount="11" stopTime="0.00" timeLoss="297.13" rerouteNo="0" devices="tripinfo_f_0_2.11" vType="type1" speedFactor="1.02" vaporized=""/>
    <tripinfo id="f_0_0.10" depart="137.00" departLane="np13_nt13_0" departPos="54.11" departSpeed="0.00" departDelay="0.64" arrival="468.00" arrivalLane="nt4_np5_0" arrivalPos="75.00" arrivalSpeed="22.77" duration="331.00" routeLength="1293.78" waitingTime="165.00" waitingCount="16" stopTime="0.00" timeLoss="254.76" rerouteNo="0" devices="tripinfo_f_0_0.10" vType="type1" speedFactor="1.20" vaporized=""/>
    <tripinfo id="f_0_2.12" depart="99.00" departLane="np2_nt2_0" departPos="46.59" departSpeed="0.00" departDelay="0.82" arrival="474.00" arrivalLane="nt15_np10_0" arrivalPos="75.00" arrivalSpeed="9.00" duration="375.00" routeLength="904.49" waitingTime="200.00" waitingCount="11" stopTime="0.00" timeLoss="290.67" rerouteNo="0" devices="tripinfo_f_0_2.12" vType="type1" speedFactor="0.90" vaporized=""/>
    <tripinfo id="f_0_0.11" depart="150.00" departLane="np13_nt13_0" departPos="50.66" departSpeed="0.00" departDelay="0.00" arrival="474.00" arrivalLane="nt4_np5_0" arrivalPos="75.00" arrivalSpeed="22.02" duration="324.00" routeLength="1297.23" waitingTime="167.00" waitingCount="13" stopTime="0.00" timeLoss="242.67" rerouteNo="0" devices="tripinfo_f_0_0.11" vType="type1" speedFactor="1.12" vaporized=""/>
    <tripinfo id="f_0_3.21" depart="172.00" departLane="np3_nt3_0" departPos="2.22" departSpeed="0.00" departDelay="0.18" arrival="477.00" arrivalLane="nt14_np11_0" arrivalPos="75.00" arrivalSpeed="9.35" duration="305.00" routeLength="948.87" waitingTime="179.00" waitingCount="9" stopTime="0.00" timeLoss="228.74" rerouteNo="0" devices="tripinfo_f_0_3.21" vType="type1" speedFactor="1.05" vaporized=""/>
    <tripinfo id="f_0_2.13" depart="107.00" departLane="np2_nt2_0" departPos="9.94" departSpeed="0.00" departDelay="0.63" arrival="483.00" arrivalLane="nt15_np10_0" arrivalPos="75.00" arrivalSpeed="8.89" duration="376.00" routeLength="941.14" waitingTime="207.00" waitingCount="14" stopTime="0.00" timeLoss="284.51" rerouteNo="0" devices="tripinfo_f_0_2.13" vType="type1" speedFactor="0.86" vaporized=""/>
    <tripinfo id="f_0_2.14" depart="115.00" departLane="np2_nt2_0" departPos="39.94" departSpeed="0.00" departDelay="0.45" arrival="485.00" arrivalLane="nt15_np10_0" arrivalPos="75.00" arrivalSpeed="9.36" duration="370.00" routeLength="911.14" waitingTime="199.00" waitingCount="16" stopTime="0.00" timeLoss="284.79" rerouteNo="0" devices="tripinfo_f_0_2.14" vType="type1" speedFactor="0.89" vaporized=""/>
    <tripinfo id="f_0_0.12" depart="164.00" departLane="np13_nt13_0" departPos="11.77" departSpeed="0.00" departDelay="0.37" arrival="502.00" arrivalLane="nt4_np5_0" arrivalPos="75.00" arrivalSpeed="20.98" duration="338.00" routeLength="1336.12" waitingTime="196.00" waitingCount="10" stopTime="0.00" timeLoss="251.69" rerouteNo="0" devices="tripinfo_f_0_0.12" vType="type1" speedFactor="1.07" vaporized=""/>
    <tripinfo id="f_0_0.13" depart="178.00" departLane="np13_nt13_0" departPos="47.97" departSpeed="0.00" departDelay="0.73" arrival="504.00" arrivalLane="nt4_np5_0" arrivalPos="75.00" arrivalSpeed="17.51" duration="326.00" routeLength="1299.92" waitingTime="166.00" waitingCount="11" stopTime="0.00" timeLoss="232.71" rerouteNo="0" devices="tripinfo_f_0_0.13" vType="type1" speedFactor="0.97" vaporized=""/>
    <tripinfo id="f_0_3.22" depart="180.00" departLane="np3_nt3_0" departPos="16.30" departSpeed="0.00" departDelay="0.00" arrival="506.00" arrivalLane="nt14_np11_0" arrivalPos="75.00" arrivalSpeed="11.19" duration="326.00" routeLength="934.79" waitingTime="208.00" waitingCount="10" stopTime="0.00" timeLoss="252.23" rerouteNo="0" devices="tripinfo_f_0_3.22" vType="type1" speedFactor="1.06" vaporized=""/>
    <tripinfo id="f_0_1.6" depart="82.00" departLane="np16_nt1_0" departPos="5.53" departSpeed="0.00" departDelay="0.18" arrival="509.00" arrivalLane="nt16_np8_0" arrivalPos="75.00" arrivalSpeed="20.10" duration="427.00" routeLength="1342.35" waitingTime="220.00" waitingCount="19" stopTime="0.00" timeLoss="337.63" rerouteNo="0" devices="tripinfo_f_0_1.6" vType="type1" speedFactor="1.05" vaporized=""/>
    <tripinfo id="f_0_1.7" depart="96.00" departLane="np16_nt1_0" departPos="66.05" departSpeed="0.00" departDelay="0.55" arrival="511.00" arrivalLane="nt16_np8_0" arrivalPos="75.00" arrivalSpeed="17.26" duration="415.00" routeLength="1281.83" waitingTime="209.00" waitingCount="18" stopTime="0.00" timeLoss="320.84" rerouteNo="0" devices="tripinfo_f_0_1.7" vType="type1" speedFactor="0.96" vaporized=""/>
    <tripinfo id="f_0_3.23" depart="189.00" departLane="np3_nt3_0" departPos="39.44" departSpeed="0.00" departDelay="0.81" arrival="511.00" arrivalLane="nt14_np11_0" arrivalPos="75.00" arrivalSpeed="8.60" duration="322.00" routeLength="911.65" waitingTime="184.00" waitingCount="10" stopTime="0.00" timeLoss="230.62" rerouteNo="0" devices="tripinfo_f_0_3.23" vType="type1" speedFactor="0.84" vaporized=""/>
    <tripinfo id="f_0_3.24" depart="197.00" departLane="np3_nt3_0" departPos="12.75" departSpeed="0.00" departDelay="0.63" arrival="513.00" arrivalLane="nt14_np11_0" arrivalPos="75.00" arrivalSpeed="8.51" duration="316.00" routeLength="938.34" waitingTime="167.00" waitingCount="11" stopTime="0.00" timeLoss="234.10" rerouteNo="0" devices="tripinfo_f_0_3.24" vType="type1" speedFactor="0.96" vaporized=""/>
    <tripinfo id="f_0_3.25" depart="205.00" departLane="np3_nt3_0" departPos="7.28" departSpeed="0.00" departDelay="0.45" arrival="515.00" arrivalLane="nt14_np11_0" arrivalPos="75.00" arrivalSpeed="11.15" duration="310.00" routeLength="943.81" waitingTime="186.00" waitingCount="8" stopTime="0.00" timeLoss="233.23" rerouteNo="0" devices="tripinfo_f_0_3.25" vType="type1" speedFactor="1.04" vaporized=""/>
    <tripinfo id="f_0_2.15" depart="123.00" departLane="np2_nt2_0" departPos="23.16" departSpeed="0.00" departDelay="0.27" arrival="522.00" arrivalLane="nt15_np10_0" arrivalPos="75.00" arrivalSpeed="10.85" duration="399.00" routeLength="927.92" waitingTime="199.00" waitingCount="17" stopTime="0.00" timeLoss="320.74" rerouteNo="0" devices="tripinfo_f_0_2.15" vType="type1" speedFactor="1.00" vaporized=""/>
    <tripinfo id="f_0_2.16" depart="131.00" departLane="np2_nt2_0" departPos="33.62" departSpeed="0.00" departDelay="0.09" arrival="524.00" arrivalLane="nt15_np10_0" arrivalPos="75.00" arrivalSpeed="10.94" duration="393.00" routeLength="917.46" waitingTime="196.00" waitingCount="16" stopTime="0.00" timeLoss="325.29" rerouteNo="0" devices="tripinfo_f_0_2.16" vType="type1" speedFactor="1.13" vaporized=""/>
    <tripinfo id="f_0_2.17" depart="140.00" departLane="np2_nt2_0" departPos="3.04" departSpeed="0.00" departDelay="0.91" arrival="532.00" arrivalLane="nt15_np10_0" arrivalPos="75.00" arrivalSpeed="10.36" duration="392.00" routeLength="948.04" waitingTime="188.00" waitingCount="16" stopTime="0.00" timeLoss="320.52" rerouteNo="0" devices="tripinfo_f_0_2.17" vType="type1" speedFactor="1.11" vaporized=""/>
    <tripinfo id="f_0_0.14" depart="191.00" departLane="np13_nt13_0" departPos="39.90" departSpeed="0.00" departDelay="0.10" arrival="538.00" arrivalLane="nt4_np5_0" arrivalPos="75.00" arrivalSpeed="18.49" duration="347.00" routeLength="1307.99" waitingTime="179.00" waitingCount="13" stopTime="0.00" timeLoss="253.36" rerouteNo="0" devices="tripinfo_f_0_0.14" vType="type1" speedFactor="0.97" vaporized=""/>
    <tripinfo id="f_0_0.15" depart="205.00" departLane="np13_nt13_0" departPos="27.46" departSpeed="0.00" departDelay="0.46" arrival="540.00" arrivalLane="nt4_np5_0" arrivalPos="75.00" arrivalSpeed="19.28" duration="335.00" routeLength="1320.43" waitingTime="165.00" waitingCount="13" stopTime="0.00" timeLoss="244.83" rerouteNo="0" devices="tripinfo_f_0_0.15" vType="type1" speedFactor="1.02" vaporized=""/>
    <tripinfo id="f_0_1.8" depart="110.00" departLane="np16_nt1_0" departPos="51.28" departSpeed="0.00" departDelay="0.91" arrival="548.00" arrivalLane="nt16_np8_0" arrivalPos="75.00" arrivalSpeed="17.91" duration="438.00" routeLength="1296.60" waitingTime="209.00" waitingCount="18" stopTime="0.00" timeLoss="346.69" rerouteNo="0" devices="tripinfo_f_0_1.8" vType="type1" speedFactor="0.99" vaporized=""/>
    <tripinfo id="f_0_0.16" depart="219.00" departLane="np13_nt13_0" departPos="51.07" departSpeed="0.00" departDelay="0.82" arrival="554.00" arrivalLane="nt4_np5_0" arrivalPos="75.00" arrivalSpeed="18.71" duration="335.00" routeLength="1296.82" waitingTime="155.00" waitingCount="15" stopTime="0.00" timeLoss="240.68" rerouteNo="0" devices="tripinfo_f_0_0.16" vType="type1" speedFactor="0.96" vaporized=""/>
    <tripinfo id="f_0_0.17" depart="232.00" departLane="np13_nt13_0" departPos="64.31" departSpeed="0.00" departDelay="0.19" arrival="555.00" arrivalLane="nt4_np5_0" arrivalPos="75.00" arrivalSpeed="18.60" duration="323.00" routeLength="1283.58" waitingTime="139.00" waitingCount="15" stopTime="0.00" timeLoss="226.55" rerouteNo="0" devices="tripinfo_f_0_0.17" vType="type1" speedFactor="0.93" vaporized=""/>