<?xml version="1.0" encoding="UTF-8"?>

<!-- generated on 2023-08-30 18:17:50 by Eclipse SUMO libsumo Version 1.18.0
<configuration xmlns:xsi="http://www.w3.org/2001/XMLSchema-instance" xsi:noNamespaceSchemaLocation="http://sumo.dlr.de/xsd/libsumoConfiguration.xsd">

    <input>
        <net-file value="/home/stefan/RESCO/./environments/arterial4x4/arterial4x4.net.xml"/>
        <route-files value="/home/stefan/RESCO/./environments/arterial4x4/arterial4x4_23.rou.xml"/>
    </input>

    <output>
        <tripinfo-output value="/home/stefan/results/RAINBOW-tr0-arterial4x4-0-drq_norm-wait_norm/tripinfo_23.xml"/>
        <tripinfo-output.write-unfinished value="true"/>
    </output>

    <processing>
        <time-to-teleport value="-1"/>
    </processing>

    <report>
        <no-warnings value="True"/>
        <no-step-log value="True"/>
    </report>

    <random_number>
        <random value="true"/>
    </random_number>

</configuration>
-->

<tripinfos xmlns:xsi="http://www.w3.org/2001/XMLSchema-instance" xsi:noNamespaceSchemaLocation="http://sumo.dlr.de/xsd/tripinfo_file.xsd">
    <tripinfo id="f_0_0.0" depart="0.00" departLane="np13_nt13_0" departPos="50.18" departSpeed="0.00" departDelay="0.00" arrival="143.00" arrivalLane="nt4_np5_0" arrivalPos="75.00" arrivalSpeed="23.22" duration="143.00" routeLength="1297.71" waitingTime="37.00" waitingCount="2" stopTime="0.00" timeLoss="64.52" rerouteNo="0" devices="tripinfo_f_0_0.0" vType="type1" speedFactor="1.17" vaporized=""/>
    <tripinfo id="f_0_3.0" depart="0.00" departLane="np3_nt3_0" departPos="5.19" departSpeed="0.00" departDelay="0.00" arrival="148.00" arrivalLane="nt14_np11_0" arrivalPos="75.00" arrivalSpeed="8.25" duration="148.00" routeLength="945.90" waitingTime="38.00" waitingCount="3" stopTime="0.00" timeLoss="61.16" rerouteNo="0" devices="tripinfo_f_0_3.0" vType="type1" speedFactor="0.92" vaporized=""/>
    <tripinfo id="f_0_2.0" depart="0.00" departLane="np2_nt2_0" departPos="23.21" departSpeed="0.00" departDelay="0.00" arrival="196.00" arrivalLane="nt15_np10_0" arrivalPos="75.00" arrivalSpeed="11.34" duration="196.00" routeLength="927.87" waitingTime="105.00" waitingCount="4" stopTime="0.00" timeLoss="127.21" rerouteNo="0" devices="tripinfo_f_0_2.0" vType="type1" speedFactor="1.13" vaporized=""/>
    <tripinfo id="f_0_2.1" depart="9.00" departLane="np2_nt2_0" departPos="50.00" departSpeed="0.00" departDelay="0.82" arrival="198.00" arrivalLane="nt15_np10_0" arrivalPos="75.00" arrivalSpeed="9.74" duration="189.00" routeLength="901.08" waitingTime="88.00" waitingCount="6" stopTime="0.00" timeLoss="119.18" rerouteNo="0" devices="tripinfo_f_0_2.1" vType="type1" speedFactor="1.08" vaporized=""/>
    <tripinfo id="f_0_3.1" depart="9.00" departLane="np3_nt3_0" departPos="24.71" departSpeed="0.00" departDelay="0.82" arrival="207.00" arrivalLane="nt14_np11_0" arrivalPos="75.00" arrivalSpeed="10.36" duration="198.00" routeLength="926.38" waitingTime="96.00" waitingCount="5" stopTime="0.00" timeLoss="124.92" rerouteNo="0" devices="tripinfo_f_0_3.1" vType="type1" speedFactor="1.07" vaporized=""/>
    <tripinfo id="f_0_1.0" depart="0.00" departLane="np16_nt1_0" departPos="33.08" departSpeed="0.00" departDelay="0.00" arrival="213.00" arrivalLane="nt16_np8_0" arrivalPos="75.00" arrivalSpeed="17.72" duration="213.00" routeLength="1314.80" waitingTime="77.00" waitingCount="7" stopTime="0.00" timeLoss="119.07" rerouteNo="0" devices="tripinfo_f_0_1.0" vType="type1" speedFactor="0.98" vaporized=""/>
    <tripinfo id="f_0_3.2" depart="17.00" departLane="np3_nt3_0" departPos="38.06" departSpeed="0.00" departDelay="0.64" arrival="234.00" arrivalLane="nt14_np11_0" arrivalPos="75.00" arrivalSpeed="8.33" duration="217.00" routeLength="913.03" waitingTime="100.00" waitingCount="6" stopTime="0.00" timeLoss="128.58" rerouteNo="0" devices="tripinfo_f_0_3.2" vType="type1" speedFactor="0.86" vaporized=""/>
    <tripinfo id="f_0_2.2" depart="17.00" departLane="np2_nt2_0" departPos="34.10" departSpeed="0.00" departDelay="0.64" arrival="237.00" arrivalLane="nt15_np10_0" arrivalPos="75.00" arrivalSpeed="11.42" duration="220.00" routeLength="916.98" waitingTime="92.00" waitingCount="8" stopTime="0.00" timeLoss="146.55" rerouteNo="0" devices="tripinfo_f_0_2.2" vType="type1" speedFactor="1.06" vaporized=""/>
    <tripinfo id="f_0_2.3" depart="25.00" departLane="np2_nt2_0" departPos="38.51" departSpeed="0.00" departDelay="0.45" arrival="257.00" arrivalLane="nt15_np10_0" arrivalPos="75.00" arrivalSpeed="10.09" duration="232.00" routeLength="912.57" waitingTime="103.00" waitingCount="10" stopTime="0.00" timeLoss="153.43" rerouteNo="0" devices="tripinfo_f_0_2.3" vType="type1" speedFactor="0.98" vaporized=""/>
    <tripinfo id="f_0_3.3" depart="25.00" departLane="np3_nt3_0" departPos="46.95" departSpeed="0.00" departDelay="0.45" arrival="272.00" arrivalLane="nt14_np11_0" arrivalPos="75.00" arrivalSpeed="8.72" duration="247.00" routeLength="904.14" waitingTime="116.00" waitingCount="6" stopTime="0.00" timeLoss="152.02" rerouteNo="0" devices="tripinfo_f_0_3.3" vType="type1" speedFactor="0.79" vaporized=""/>
    <tripinfo id="f_0_3.4" depart="33.00" departLane="np3_nt3_0" departPos="22.98" departSpeed="0.00" departDelay="0.27" arrival="327.00" arrivalLane="nt14_np11_0" arrivalPos="75.00" arrivalSpeed="9.89" duration="294.00" routeLength="928.11" waitingTime="180.00" waitingCount="7" stopTime="0.00" timeLoss="219.59" rerouteNo="0" devices="tripinfo_f_0_3.4" vType="type1" speedFactor="1.04" vaporized=""/>
    <tripinfo id="f_0_2.4" depart="33.00" departLane="np2_nt2_0" departPos="35.30" departSpeed="0.00" departDelay="0.27" arrival="328.00" arrivalLane="nt15_np10_0" arrivalPos="75.00" arrivalSpeed="8.98" duration="295.00" routeLength="915.78" waitingTime="169.00" waitingCount="10" stopTime="0.00" timeLoss="215.34" rerouteNo="0" devices="tripinfo_f_0_2.4" vType="type1" speedFactor="0.97" vaporized=""/>
    <tripinfo id="f_0_3.5" depart="41.00" departLane="np3_nt3_0" departPos="22.68" departSpeed="0.00" departDelay="0.09" arrival="329.00" arrivalLane="nt14_np11_0" arrivalPos="75.00" arrivalSpeed="10.82" duration="288.00" routeLength="928.41" waitingTime="169.00" waitingCount="7" stopTime="0.00" timeLoss="214.50" rerouteNo="0" devices="tripinfo_f_0_3.5" vType="type1" speedFactor="1.07" vaporized=""/>
    <tripinfo id="f_0_2.5" depart="41.00" departLane="np2_nt2_0" departPos="27.58" departSpeed="0.00" departDelay="0.09" arrival="352.00" arrivalLane="nt15_np10_0" arrivalPos="75.00" arrivalSpeed="11.50" duration="311.00" routeLength="923.50" waitingTime="192.00" waitingCount="9" stopTime="0.00" timeLoss="236.62" rerouteNo="0" devices="tripinfo_f_0_2.5" vType="type1" speedFactor="1.05" vaporized=""/>
    <tripinfo id="f_0_2.6" depart="50.00" departLane="np2_nt2_0" departPos="29.30" departSpeed="0.00" departDelay="0.91" arrival="355.00" arrivalLane="nt15_np10_0" arrivalPos="75.00" arrivalSpeed="8.12" duration="305.00" routeLength="921.78" waitingTime="181.00" waitingCount="9" stopTime="0.00" timeLoss="222.04" rerouteNo="0" devices="tripinfo_f_0_2.6" vType="type1" speedFactor="0.93" vaporized=""/>
    <tripinfo id="f_0_2.7" depart="58.00" departLane="np2_nt2_0" departPos="5.10" departSpeed="0.00" departDelay="0.73" arrival="357.00" arrivalLane="nt15_np10_0" arrivalPos="75.00" arrivalSpeed="9.41" duration="299.00" routeLength="945.98" waitingTime="171.00" waitingCount="8" stopTime="0.00" timeLoss="222.30" rerouteNo="0" devices="tripinfo_f_0_2.7" vType="type1" speedFactor="1.04" vaporized=""/>
    <tripinfo id="f_0_2.8" depart="66.00" departLane="np2_nt2_0" departPos="0.45" departSpeed="0.00" departDelay="0.54" arrival="371.00" arrivalLane="nt15_np10_0" arrivalPos="75.00" arrivalSpeed="11.36" duration="305.00" routeLength="950.63" waitingTime="176.00" waitingCount="10" stopTime="0.00" timeLoss="232.32" rerouteNo="0" devices="tripinfo_f_0_2.8" vType="type1" speedFactor="1.10" vaporized=""/>
    <tripinfo id="f_0_1.1" depart="14.00" departLane="np16_nt1_0" departPos="49.68" departSpeed="0.00" departDelay="0.36" arrival="374.00" arrivalLane="nt16_np8_0" arrivalPos="75.00" arrivalSpeed="19.04" duration="360.00" routeLength="1298.20" waitingTime="203.00" waitingCount="10" stopTime="0.00" timeLoss="270.26" rerouteNo="0" devices="tripinfo_f_0_1.1" vType="type1" speedFactor="1.02" vaporized=""/>
    <tripinfo id="f_0_1.2" depart="28.00" departLane="np16_nt1_0" departPos="28.05" departSpeed="0.00" departDelay="0.73" arrival="388.00" arrivalLane="nt16_np8_0" arrivalPos="75.00" arrivalSpeed="17.55" duration="360.00" routeLength="1319.83" waitingTime="185.00" waitingCount="15" stopTime="0.00" timeLoss="260.44" rerouteNo="0" devices="tripinfo_f_0_1.2" vType="type1" speedFactor="0.92" vaporized=""/>
    <tripinfo id="f_0_3.6" depart="50.00" departLane="np3_nt3_0" departPos="3.60" departSpeed="0.00" departDelay="0.91" arrival="409.00" arrivalLane="nt14_np11_0" arrivalPos="75.00" arrivalSpeed="9.37" duration="359.00" routeLength="947.49" waitingTime="219.00" waitingCount="9" stopTime="0.00" timeLoss="267.41" rerouteNo="0" devices="tripinfo_f_0_3.6" vType="type1" speedFactor="0.87" vaporized=""/>
    <tripinfo id="f_0_2.9" depart="74.00" departLane="np2_nt2_0" departPos="5.18" departSpeed="0.00" departDelay="0.36" arrival="421.00" arrivalLane="nt15_np10_0" arrivalPos="75.00" arrivalSpeed="11.19" duration="347.00" routeLength="945.90" waitingTime="191.00" waitingCount="12" stopTime="0.00" timeLoss="273.21" rerouteNo="0" devices="tripinfo_f_0_2.9" vType="type1" speedFactor="1.08" vaporized=""/>
    <tripinfo id="f_0_2.10" depart="82.00" departLane="np2_nt2_0" departPos="34.23" departSpeed="0.00" departDelay="0.18" arrival="426.00" arrivalLane="nt15_np10_0" arrivalPos="75.00" arrivalSpeed="8.72" duration="344.00" routeLength="916.85" waitingTime="178.00" waitingCount="14" stopTime="0.00" timeLoss="254.66" rerouteNo="0" devices="tripinfo_f_0_2.10" vType="type1" speedFactor="0.86" vaporized=""/>
    <tripinfo id="f_0_3.7" depart="58.00" departLane="np3_nt3_0" departPos="7.95" departSpeed="0.00" departDelay="0.73" arrival="457.00" arrivalLane="nt14_np11_0" arrivalPos="75.00" arrivalSpeed="11.07" duration="399.00" routeLength="943.14" waitingTime="265.00" waitingCount="11" stopTime="0.00" timeLoss="322.07" rerouteNo="0" devices="tripinfo_f_0_3.7" vType="type1" speedFactor="1.03" vaporized=""/>
    <tripinfo id="f_0_0.1" depart="14.00" departLane="np13_nt13_0" departPos="13.65" departSpeed="0.00" departDelay="0.36" arrival="475.00" arrivalLane="nt4_np5_0" arrivalPos="75.00" arrivalSpeed="19.59" duration="461.00" routeLength="1334.24" waitingTime="353.00" waitingCount="4" stopTime="0.00" timeLoss="374.42" rerouteNo="0" devices="tripinfo_f_0_0.1" vType="type1" speedFactor="1.07" vaporized=""/>
    <tripinfo id="f_0_2.11" depart="90.00" departLane="np2_nt2_0" departPos="5.53" departSpeed="0.00" departDelay="0.00" arrival="478.00" arrivalLane="nt15_np10_0" arrivalPos="75.00" arrivalSpeed="8.10" duration="388.00" routeLength="945.55" waitingTime="229.00" waitingCount="12" stopTime="0.00" timeLoss="302.64" rerouteNo="0" devices="tripinfo_f_0_2.11" vType="type1" speedFactor="0.93" vaporized=""/>
    <tripinfo id="f_0_2.12" depart="99.00" departLane="np2_nt2_0" departPos="2.34" departSpeed="0.00" departDelay="0.82" arrival="480.00" arrivalLane="nt15_np10_0" arrivalPos="75.00" arrivalSpeed="11.47" duration="381.00" routeLength="948.74" waitingTime="223.00" waitingCount="12" stopTime="0.00" timeLoss="307.73" rerouteNo="0" devices="tripinfo_f_0_2.12" vType="type1" speedFactor="1.09" vaporized=""/>
    <tripinfo id="f_0_0.2" depart="28.00" departLane="np13_nt13_0" departPos="63.06" departSpeed="0.00" departDelay="0.73" arrival="563.00" arrivalLane="nt4_np5_0" arrivalPos="75.00" arrivalSpeed="19.07" duration="535.00" routeLength="1284.83" waitingTime="409.00" waitingCount="7" stopTime="0.00" timeLoss="445.43" rerouteNo="0" devices="tripinfo_f_0_0.2" vType="type1" speedFactor="1.00" vaporized=""/>
    <tripinfo id="f_0_0.3" depart="41.00" departLane="np13_nt13_0" departPos="30.11" departSpeed="0.00" departDelay="0.09" arrival="565.00" arrivalLane="nt4_np5_0" arrivalPos="75.00" arrivalSpeed="16.82" duration="524.00" routeLength="1317.78" waitingTime="383.00" waitingCount="9" stopTime="0.00" timeLoss="427.75" rerouteNo="0" devices="tripinfo_f_0_0.3" vType="type1" speedFactor="0.96" vaporized=""/>
    <tripinfo id="f_0_3.8" depart="66.00" departLane="np3_nt3_0" departPos="17.35" departSpeed="0.00" departDelay="0.54" arrival="583.00" arrivalLane="nt14_np11_0" arrivalPos="75.00" arrivalSpeed="8.80" duration="517.00" routeLength="933.74" waitingTime="390.00" waitingCount="9" stopTime="0.00" timeLoss="435.47" rerouteNo="0" devices="tripinfo_f_0_3.8" vType="type1" speedFactor="0.96" vaporized=""/>
    <tripinfo id="f_0_3.9" depart="74.00" departLane="np3_nt3_0" departPos="6.43" departSpeed="0.00" departDelay="0.36" arrival="586.00" arrivalLane="nt14_np11_0" arrivalPos="75.00" arrivalSpeed="7.86" duration="512.00" routeLength="944.66" waitingTime="367.00" waitingCount="9" stopTime="0.00" timeLoss="420.82" rerouteNo="0" devices="tripinfo_f_0_3.9" vType="type1" speedFactor="0.87" vaporized=""/>
    <tripinfo id="f_0_2.13" depart="107.00" departLane="np2_nt2_0" departPos="37.85" departSpeed="0.00" departDelay="0.63" arrival="597.00" arrivalLane="nt15_np10_0" arrivalPos="75.00" arrivalSpeed="10.44" duration="490.00" routeLength="913.23" waitingTime="326.00" waitingCount="14" stopTime="0.00" timeLoss="420.41" rerouteNo="0" devices="tripinfo_f_0_2.13" vType="type1" speedFactor="1.10" vaporized=""/>
    <tripinfo id="f_0_2.14" depart="115.00" departLane="np2_nt2_0" departPos="60.71" departSpeed="0.00" departDelay="0.45" arrival="609.00" arrivalLane="nt15_np10_0" arrivalPos="75.00" arrivalSpeed="8.86" duration="494.00" routeLength="890.37" waitingTime="330.00" waitingCount="13" stopTime="0.00" timeLoss="410.18" rerouteNo="0" devices="tripinfo_f_0_2.14" vType="type1" speedFactor="0.89" vaporized=""/>
    <tripinfo id="f_0_0.4" depart="55.00" departLane="np13_nt13_0" departPos="56.77" departSpeed="0.00" departDelay="0.46" arrival="613.00" arrivalLane="nt4_np5_0" arrivalPos="75.00" arrivalSpeed="18.83" duration="558.00" routeLength="1291.12" waitingTime="410.00" waitingCount="12" stopTime="0.00" timeLoss="467.49" rerouteNo="0" devices="tripinfo_f_0_0.4" vType="type1" speedFactor="0.99" vaporized=""/>
    <tripinfo id="f_0_1.3" depart="41.00" departLane="np16_nt1_0" departPos="28.16" departSpeed="0.00" departDelay="0.09" arrival="633.00" arrivalLane="nt16_np8_0" arrivalPos="75.00" arrivalSpeed="24.16" duration="592.00" routeLength="1319.72" waitingTime="392.00" waitingCount="19" stopTime="0.00" timeLoss="516.36" rerouteNo="0" devices="tripinfo_f_0_1.3" vType="type1" speedFactor="1.22" vaporized=""/>
    <tripinfo id="f_0_1.4" depart="55.00" departLane="np16_nt1_0" departPos="35.62" departSpeed="0.00" departDelay="0.46" arrival="635.00" arrivalLane="nt16_np8_0" arrivalPos="75.00" arrivalSpeed="17.00" duration="580.00" routeLength="1312.26" waitingTime="359.00" waitingCount="19" stopTime="0.00" timeLoss="481.90" rerouteNo="0" devices="tripinfo_f_0_1.4" vType="type1" speedFactor="0.93" vaporized=""/>
    <tripinfo id="f_0_0.5" depart="69.00" departLane="np13_nt13_0" departPos="2.26" departSpeed="0.00" departDelay="0.82" arrival="637.00" arrivalLane="nt4_np5_0" arrivalPos="75.00" arrivalSpeed="18.29" duration="568.00" routeLength="1345.63" waitingTime="414.00" waitingCount="12" stopTime="0.00" timeLoss="477.41" rerouteNo="0" devices="tripinfo_f_0_0.5" vType="type1" speedFactor="1.03" vaporized=""/>
    <tripinfo id="f_0_1.5" depart="69.00" departLane="np16_nt1_0" departPos="0.60" departSpeed="0.00" departDelay="0.82" arrival="643.00" arrivalLane="nt16_np8_0" arrivalPos="75.00" arrivalSpeed="21.76" duration="574.00" routeLength="1347.28" waitingTime="345.00" waitingCount="21" stopTime="0.00" timeLoss="489.62" rerouteNo="0" devices="tripinfo_f_0_1.5" vType="type1" speedFactor="1.10" vaporized=""/>
    <tripinfo id="f_0_1.6" depart="82.00" departLane="np16_nt1_0" departPos="43.42" departSpeed="0.00" departDelay="0.18" arrival="645.00" arrivalLane="nt16_np8_0" arrivalPos="75.00" arrivalSpeed="19.66" duration="563.00" routeLength="1304.46" waitingTime="324.00" waitingCount="19" stopTime="0.00" timeLoss="479.20" rerouteNo="0" devices="tripinfo_f_0_1.6" vType="type1" speedFactor="1.09" vaporized=""/>
    <tripinfo id="f_0_0.6" depart="82.00" departLane="np13_nt13_0" departPos="17.20" departSpeed="0.00" departDelay="0.18" arrival="700.00" arrivalLane="nt4_np5_0" arrivalPos="75.00" arrivalSpeed="14.90" duration="618.00" routeLength="1330.69" waitingTime="434.00" waitingCount="13" stopTime="0.00" timeLoss="503.74" rerouteNo="0" devices="tripinfo_f_0_0.6" vType="type1" speedFactor="0.81" vaporized=""/>
    <tripinfo id="f_0_0.7" depart="96.00" departLane="np13_nt13_0" departPos="23.69" departSpeed="0.00" departDelay="0.55" arrival="703.00" arrivalLane="nt4_np5_0" arrivalPos="75.00" arrivalSpeed="21.56" duration="607.00" routeLength="1324.20" waitingTime="432.00" waitingCount="15" stopTime="0.00" timeLoss="522.28" rerouteNo="0" devices="tripinfo_f_0_0.7" vType="type1" speedFactor="1.08" vaporized=""/>
    <tripinfo id="f_0_0.8" depart="110.00" departLane="np13_nt13_0" departPos="39.00" departSpeed="0.00" departDelay="0.91" arrival="714.00" arrivalLane="nt4_np5_0" arrivalPos="75.00" arrivalSpeed="15.65" duration="604.00" routeLength="1308.89" waitingTime="421.00" waitingCount="14" stopTime="0.00" timeLoss="502.29" rerouteNo="0" devices="tripinfo_f_0_0.8" vType="type1" speedFactor="0.90" vaporized=""/>
    <tripinfo id="f_0_0.9" depart="123.00" departLane="np13_nt13_0" departPos="0.98" departSpeed="0.00" departDelay="0.28" arrival="715.00" arrivalLane="nt4_np5_0" arrivalPos="75.00" arrivalSpeed="21.07" duration="592.00" routeLength="1346.91" waitingTime="401.00" waitingCount="14" stopTime="0.00" timeLoss="505.63" rerouteNo="0" devices="tripinfo_f_0_0.9" vType="type1" speedFactor="1.09" vaporized=""/>
    <tripinfo id="f_0_0.10" depart="137.00" departLane="np13_nt13_0" departPos="33.03" departSpeed="0.00" departDelay="0.64" arrival="717.00" arrivalLane="nt4_np5_0" arrivalPos="75.00" arrivalSpeed="18.56" duration="580.00" routeLength="1314.86" waitingTime="385.00" waitingCount="13" stopTime="0.00" timeLoss="487.40" rerouteNo="0" devices="tripinfo_f_0_0.10" vType="type1" speedFactor="0.99" vaporized=""/>
    <tripinfo id="f_0_2.15" depart="123.00" departLane="np2_nt2_0" departPos="57.58" departSpeed="0.00" departDelay="0.27" arrival="734.00" arrivalLane="nt15_np10_0" arrivalPos="75.00" arrivalSpeed="6.98" duration="611.00" routeLength="893.50" waitingTime="400.00" waitingCount="16" stopTime="0.00" timeLoss="523.57" rerouteNo="0" devices="tripinfo_f_0_2.15" vType="type1" speedFactor="0.85" vaporized=""/>
    <tripinfo id="f_0_2.16" depart="131.00" departLane="np2_nt2_0" departPos="53.19" departSpeed="0.00" departDelay="0.09" arrival="736.00" arrivalLane="nt15_np10_0" arrivalPos="75.00" arrivalSpeed="8.66" duration="605.00" routeLength="897.89" waitingTime="394.00" waitingCount="15" stopTime="0.00" timeLoss="528.95" rerouteNo="0" devices="tripinfo_f_0_2.16" vType="type1" speedFactor="0.99" vaporized=""/>
    <tripinfo id="f_0_1.7" depart="96.00" departLane="np16_nt1_0" departPos="38.17" departSpeed="0.00" departDelay="0.55" arrival="748.00" arrivalLane="nt16_np8_0" arrivalPos="75.00" arrivalSpeed="22.59" duration="652.00" routeLength="1309.71" waitingTime="428.00" waitingCount="16" stopTime="0.00" timeLoss="577.18" rerouteNo="0" devices="tripinfo_f_0_1.7" vType="type1" speedFactor="1.23" vaporized=""/>
    <tripinfo id="f_0_0.11" depart="150.00" departLane="np13_nt13_0" departPos="19.18" departSpeed="0.00" departDelay="0.00" arrival="748.00" arrivalLane="nt4_np5_0" arrivalPos="75.00" arrivalSpeed="18.07" duration="598.00" routeLength="1328.71" waitingTime="398.00" waitingCount="16" stopTime="0.00" timeLoss="505.04" rerouteNo="0" devices="tripinfo_f_0_0.11" vType="type1" speedFactor="0.99" vaporized=""/>
    <tripinfo id="f_0_1.8" depart="110.00" departLane="np16_nt1_0" departPos="12.16" departSpeed="0.00" departDelay="0.91" arrival="749.00" arrivalLane="nt16_np8_0" arrivalPos="75.00" arrivalSpeed="22.56" duration="639.00" routeLength="1335.72" waitingTime="401.00" waitingCount="15" stopTime="0.00" timeLoss="561.58" rerouteNo="0" devices="tripinfo_f_0_1.8" vType="type1" speedFactor="1.20" vaporized=""/>
    <tripinfo id="f_0_0.12" depart="164.00" departLane="np13_nt13_0" departPos="0.64" departSpeed="0.00" departDelay="0.37" arrival="750.00" arrivalLane="nt4_np5_0" arrivalPos="75.00" arrivalSpeed="22.61" duration="586.00" routeLength="1347.25" waitingTime="380.00" waitingCount="17" stopTime="0.00" timeLoss="503.72" rerouteNo="0" devices="tripinfo_f_0_0.12" vType="type1" speedFactor="1.13" vaporized=""/>
    <tripinfo id="f_0_2.17" depart="140.00" departLane="np2_nt2_0" departPos="6.46" departSpeed="0.00" departDelay="0.91" arrival="763.00" arrivalLane="nt15_np10_0" arrivalPos="75.00" arrivalSpeed="9.59" duration="623.00" routeLength="944.62" waitingTime="405.00" waitingCount="17" stopTime="0.00" timeLoss="542.33" rerouteNo="0" devices="tripinfo_f_0_2.17" vType="type1" speedFactor="0.99" vaporized=""/>
    <tripinfo id="f_0_2.18" depart="148.00" departLane="np2_nt2_0" departPos="42.88" departSpeed="0.00" departDelay="0.72" arrival="771.00" arrivalLane="nt15_np10_0" arrivalPos="75.00" arrivalSpeed="10.80" duration="623.00" routeLength="908.20" waitingTime="393.00" waitingCount="17" stopTime="0.00" timeLoss="557.91" rerouteNo="0" devices="tripinfo_f_0_2.18" vType="type1" speedFactor="1.17" vaporized=""/>
    <tripinfo id="f_0_1.9" depart="123.00" departLane="np16_nt1_0" departPos="47.17" departSpeed="0.00" departDelay="0.28" arrival="785.00" arrivalLane="nt16_np8_0" arrivalPos="75.00" arrivalSpeed="22.52" duration="662.00" routeLength="1300.71" waitingTime="400.00" waitingCount="22" stopTime="0.00" timeLoss="585.88" rerouteNo="0" devices="tripinfo_f_0_1.9" vType="type1" speedFactor="1.20" vaporized=""/>
    <tripinfo id="f_0_1.10" depart="137.00" departLane="np16_nt1_0" departPos="34.86" departSpeed="0.00" departDelay="0.64" arrival="793.00" arrivalLane="nt16_np8_0" arrivalPos="75.00" arrivalSpeed="19.96" duration="656.00" routeLength="1313.02" waitingTime="381.00" waitingCount="20" stopTime="0.00" timeLoss="568.24" rerouteNo="0" devices="tripinfo_f_0_1.10" vType="type1" speedFactor="1.04" vaporized=""/>
    <tripinfo id="f_0_3.10" depart="82.00" departLane="np3_nt3_0" departPos="0.97" departSpeed="0.00" departDelay="0.18" arrival="797.00" arrivalLane="nt14_np11_0" arrivalPos="75.00" arrivalSpeed="10.46" duration="715.00" routeLength="950.12" waitingTime="576.00" waitingCount="12" stopTime="0.00" timeLoss="637.72" rerouteNo="0" devices="tripinfo_f_0_3.10" vType="type1" speedFactor="1.03" vaporized=""/>
    <tripinfo id="f_0_3.11" depart="104.00" departLane="np3_nt3_0" departPos="0.00" departSpeed="0.00" departDelay="14.00" arrival="799.00" arrivalLane="nt14_np11_0" arrivalPos="75.00" arrivalSpeed="8.98" duration="695.00" routeLength="951.09" waitingTime="555.00" waitingCount="11" stopTime="0.00" timeLoss="614.95" rerouteNo="0" devices="tripinfo_f_0_3.11" vType="type1" speedFactor="1.00" vaporized=""/>
    <tripinfo id="f_0_0.13" depart="178.00" departLane="np13_nt13_0" departPos="49.98" departSpeed="0.00" departDelay="0.73" arrival="818.00" arrivalLane="nt4_np5_0" arrivalPos="75.00" arrivalSpeed="17.22" duration="640.00" routeLength="1297.91" waitingTime="420.00" waitingCount="16" stopTime="0.00" timeLoss="543.79" rerouteNo="0" devices="tripinfo_f_0_0.13" vType="type1" speedFactor="0.94" vaporized=""/>
    <tripinfo id="f_0_0.14" depart="191.00" departLane="np13_nt13_0" departPos="29.95" departSpeed="0.00" departDelay="0.10" arrival="821.00" arrivalLane="nt4_np5_0" arrivalPos="75.00" arrivalSpeed="14.71" duration="630.00" routeLength="1317.94" waitingTime="395.00" waitingCount="16" stopTime="0.00" timeLoss="518.00" rerouteNo="0" devices="tripinfo_f_0_0.14" vType="type1" speedFactor="0.82" vaporized=""/>
    <tripinfo id="f_0_0.15" depart="205.00" departLane="np13_nt13_0" departPos="15.65" departSpeed="0.00" departDelay="0.46" arrival="823.00" arrivalLane="nt4_np5_0" arrivalPos="75.00" arrivalSpeed="18.87" duration="618.00" routeLength="1332.24" waitingTime="380.00" waitingCount="19" stopTime="0.00" timeLoss="519.40" rerouteNo="0" devices="tripinfo_f_0_0.15" vType="type1" speedFactor="0.94" vaporized=""/>
    <tripinfo id="f_0_2.19" depart="156.00" departLane="np2_nt2_0" departPos="33.90" departSpeed="0.00" departDelay="0.54" arrival="827.00" arrivalLane="nt15_np10_0" arrivalPos="75.00" arrivalSpeed="10.06" duration="671.00" routeLength="917.18" waitingTime="403.00" waitingCount="24" stopTime="0.00" timeLoss="597.61" rerouteNo="0" devices="tripinfo_f_0_2.19" vType="type1" speedFactor="1.06" vaporized=""/>
    <tripinfo id="f_0_0.16" depart="219.00" departLane="np13_nt13_0" departPos="37.88" departSpeed="0.00" departDelay="0.82" arrival="833.00" arrivalLane="nt4_np5_0" arrivalPos="75.00" arrivalSpeed="16.51" duration="614.00" routeLength="1310.01" waitingTime="380.00" waitingCount="18" stopTime="0.00" timeLoss="514.45" rerouteNo="0" devices="tripinfo_f_0_0.16" vType="type1" speedFactor="0.91" vaporized=""/>
    <tripinfo id="f_0_0.17" depart="232.00" departLane="np13_nt13_0" departPos="8.03" departSpeed="0.00" departDelay="0.19" arrival="835.00" arrivalLane="nt4_np5_0" arrivalPos="75.00" arrivalSpeed="17.14" duration="603.00" routeLength="1339.86" waitingTime="369.00" waitingCount="17" stopTime="0.00" timeLoss="507.48" rerouteNo="0" devices="tripinfo_f_0_0.17" vType="type1" speedFactor="0.97" vaporized=""/>
    <tripinfo id="f_0_0.18" depart="246.00" departLane="np13_nt13_0" departPos="57.91" departSpeed="0.00" departDelay="0.55" arrival="844.00" arrivalLane="nt4_np5_0" arrivalPos="75.00" arrivalSpeed="19.32" duration="598.00" routeLength="1289.98" waitingTime="362.00" waitingCount="19" stopTime="0.00" timeLoss="512.17" rerouteNo="0" devices="tripinfo_f_0_0.18" vType="type1" speedFactor="1.05" vaporized=""/>
    <tripinfo id="f_0_0.19" depart="260.00" departLane="np13_nt13_0" departPos="65.65" departSpeed="0.00" departDelay="0.92" arrival="846.00" arrivalLane="nt4_np5_0" arrivalPos="75.00" arrivalSpeed="20.25" duration="586.00" routeLength="1282.24" waitingTime="354.00" waitingCount="17" stopTime="0.00" timeLoss="500.42" rerouteNo="0" devices="tripinfo_f_0_0.19" vType="type1" speedFactor="1.05" vaporized=""/>
    <tripinfo id="f_0_1.11" depart="150.00" departLane="np16_nt1_0" departPos="33.49" departSpeed="0.00" departDelay="0.00" arrival="849.00" arrivalLane="nt16_np8_0" arrivalPos="75.00" arrivalSpeed="13.47" duration="699.00" routeLength="1314.39" waitingTime="403.00" waitingCount="22" stopTime="0.00" timeLoss="582.18" rerouteNo="0" devices="tripinfo_f_0_1.11" vType="type1" speedFactor="0.79" vaporized=""/>
    <tripinfo id="f_0_1.12" depart="164.00" departLane="np16_nt1_0" departPos="45.93" departSpeed="0.00" departDelay="0.37" arrival="850.00" arrivalLane="nt16_np8_0" arrivalPos="75.00" arrivalSpeed="18.51" duration="686.00" routeLength="1301.95" waitingTime="412.00" waitingCount="21" stopTime="0.00" timeLoss="601.99" rerouteNo="0" devices="tripinfo_f_0_1.12" vType="type1" speedFactor="1.08" vaporized=""/>
    <tripinfo id="f_0_3.12" depart="139.00" departLane="np3_nt3_0" departPos="0.55" departSpeed="0.00" departDelay="40.82" arrival="857.00" arrivalLane="nt14_np11_0" arrivalPos="75.00" arrivalSpeed="9.89" duration="718.00" routeLength="950.54" waitingTime="580.00" waitingCount="11" stopTime="0.00" timeLoss="638.88" rerouteNo="0" devices="tripinfo_f_0_3.12" vType="type1" speedFactor="1.00" vaporized=""/>
    <tripinfo id="f_0_3.13" depart="177.00" departLane="np3_nt3_0" departPos="0.00" departSpeed="0.00" departDelay="70.63" arrival="859.00" arrivalLane="nt14_np11_0" arrivalPos="75.00" arrivalSpeed="10.07" duration="682.00" routeLength="951.09" waitingTime="547.00" waitingCount="11" stopTime="0.00" timeLoss="604.65" rerouteNo="0" devices="tripinfo_f_0_3.13" vType="type1" speedFactor="1.03" vaporized=""/>
    <tripinfo id="f_0_2.20" depart="164.00" departLane="np2_nt2_0" departPos="47.79" departSpeed="0.00" departDelay="0.36" arrival="877.00" arrivalLane="nt15_np10_0" arrivalPos="75.00" arrivalSpeed="11.15" duration="713.00" routeLength="903.29" waitingTime="431.00" waitingCount="22" stopTime="0.00" timeLoss="641.44" rerouteNo="0" devices="tripinfo_f_0_2.20" vType="type1" speedFactor="1.06" vaporized=""/>
    <tripinfo id="f_0_2.21" depart="172.00" departLane="np2_nt2_0" departPos="13.75" departSpeed="0.00" departDelay="0.18" arrival="879.00" arrivalLane="nt15_np10_0" arrivalPos="75.00" arrivalSpeed="10.08" duration="707.00" routeLength="937.33" waitingTime="414.00" waitingCount="20" stopTime="0.00" timeLoss="632.60" rerouteNo="0" devices="tripinfo_f_0_2.21" vType="type1" speedFactor="1.06" vaporized=""/>
    <tripinfo id="f_0_0.20" depart="273.00" departLane="np13_nt13_0" departPos="12.78" departSpeed="0.00" departDelay="0.28" arrival="883.00" arrivalLane="nt4_np5_0" arrivalPos="75.00" arrivalSpeed="22.36" duration="610.00" routeLength="1335.11" waitingTime="355.00" waitingCount="24" stopTime="0.00" timeLoss="530.19" rerouteNo="0" devices="tripinfo_f_0_0.20" vType="type1" speedFactor="1.16" vaporized=""/>
    <tripinfo id="f_0_3.14" depart="181.00" departLane="np3_nt3_0" departPos="0.00" departSpeed="0.00" departDelay="66.45" arrival="886.00" arrivalLane="nt14_np11_0" arrivalPos="75.00" arrivalSpeed="11.15" duration="705.00" routeLength="951.09" waitingTime="556.00" waitingCount="14" stopTime="0.00" timeLoss="629.90" rerouteNo="0" devices="tripinfo_f_0_3.14" vType="type1" speedFactor="1.06" vaporized=""/>