<?xml version="1.0" encoding="UTF-8"?>

<!-- generated on 2023-08-30 19:20:03 by Eclipse SUMO libsumo Version 1.18.0
<configuration xmlns:xsi="http://www.w3.org/2001/XMLSchema-instance" xsi:noNamespaceSchemaLocation="http://sumo.dlr.de/xsd/libsumoConfiguration.xsd">

    <input>
        <net-file value="/home/stefan/RESCO/./environments/arterial4x4/arterial4x4.net.xml"/>
        <route-files value="/home/stefan/RESCO/./environments/arterial4x4/arterial4x4_74.rou.xml"/>
    </input>

    <output>
        <tripinfo-output value="/home/stefan/results/RAINBOW-tr0-arterial4x4-0-drq_norm-wait_norm/tripinfo_74.xml"/>
        <tripinfo-output.write-unfinished value="true"/>
    </output>

    <processing>
        <time-to-teleport value="-1"/>
    </processing>

    <report>
        <no-warnings value="True"/>
        <no-step-log value="True"/>
    </report>

    <random_number>
        <random value="true"/>
    </random_number>

</configuration>
-->

<tripinfos xmlns:xsi="http://www.w3.org/2001/XMLSchema-instance" xsi:noNamespaceSchemaLocation="http://sumo.dlr.de/xsd/tripinfo_file.xsd">
    <tripinfo id="f_0_3.0" depart="0.00" departLane="np3_nt3_0" departPos="45.21" departSpeed="0.00" departDelay="0.00" arrival="820.00" arrivalLane="nt14_np11_0" arrivalPos="75.00" arrivalSpeed="6.74" duration="820.00" routeLength="905.88" waitingTime="694.00" waitingCount="4" stopTime="0.00" timeLoss="728.75" rerouteNo="0" devices="tripinfo_f_0_3.0" vType="type1" speedFactor="0.83" vaporized=""/>
    <tripinfo id="f_0_3.1" depart="9.00" departLane="np3_nt3_0" departPos="15.57" departSpeed="0.00" departDelay="0.82" arrival="822.00" arrivalLane="nt14_np11_0" arrivalPos="75.00" arrivalSpeed="9.60" duration="813.00" routeLength="935.52" waitingTime="687.00" waitingCount="6" stopTime="0.00" timeLoss="729.00" rerouteNo="0" devices="tripinfo_f_0_3.1" vType="type1" speedFactor="0.94" vaporized=""/>
    <tripinfo id="f_0_2.0" depart="0.00" departLane="np2_nt2_0" departPos="50.09" departSpeed="0.00" departDelay="0.00" arrival="1083.00" arrivalLane="nt15_np10_0" arrivalPos="75.00" arrivalSpeed="9.16" duration="1083.00" routeLength="900.99" waitingTime="974.00" waitingCount="5" stopTime="0.00" timeLoss="1001.73" rerouteNo="0" devices="tripinfo_f_0_2.0" vType="type1" speedFactor="0.93" vaporized=""/>
    <tripinfo id="f_0_2.1" depart="9.00" departLane="np2_nt2_0" departPos="22.96" departSpeed="0.00" departDelay="0.82" arrival="1086.00" arrivalLane="nt15_np10_0" arrivalPos="75.00" arrivalSpeed="9.39" duration="1077.00" routeLength="928.12" waitingTime="964.00" waitingCount="5" stopTime="0.00" timeLoss="990.49" rerouteNo="0" devices="tripinfo_f_0_2.1" vType="type1" speedFactor="0.91" vaporized=""/>
    <tripinfo id="f_3_6.0" depart="900.00" departLane="np10_nt15_0" departPos="39.70" departSpeed="0.00" departDelay="0.00" arrival="1254.00" arrivalLane="nt2_np2_0" arrivalPos="64.60" arrivalSpeed="9.59" duration="354.00" routeLength="911.38" waitingTime="253.00" waitingCount="3" stopTime="0.00" timeLoss="274.13" rerouteNo="0" devices="tripinfo_f_3_6.0" vType="type1" speedFactor="0.96" vaporized=""/>
    <tripinfo id="f_3_5.0" depart="900.00" departLane="np8_nt16_0" departPos="11.24" departSpeed="0.00" departDelay="0.00" arrival="1360.00" arrivalLane="nt1_np16_0" arrivalPos="67.80" arrivalSpeed="18.76" duration="460.00" routeLength="1336.64" waitingTime="346.00" waitingCount="4" stopTime="0.00" timeLoss="372.29" rerouteNo="0" devices="tripinfo_f_3_5.0" vType="type1" speedFactor="1.06" vaporized=""/>
    <tripinfo id="f_3_5.1" depart="922.00" departLane="np8_nt16_0" departPos="56.04" departSpeed="0.00" departDelay="0.31" arrival="1437.00" arrivalLane="nt1_np16_0" arrivalPos="67.80" arrivalSpeed="17.03" duration="515.00" routeLength="1291.84" waitingTime="377.00" waitingCount="6" stopTime="0.00" timeLoss="413.93" rerouteNo="0" devices="tripinfo_f_3_5.1" vType="type1" speedFactor="0.90" vaporized=""/>
    <tripinfo id="f_3_6.1" depart="913.00" departLane="np10_nt15_0" departPos="68.35" departSpeed="0.00" departDelay="0.00" arrival="1457.00" arrivalLane="nt2_np2_0" arrivalPos="64.60" arrivalSpeed="8.67" duration="544.00" routeLength="882.73" waitingTime="432.00" waitingCount="4" stopTime="0.00" timeLoss="459.19" rerouteNo="0" devices="tripinfo_f_3_6.1" vType="type1" speedFactor="0.87" vaporized=""/>
    <tripinfo id="f_3_6.2" depart="926.00" departLane="np10_nt15_0" departPos="33.61" departSpeed="0.00" departDelay="0.01" arrival="1459.00" arrivalLane="nt2_np2_0" arrivalPos="64.60" arrivalSpeed="11.23" duration="533.00" routeLength="917.47" waitingTime="426.00" waitingCount="5" stopTime="0.00" timeLoss="464.80" rerouteNo="0" devices="tripinfo_f_3_6.2" vType="type1" speedFactor="1.13" vaporized=""/>
    <tripinfo id="f_0_0.0" depart="0.00" departLane="np13_nt13_0" departPos="58.25" departSpeed="0.00" departDelay="0.00" arrival="1469.00" arrivalLane="nt4_np5_0" arrivalPos="75.00" arrivalSpeed="19.85" duration="1469.00" routeLength="1289.64" waitingTime="1356.00" waitingCount="4" stopTime="0.00" timeLoss="1385.65" rerouteNo="0" devices="tripinfo_f_0_0.0" vType="type1" speedFactor="1.08" vaporized=""/>
    <tripinfo id="f_0_2.2" depart="17.00" departLane="np2_nt2_0" departPos="11.99" departSpeed="0.00" departDelay="0.64" arrival="1577.00" arrivalLane="nt15_np10_0" arrivalPos="75.00" arrivalSpeed="10.99" duration="1560.00" routeLength="939.09" waitingTime="1452.00" waitingCount="7" stopTime="0.00" timeLoss="1483.42" rerouteNo="0" devices="tripinfo_f_0_2.2" vType="type1" speedFactor="1.04" vaporized=""/>
    <tripinfo id="f_0_2.3" depart="25.00" departLane="np2_nt2_0" departPos="22.94" departSpeed="0.00" departDelay="0.45" arrival="1580.00" arrivalLane="nt15_np10_0" arrivalPos="75.00" arrivalSpeed="9.39" duration="1555.00" routeLength="928.14" waitingTime="1433.00" waitingCount="7" stopTime="0.00" timeLoss="1472.50" rerouteNo="0" devices="tripinfo_f_0_2.3" vType="type1" speedFactor="0.95" vaporized=""/>
    <tripinfo id="f_3_5.2" depart="944.00" departLane="np8_nt16_0" departPos="58.42" departSpeed="0.00" departDelay="0.63" arrival="1650.00" arrivalLane="nt1_np16_0" arrivalPos="67.80" arrivalSpeed="21.92" duration="706.00" routeLength="1289.46" waitingTime="578.00" waitingCount="9" stopTime="0.00" timeLoss="627.26" rerouteNo="0" devices="tripinfo_f_3_5.2" vType="type1" speedFactor="1.15" vaporized=""/>
    <tripinfo id="f_0_3.2" depart="17.00" departLane="np3_nt3_0" departPos="45.30" departSpeed="0.00" departDelay="0.64" arrival="1657.00" arrivalLane="nt14_np11_0" arrivalPos="75.00" arrivalSpeed="10.33" duration="1640.00" routeLength="905.79" waitingTime="1529.00" waitingCount="7" stopTime="0.00" timeLoss="1563.85" rerouteNo="0" devices="tripinfo_f_0_3.2" vType="type1" speedFactor="0.99" vaporized=""/>
    <tripinfo id="f_0_3.3" depart="25.00" departLane="np3_nt3_0" departPos="22.35" departSpeed="0.00" departDelay="0.45" arrival="1661.00" arrivalLane="nt14_np11_0" arrivalPos="75.00" arrivalSpeed="8.98" duration="1636.00" routeLength="928.74" waitingTime="1504.00" waitingCount="9" stopTime="0.00" timeLoss="1542.83" rerouteNo="0" devices="tripinfo_f_0_3.3" vType="type1" speedFactor="0.84" vaporized=""/>
    <tripinfo id="f_0_0.1" depart="14.00" departLane="np13_nt13_0" departPos="25.69" departSpeed="0.00" departDelay="0.36" arrival="1684.00" arrivalLane="nt4_np5_0" arrivalPos="75.00" arrivalSpeed="19.16" duration="1670.00" routeLength="1322.20" waitingTime="1550.00" waitingCount="6" stopTime="0.00" timeLoss="1581.25" rerouteNo="0" devices="tripinfo_f_0_0.1" vType="type1" speedFactor="1.04" vaporized=""/>
    <tripinfo id="f_0_3.4" depart="33.00" departLane="np3_nt3_0" departPos="1.37" departSpeed="0.00" departDelay="0.27" arrival="1703.00" arrivalLane="nt14_np11_0" arrivalPos="75.00" arrivalSpeed="9.33" duration="1670.00" routeLength="949.72" waitingTime="1533.00" waitingCount="11" stopTime="0.00" timeLoss="1583.94" rerouteNo="0" devices="tripinfo_f_0_3.4" vType="type1" speedFactor="0.92" vaporized=""/>
    <tripinfo id="f_0_3.5" depart="41.00" departLane="np3_nt3_0" departPos="8.41" departSpeed="0.00" departDelay="0.09" arrival="1705.00" arrivalLane="nt14_np11_0" arrivalPos="75.00" arrivalSpeed="9.69" duration="1664.00" routeLength="942.68" waitingTime="1518.00" waitingCount="13" stopTime="0.00" timeLoss="1578.46" rerouteNo="0" devices="tripinfo_f_0_3.5" vType="type1" speedFactor="0.92" vaporized=""/>
    <tripinfo id="f_0_3.6" depart="50.00" departLane="np3_nt3_0" departPos="15.74" departSpeed="0.00" departDelay="0.91" arrival="1719.00" arrivalLane="nt14_np11_0" arrivalPos="75.00" arrivalSpeed="8.03" duration="1669.00" routeLength="935.35" waitingTime="1509.00" waitingCount="14" stopTime="0.00" timeLoss="1578.15" rerouteNo="0" devices="tripinfo_f_0_3.6" vType="type1" speedFactor="0.86" vaporized=""/>
    <tripinfo id="f_0_3.7" depart="58.00" departLane="np3_nt3_0" departPos="6.04" departSpeed="0.00" departDelay="0.73" arrival="1721.00" arrivalLane="nt14_np11_0" arrivalPos="75.00" arrivalSpeed="8.48" duration="1663.00" routeLength="945.05" waitingTime="1485.00" waitingCount="14" stopTime="0.00" timeLoss="1573.23" rerouteNo="0" devices="tripinfo_f_0_3.7" vType="type1" speedFactor="0.89" vaporized=""/>
    <tripinfo id="f_0_3.8" depart="66.00" departLane="np3_nt3_0" departPos="0.00" departSpeed="0.00" departDelay="0.54" arrival="1777.00" arrivalLane="nt14_np11_0" arrivalPos="75.00" arrivalSpeed="9.20" duration="1711.00" routeLength="951.09" waitingTime="1542.00" waitingCount="16" stopTime="0.00" timeLoss="1634.16" rerouteNo="0" devices="tripinfo_f_0_3.8" vType="type1" speedFactor="1.04" vaporized=""/>
    <tripinfo id="f_0_3.9" depart="123.00" departLane="np3_nt3_0" departPos="0.00" departSpeed="0.00" departDelay="49.36" arrival="1780.00" arrivalLane="nt14_np11_0" arrivalPos="75.00" arrivalSpeed="9.28" duration="1657.00" routeLength="951.09" waitingTime="1480.00" waitingCount="17" stopTime="0.00" timeLoss="1576.55" rerouteNo="0" devices="tripinfo_f_0_3.9" vType="type1" speedFactor="1.00" vaporized=""/>
    <tripinfo id="f_0_3.10" depart="208.00" departLane="np3_nt3_0" departPos="0.00" departSpeed="0.00" departDelay="126.18" arrival="1782.00" arrivalLane="nt14_np11_0" arrivalPos="75.00" arrivalSpeed="10.05" duration="1574.00" routeLength="951.09" waitingTime="1401.00" waitingCount="15" stopTime="0.00" timeLoss="1497.28" rerouteNo="0" devices="tripinfo_f_0_3.10" vType="type1" speedFactor="1.05" vaporized=""/>
    <tripinfo id="f_0_2.26" depart="213.00" departLane="np2_nt2_0" departPos="18.04" departSpeed="0.00" departDelay="0.27" arrival="1989.00" arrivalLane="nt15_np10_0" arrivalPos="75.00" arrivalSpeed="8.01" duration="1776.00" routeLength="933.04" waitingTime="1651.00" waitingCount="7" stopTime="0.00" timeLoss="1688.87" rerouteNo="0" devices="tripinfo_f_0_2.26" vType="type1" speedFactor="0.91" vaporized=""/>
    <tripinfo id="f_3_5.3" depart="966.00" departLane="np8_nt16_0" departPos="33.92" departSpeed="0.00" departDelay="0.94" arrival="2116.00" arrivalLane="nt1_np16_0" arrivalPos="67.80" arrivalSpeed="20.63" duration="1150.00" routeLength="1313.96" waitingTime="1023.00" waitingCount="7" stopTime="0.00" timeLoss="1064.36" rerouteNo="0" devices="tripinfo_f_3_5.3" vType="type1" speedFactor="1.07" vaporized=""/>
    <tripinfo id="f_3_5.4" depart="987.00" departLane="np8_nt16_0" departPos="51.88" departSpeed="0.00" departDelay="0.25" arrival="2120.00" arrivalLane="nt1_np16_0" arrivalPos="67.80" arrivalSpeed="17.53" duration="1133.00" routeLength="1296.00" waitingTime="988.00" waitingCount="9" stopTime="0.00" timeLoss="1033.85" rerouteNo="0" devices="tripinfo_f_3_5.4" vType="type1" speedFactor="0.91" vaporized=""/>
    <tripinfo id="f_0_2.4" depart="33.00" departLane="np2_nt2_0" departPos="31.54" departSpeed="0.00" departDelay="0.27" arrival="2143.00" arrivalLane="nt15_np10_0" arrivalPos="75.00" arrivalSpeed="8.04" duration="2110.00" routeLength="919.54" waitingTime="1975.00" waitingCount="10" stopTime="0.00" timeLoss="2027.71" rerouteNo="0" devices="tripinfo_f_0_2.4" vType="type1" speedFactor="0.95" vaporized=""/>
    <tripinfo id="f_0_2.5" depart="41.00" departLane="np2_nt2_0" departPos="17.47" departSpeed="0.00" departDelay="0.09" arrival="2145.00" arrivalLane="nt15_np10_0" arrivalPos="75.00" arrivalSpeed="10.10" duration="2104.00" routeLength="933.61" waitingTime="1963.00" waitingCount="9" stopTime="0.00" timeLoss="2021.67" rerouteNo="0" devices="tripinfo_f_0_2.5" vType="type1" speedFactor="0.96" vaporized=""/>
    <tripinfo id="f_0_2.27" depart="221.00" departLane="np2_nt2_0" departPos="44.89" departSpeed="0.00" departDelay="0.09" arrival="2248.00" arrivalLane="nt15_np10_0" arrivalPos="75.00" arrivalSpeed="10.85" duration="2027.00" routeLength="906.19" waitingTime="1894.00" waitingCount="10" stopTime="0.00" timeLoss="1951.38" rerouteNo="0" devices="tripinfo_f_0_2.27" vType="type1" speedFactor="1.02" vaporized=""/>
    <tripinfo id="f_0_2.6" depart="50.00" departLane="np2_nt2_0" departPos="44.30" departSpeed="0.00" departDelay="0.91" arrival="2438.00" arrivalLane="nt15_np10_0" arrivalPos="75.00" arrivalSpeed="7.99" duration="2388.00" routeLength="906.78" waitingTime="2237.00" waitingCount="13" stopTime="0.00" timeLoss="2306.48" rerouteNo="0" devices="tripinfo_f_0_2.6" vType="type1" speedFactor="0.94" vaporized=""/>
    <tripinfo id="f_0_2.7" depart="58.00" departLane="np2_nt2_0" departPos="21.38" departSpeed="0.00" departDelay="0.73" arrival="2571.00" arrivalLane="nt15_np10_0" arrivalPos="75.00" arrivalSpeed="11.77" duration="2513.00" routeLength="929.70" waitingTime="2353.00" waitingCount="13" stopTime="0.00" timeLoss="2441.56" rerouteNo="0" devices="tripinfo_f_0_2.7" vType="type1" speedFactor="1.10" vaporized=""/>
    <tripinfo id="f_0_2.28" depart="230.00" departLane="np2_nt2_0" departPos="60.21" departSpeed="0.00" departDelay="0.90" arrival="2576.00" arrivalLane="nt15_np10_0" arrivalPos="75.00" arrivalSpeed="8.50" duration="2346.00" routeLength="890.87" waitingTime="2179.00" waitingCount="13" stopTime="0.00" timeLoss="2257.23" rerouteNo="0" devices="tripinfo_f_0_2.28" vType="type1" speedFactor="0.84" vaporized=""/>
    <tripinfo id="f_0_3.11" depart="427.00" departLane="np3_nt3_0" departPos="0.00" departSpeed="0.00" departDelay="337.00" arrival="2901.00" arrivalLane="nt14_np11_0" arrivalPos="75.00" arrivalSpeed="11.31" duration="2474.00" routeLength="951.09" waitingTime="2315.00" waitingCount="13" stopTime="0.00" timeLoss="2403.08" rerouteNo="0" devices="tripinfo_f_0_3.11" vType="type1" speedFactor="1.13" vaporized=""/>
    <tripinfo id="f_0_3.12" depart="442.00" departLane="np3_nt3_0" departPos="0.00" departSpeed="0.00" departDelay="343.82" arrival="2904.00" arrivalLane="nt14_np11_0" arrivalPos="75.00" arrivalSpeed="9.13" duration="2462.00" routeLength="951.09" waitingTime="2293.00" waitingCount="13" stopTime="0.00" timeLoss="2381.01" rerouteNo="0" devices="tripinfo_f_0_3.12" vType="type1" speedFactor="0.99" vaporized=""/>
    <tripinfo id="f_3_5.5" depart="1009.00" departLane="np8_nt16_0" departPos="22.89" departSpeed="0.00" departDelay="0.56" arrival="2918.00" arrivalLane="nt1_np16_0" arrivalPos="67.80" arrivalSpeed="21.51" duration="1909.00" routeLength="1324.99" waitingTime="1765.00" waitingCount="8" stopTime="0.00" timeLoss="1824.58" rerouteNo="0" devices="tripinfo_f_3_5.5" vType="type1" speedFactor="1.09" vaporized=""/>
    <tripinfo id="f_0_2.29" depart="238.00" departLane="np2_nt2_0" departPos="12.94" departSpeed="0.00" departDelay="0.72" arrival="3093.00" arrivalLane="nt15_np10_0" arrivalPos="75.00" arrivalSpeed="10.02" duration="2855.00" routeLength="938.14" waitingTime="2673.00" waitingCount="15" stopTime="0.00" timeLoss="2770.51" rerouteNo="0" devices="tripinfo_f_0_2.29" vType="type1" speedFactor="0.94" vaporized=""/>
    <tripinfo id="f_0_0.2" depart="28.00" departLane="np13_nt13_0" departPos="66.68" departSpeed="0.00" departDelay="0.73" arrival="3118.00" arrivalLane="nt4_np5_0" arrivalPos="75.00" arrivalSpeed="20.11" duration="3090.00" routeLength="1281.21" waitingTime="2957.00" waitingCount="9" stopTime="0.00" timeLoss="3007.11" rerouteNo="0" devices="tripinfo_f_0_0.2" vType="type1" speedFactor="1.08" vaporized=""/>
    <tripinfo id="f_0_3.13" depart="453.00" departLane="np3_nt3_0" departPos="0.00" departSpeed="0.00" departDelay="346.63" arrival="3306.00" arrivalLane="nt14_np11_0" arrivalPos="75.00" arrivalSpeed="11.66" duration="2853.00" routeLength="951.09" waitingTime="2682.00" waitingCount="13" stopTime="0.00" timeLoss="2777.68" rerouteNo="0" devices="tripinfo_f_0_3.13" vType="type1" speedFactor="1.07" vaporized=""/>
    <tripinfo id="f_0_3.14" depart="462.00" departLane="np3_nt3_0" departPos="0.00" departSpeed="0.00" departDelay="347.45" arrival="3310.00" arrivalLane="nt14_np11_0" arrivalPos="75.00" arrivalSpeed="9.97" duration="2848.00" routeLength="951.09" waitingTime="2668.00" waitingCount="13" stopTime="0.00" timeLoss="2765.76" rerouteNo="0" devices="tripinfo_f_0_3.14" vType="type1" speedFactor="0.98" vaporized=""/>
    <tripinfo id="f_0_0.3" depart="41.00" departLane="np13_nt13_0" departPos="14.55" departSpeed="0.00" departDelay="0.09" arrival="3389.00" arrivalLane="nt4_np5_0" arrivalPos="75.00" arrivalSpeed="20.60" duration="3348.00" routeLength="1333.34" waitingTime="3208.00" waitingCount="9" stopTime="0.00" timeLoss="3260.99" rerouteNo="0" devices="tripinfo_f_0_0.3" vType="type1" speedFactor="1.06" vaporized=""/>
    <tripinfo id="f_3_5.6" depart="1031.00" departLane="np8_nt16_0" departPos="20.45" departSpeed="0.00" departDelay="0.88" arrival="3422.00" arrivalLane="nt1_np16_0" arrivalPos="67.80" arrivalSpeed="21.46" duration="2391.00" routeLength="1327.43" waitingTime="2256.00" waitingCount="9" stopTime="0.00" timeLoss="2306.40" rerouteNo="0" devices="tripinfo_f_3_5.6" vType="type1" speedFactor="1.10" vaporized=""/>
    <tripinfo id="f_3_5.7" depart="1052.00" departLane="np8_nt16_0" departPos="43.12" departSpeed="0.00" departDelay="0.19" arrival="3428.00" arrivalLane="nt1_np16_0" arrivalPos="67.80" arrivalSpeed="19.55" duration="2376.00" routeLength="1304.76" waitingTime="2229.00" waitingCount="10" stopTime="0.00" timeLoss="2288.22" rerouteNo="0" devices="tripinfo_f_3_5.7" vType="type1" speedFactor="1.04" vaporized=""/>
    <tripinfo id="f_0_0.4" depart="55.00" departLane="np13_nt13_0" departPos="49.96" departSpeed="0.00" departDelay="0.46" arrival="3477.00" arrivalLane="nt4_np5_0" arrivalPos="75.00" arrivalSpeed="16.75" duration="3422.00" routeLength="1297.93" waitingTime="3268.00" waitingCount="10" stopTime="0.00" timeLoss="3320.87" rerouteNo="0" devices="tripinfo_f_0_0.4" vType="type1" speedFactor="0.89" vaporized=""/>
    <tripinfo id="f_0_2.30" depart="246.00" departLane="np2_nt2_0" departPos="45.95" departSpeed="0.00" departDelay="0.54" arrival="3567.00" arrivalLane="nt15_np10_0" arrivalPos="75.00" arrivalSpeed="10.64" duration="3321.00" routeLength="905.13" waitingTime="3134.00" waitingCount="16" stopTime="0.00" timeLoss="3248.13" rerouteNo="0" devices="tripinfo_f_0_2.30" vType="type1" speedFactor="1.04" vaporized=""/>
    <tripinfo id="f_0_2.8" depart="66.00" departLane="np2_nt2_0" departPos="40.76" departSpeed="0.00" departDelay="0.54" arrival="3570.00" arrivalLane="nt15_np10_0" arrivalPos="75.00" arrivalSpeed="10.41" duration="3504.00" routeLength="910.32" waitingTime="3301.00" waitingCount="20" stopTime="0.00" timeLoss="3424.02" rerouteNo="0" devices="tripinfo_f_0_2.8" vType="type1" speedFactor="0.96" vaporized=""/>
    <tripinfo id="f_0_0.5" depart="69.00" departLane="np13_nt13_0" departPos="5.27" departSpeed="0.00" departDelay="0.82" arrival="3594.00" arrivalLane="nt4_np5_0" arrivalPos="75.00" arrivalSpeed="16.17" duration="3525.00" routeLength="1342.62" waitingTime="3344.00" waitingCount="13" stopTime="0.00" timeLoss="3414.55" rerouteNo="0" devices="tripinfo_f_0_0.5" vType="type1" speedFactor="0.84" vaporized=""/>
    <tripinfo id="f_0_0.6" depart="82.00" departLane="np13_nt13_0" departPos="47.28" departSpeed="0.00" departDelay="0.18" arrival="3595.00" arrivalLane="nt4_np5_0" arrivalPos="75.00" arrivalSpeed="16.48" duration="3513.00" routeLength="1300.61" waitingTime="3329.00" waitingCount="15" stopTime="0.00" timeLoss="3412.04" rerouteNo="0" devices="tripinfo_f_0_0.6" vType="type1" speedFactor="0.90" vaporized=""/>
    <tripinfo id="f_0_1.0" depart="0.00" departLane="np16_nt1_0" departPos="21.83" departSpeed="0.00" departDelay="0.00" arrival="-1.00" arrivalLane="" arrivalPos="-1.00" arrivalSpeed="-1.00" duration="3600.00" routeLength="781.01" waitingTime="3430.00" waitingCount="15" stopTime="0.00" timeLoss="3550.69" rerouteNo="0" devices="tripinfo_f_0_1.0" vType="type1" speedFactor="1.10" vaporized="end"/>
    <tripinfo id="f_0_1.1" depart="14.00" departLane="np16_nt1_0" departPos="27.36" departSpeed="0.00" departDelay="0.36" arrival="-1.00" arrivalLane="" arrivalPos="-1.00" arrivalSpeed="-1.00" duration="3586.00" routeLength="670.47" waitingTime="3457.00" waitingCount="12" stopTime="0.00" timeLoss="3543.84" rerouteNo="0" devices="tripinfo_f_0_1.1" vType="type1" speedFactor="1.05" vaporized="end"/>
    <tripinfo id="f_0_1.2" depart="28.00" departLane="np16_nt1_0" departPos="19.34" departSpeed="0.00" departDelay="0.73" arrival="-1.00" arrivalLane="" arrivalPos="-1.00" arrivalSpeed="-1.00" duration="3572.00" routeLength="643.50" waitingTime="3445.00" waitingCount="11" stopTime="0.00" timeLoss="3534.97" rerouteNo="0" devices="tripinfo_f_0_1.2" vType="type1" speedFactor="1.13" vaporized="end"/>
    <tripinfo id="f_0_1.3" depart="41.00" departLane="np16_nt1_0" departPos="55.92" departSpeed="0.00" departDelay="0.09" arrival="-1.00" arrivalLane="" arrivalPos="-1.00" arrivalSpeed="-1.00" duration="3559.00" routeLength="306.69" waitingTime="3521.00" waitingCount="4" stopTime="0.00" timeLoss="3540.79" rerouteNo="0" devices="tripinfo_f_0_1.3" vType="type1" speedFactor="0.89" vaporized="end"/>
    <tripinfo id="f_0_1.4" depart="55.00" departLane="np16_nt1_0" departPos="23.65" departSpeed="0.00" departDelay="0.46" arrival="-1.00" arrivalLane="" arrivalPos="-1.00" arrivalSpeed="-1.00" duration="3545.00" routeLength="331.43" waitingTime="3507.00" waitingCount="4" stopTime="0.00" timeLoss="3527.96" rerouteNo="0" devices="tripinfo_f_0_1.4" vType="type1" speedFactor="1.03" vaporized="end"/>
    <tripinfo id="f_0_1.5" depart="69.00" departLane="np16_nt1_0" departPos="22.62" departSpeed="0.00" departDelay="0.82" arrival="-1.00" arrivalLane="" arrivalPos="-1.00" arrivalSpeed="-1.00" duration="3531.00" routeLength="324.92" waitingTime="3494.00" waitingCount="4" stopTime="0.00" timeLoss="3514.29" rerouteNo="0" devices="tripinfo_f_0_1.5" vType="type1" speedFactor="1.03" vaporized="end"/>
    <tripinfo id="f_0_2.9" depart="74.00" departLane="np2_nt2_0" departPos="16.42" departSpeed="0.00" departDelay="0.36" arrival="-1.00" arrivalLane="" arrivalPos="-1.00" arrivalSpeed="-1.00" duration="3526.00" routeLength="830.36" waitingTime="3350.00" waitingCount="17" stopTime="0.00" timeLoss="3456.43" rerouteNo="0" devices="tripinfo_f_0_2.9" vType="type1" speedFactor="1.01" vaporized="end"/>
    <tripinfo id="f_0_1.6" depart="82.00" departLane="np16_nt1_0" departPos="65.82" departSpeed="0.00" departDelay="0.18" arrival="-1.00" arrivalLane="" arrivalPos="-1.00" arrivalSpeed="-1.00" duration="3518.00" routeLength="274.10" waitingTime="3482.00" waitingCount="4" stopTime="0.00" timeLoss="3504.52" rerouteNo="0" devices="tripinfo_f_0_1.6" vType="type1" speedFactor="1.10" vaporized="end"/>
    <tripinfo id="f_0_2.10" depart="82.00" departLane="np2_nt2_0" departPos="2.23" departSpeed="0.00" departDelay="0.18" arrival="-1.00" arrivalLane="" arrivalPos="-1.00" arrivalSpeed="-1.00" duration="3518.00" routeLength="829.55" waitingTime="3322.00" waitingCount="17" stopTime="0.00" timeLoss="3452.33" rerouteNo="0" devices="tripinfo_f_0_2.10" vType="type1" speedFactor="1.06" vaporized="end"/>
    <tripinfo id="f_0_2.11" depart="90.00" departLane="np2_nt2_0" departPos="45.15" departSpeed="0.00" departDelay="0.00" arrival="-1.00" arrivalLane="" arrivalPos="-1.00" arrivalSpeed="-1.00" duration="3510.00" routeLength="601.63" waitingTime="3337.00" waitingCount="15" stopTime="0.00" timeLoss="3463.93" rerouteNo="0" devices="tripinfo_f_0_2.11" vType="type1" speedFactor="1.06" vaporized="end"/>
    <tripinfo id="f_0_0.7" depart="96.00" departLane="np13_nt13_0" departPos="53.94" departSpeed="0.00" departDelay="0.55" arrival="-1.00" arrivalLane="" arrivalPos="-1.00" arrivalSpeed="-1.00" duration="3504.00" routeLength="1001.09" waitingTime="3343.00" waitingCount="15" stopTime="0.00" timeLoss="3426.56" rerouteNo="0" devices="tripinfo_f_0_0.7" vType="type1" speedFactor="0.97" vaporized="end"/>
    <tripinfo id="f_0_1.7" depart="96.00" departLane="np16_nt1_0" departPos="32.90" departSpeed="0.00" departDelay="0.55" arrival="-1.00" arrivalLane="" arrivalPos="-1.00" arrivalSpeed="-1.00" duration="3504.00" routeLength="239.27" waitingTime="3464.00" waitingCount="5" stopTime="0.00" timeLoss="3491.72" rerouteNo="0" devices="tripinfo_f_0_1.7" vType="type1" speedFactor="1.06" vaporized="end"/>
    <tripinfo id="f_0_2.12" depart="99.00" departLane="np2_nt2_0" departPos="1.66" departSpeed="0.00" departDelay="0.82" arrival="-1.00" arrivalLane="" arrivalPos="-1.00" arrivalSpeed="-1.00" duration="3501.00" routeLength="630.11" waitingTime="3315.00" waitingCount="15" stopTime="0.00" timeLoss="3448.32" rerouteNo="0" devices="tripinfo_f_0_2.12" vType="type1" speedFactor="0.97" vaporized="end"/>
    <tripinfo id="f_0_2.13" depart="107.00" departLane="np2_nt2_0" departPos="41.30" departSpeed="0.00" departDelay="0.63" arrival="-1.00" arrivalLane="" arrivalPos="-1.00" arrivalSpeed="-1.00" duration="3493.00" routeLength="582.97" waitingTime="3302.00" waitingCount="16" stopTime="0.00" timeLoss="3436.27" rerouteNo="0" devices="tripinfo_f_0_2.13" vType="type1" speedFactor="0.83" vaporized="end"/>
    <tripinfo id="f_0_0.8" depart="110.00" departLane="np13_nt13_0" departPos="36.89" departSpeed="0.00" departDelay="0.91" arrival="-1.00" arrivalLane="" arrivalPos="-1.00" arrivalSpeed="-1.00" duration="3490.00" routeLength="1010.64" waitingTime="3318.00" waitingCount="16" stopTime="0.00" timeLoss="3405.93" rerouteNo="0" devices="tripinfo_f_0_0.8" vType="type1" speedFactor="0.90" vaporized="end"/>
    <tripinfo id="f_0_1.8" depart="110.00" departLane="np16_nt1_0" departPos="21.57" departSpeed="0.00" departDelay="0.91" arrival="-1.00" arrivalLane="" arrivalPos="-1.00" arrivalSpeed="-1.00" duration="3490.00" routeLength="243.09" waitingTime="3443.00" waitingCount="5" stopTime="0.00" timeLoss="3475.87" rerouteNo="0" devices="tripinfo_f_0_1.8" vType="type1" speedFactor="0.93" vaporized="end"/>
    <tripinfo id="f_0_2.14" depart="115.00" departLane="np2_nt2_0" departPos="16.08" departSpeed="0.00" departDelay="0.45" arrival="-1.00" arrivalLane="" arrivalPos="-1.00" arrivalSpeed="-1.00" duration="3485.00" routeLength="600.70" waitingTime="3300.00" waitingCount="14" stopTime="0.00" timeLoss="3431.66" rerouteNo="0" devices="tripinfo_f_0_2.14" vType="type1" speedFactor="0.91" vaporized="end"/>
    <tripinfo id="f_0_0.9" depart="123.00" departLane="np13_nt13_0" departPos="1.16" departSpeed="0.00" departDelay="0.28" arrival="-1.00" arrivalLane="" arrivalPos="-1.00" arrivalSpeed="-1.00" duration="3477.00" routeLength="1038.87" waitingTime="3291.00" waitingCount="17" stopTime="0.00" timeLoss="3400.20" rerouteNo="0" devices="tripinfo_f_0_0.9" vType="type1" speedFactor="1.00" vaporized="end"/>
    <tripinfo id="f_0_1.9" depart="123.00" departLane="np16_nt1_0" departPos="19.18" departSpeed="0.00" departDelay="0.28" arrival="-1.00" arrivalLane="" arrivalPos="-1.00" arrivalSpeed="-1.00" duration="3477.00" routeLength="237.98" waitingTime="3429.00" waitingCount="5" stopTime="0.00" timeLoss="3462.61" rerouteNo="0" devices="tripinfo_f_0_1.9" vType="type1" speedFactor="0.89" vaporized="end"/>
    <tripinfo id="f_0_2.15" depart="123.00" departLane="np2_nt2_0" departPos="36.52" departSpeed="0.00" departDelay="0.27" arrival="-1.00" arrivalLane="" arrivalPos="-1.00" arrivalSpeed="-1.00" duration="3477.00" routeLength="565.25" waitingTime="3313.00" waitingCount="15" stopTime="0.00" timeLoss="3431.88" rerouteNo="0" devices="tripinfo_f_0_2.15" vType="type1" speedFactor="1.02" vaporized="end"/>
    <tripinfo id="f_0_3.15" depart="464.00" departLane="np3_nt3_0" departPos="0.00" departSpeed="0.00" departDelay="341.27" arrival="-1.00" arrivalLane="" arrivalPos="-1.00" arrivalSpeed="-1.00" duration="3136.00" routeLength="654.29" waitingTime="2983.00" waitingCount="12" stopTime="0.00" timeLoss="3082.51" rerouteNo="0" devices="tripinfo_f_0_3.15" vType="type1" speedFactor="1.00" vaporized="end"/>
    <tripinfo id="f_0_2.16" depart="131.00" departLane="np2_nt2_0" departPos="19.87" departSpeed="0.00" departDelay="0.09" arrival="-1.00" arrivalLane="" arrivalPos="-1.00" arrivalSpeed="-1.00" duration="3469.00" routeLength="566.90" waitingTime="3274.00" waitingCount="16" stopTime="0.00" timeLoss="3418.28" rerouteNo="0" devices="tripinfo_f_0_2.16" vType="type1" speedFactor="0.90" vaporized="end"/>
    <tripinfo id="f_0_3.16" depart="468.00" departLane="np3_nt3_0" departPos="0.00" departSpeed="0.00" departDelay="337.09" arrival="-1.00" arrivalLane="" arrivalPos="-1.00" arrivalSpeed="-1.00" duration="3132.00" routeLength="646.79" waitingTime="2973.00" waitingCount="12" stopTime="0.00" timeLoss="3064.67" rerouteNo="0" devices="tripinfo_f_0_3.16" vType="type1" speedFactor="0.78" vaporized="end"/>
    <tripinfo id="f_0_0.10" depart="137.00" departLane="np13_nt13_0" departPos="32.06" departSpeed="0.00" departDelay="0.64" arrival="-1.00" arrivalLane="" arrivalPos="-1.00" arrivalSpeed="-1.00" duration="3463.00" routeLength="1000.47" waitingTime="3266.00" waitingCount="17" stopTime="0.00" timeLoss="3388.34" rerouteNo="0" devices="tripinfo_f_0_0.10" vType="type1" speedFactor="1.00" vaporized="end"/>