<?xml version="1.0" encoding="UTF-8"?>

<!-- generated on 2023-08-30 18:23:31 by Eclipse SUMO libsumo Version 1.18.0
<configuration xmlns:xsi="http://www.w3.org/2001/XMLSchema-instance" xsi:noNamespaceSchemaLocation="http://sumo.dlr.de/xsd/libsumoConfiguration.xsd">

    <input>
        <net-file value="/home/stefan/RESCO/./environments/arterial4x4/arterial4x4.net.xml"/>
        <route-files value="/home/stefan/RESCO/./environments/arterial4x4/arterial4x4_27.rou.xml"/>
    </input>

    <output>
        <tripinfo-output value="/home/stefan/results/RAINBOW-tr0-arterial4x4-0-drq_norm-wait_norm/tripinfo_27.xml"/>
        <tripinfo-output.write-unfinished value="true"/>
    </output>

    <processing>
        <time-to-teleport value="-1"/>
    </processing>

    <report>
        <no-warnings value="True"/>
        <no-step-log value="True"/>
    </report>

    <random_number>
        <random value="true"/>
    </random_number>

</configuration>
-->

<tripinfos xmlns:xsi="http://www.w3.org/2001/XMLSchema-instance" xsi:noNamespaceSchemaLocation="http://sumo.dlr.de/xsd/tripinfo_file.xsd">
    <tripinfo id="f_0_3.0" depart="0.00" departLane="np3_nt3_0" departPos="55.03" departSpeed="0.00" departDelay="0.00" arrival="292.00" arrivalLane="nt14_np11_0" arrivalPos="75.00" arrivalSpeed="9.10" duration="292.00" routeLength="896.06" waitingTime="195.00" waitingCount="4" stopTime="0.00" timeLoss="218.24" rerouteNo="0" devices="tripinfo_f_0_3.0" vType="type1" speedFactor="1.02" vaporized=""/>
    <tripinfo id="f_0_3.1" depart="9.00" departLane="np3_nt3_0" departPos="30.79" departSpeed="0.00" departDelay="0.82" arrival="371.00" arrivalLane="nt14_np11_0" arrivalPos="75.00" arrivalSpeed="10.66" duration="362.00" routeLength="920.30" waitingTime="262.00" waitingCount="6" stopTime="0.00" timeLoss="294.88" rerouteNo="0" devices="tripinfo_f_0_3.1" vType="type1" speedFactor="1.14" vaporized=""/>
    <tripinfo id="f_0_3.2" depart="17.00" departLane="np3_nt3_0" departPos="4.08" departSpeed="0.00" departDelay="0.64" arrival="375.00" arrivalLane="nt14_np11_0" arrivalPos="75.00" arrivalSpeed="9.41" duration="358.00" routeLength="947.01" waitingTime="236.00" waitingCount="6" stopTime="0.00" timeLoss="271.69" rerouteNo="0" devices="tripinfo_f_0_3.2" vType="type1" speedFactor="0.92" vaporized=""/>
    <tripinfo id="f_0_3.3" depart="25.00" departLane="np3_nt3_0" departPos="15.99" departSpeed="0.00" departDelay="0.45" arrival="422.00" arrivalLane="nt14_np11_0" arrivalPos="75.00" arrivalSpeed="7.54" duration="397.00" routeLength="935.10" waitingTime="255.00" waitingCount="7" stopTime="0.00" timeLoss="297.83" rerouteNo="0" devices="tripinfo_f_0_3.3" vType="type1" speedFactor="0.79" vaporized=""/>
    <tripinfo id="f_0_3.4" depart="33.00" departLane="np3_nt3_0" departPos="8.41" departSpeed="0.00" departDelay="0.27" arrival="438.00" arrivalLane="nt14_np11_0" arrivalPos="75.00" arrivalSpeed="8.70" duration="405.00" routeLength="942.68" waitingTime="270.00" waitingCount="8" stopTime="0.00" timeLoss="321.98" rerouteNo="0" devices="tripinfo_f_0_3.4" vType="type1" speedFactor="0.96" vaporized=""/>
    <tripinfo id="f_0_0.0" depart="0.00" departLane="np13_nt13_0" departPos="15.68" departSpeed="0.00" departDelay="0.00" arrival="462.00" arrivalLane="nt4_np5_0" arrivalPos="75.00" arrivalSpeed="17.45" duration="462.00" routeLength="1332.21" waitingTime="338.00" waitingCount="4" stopTime="0.00" timeLoss="368.02" rerouteNo="0" devices="tripinfo_f_0_0.0" vType="type1" speedFactor="0.98" vaporized=""/>
    <tripinfo id="f_0_2.0" depart="0.00" departLane="np2_nt2_0" departPos="49.06" departSpeed="0.00" departDelay="0.00" arrival="471.00" arrivalLane="nt15_np10_0" arrivalPos="75.00" arrivalSpeed="9.47" duration="471.00" routeLength="902.02" waitingTime="381.00" waitingCount="3" stopTime="0.00" timeLoss="401.86" rerouteNo="0" devices="tripinfo_f_0_2.0" vType="type1" speedFactor="1.08" vaporized=""/>
    <tripinfo id="f_0_3.5" depart="41.00" departLane="np3_nt3_0" departPos="25.60" departSpeed="0.00" departDelay="0.09" arrival="507.00" arrivalLane="nt14_np11_0" arrivalPos="75.00" arrivalSpeed="9.96" duration="466.00" routeLength="925.49" waitingTime="336.00" waitingCount="11" stopTime="0.00" timeLoss="388.30" rerouteNo="0" devices="tripinfo_f_0_3.5" vType="type1" speedFactor="1.00" vaporized=""/>
    <tripinfo id="f_0_0.1" depart="14.00" departLane="np13_nt13_0" departPos="57.69" departSpeed="0.00" departDelay="0.36" arrival="514.00" arrivalLane="nt4_np5_0" arrivalPos="75.00" arrivalSpeed="20.08" duration="500.00" routeLength="1290.20" waitingTime="377.00" waitingCount="7" stopTime="0.00" timeLoss="418.48" rerouteNo="0" devices="tripinfo_f_0_0.1" vType="type1" speedFactor="1.11" vaporized=""/>
    <tripinfo id="f_0_2.1" depart="9.00" departLane="np2_nt2_0" departPos="59.32" departSpeed="0.00" departDelay="0.82" arrival="534.00" arrivalLane="nt15_np10_0" arrivalPos="75.00" arrivalSpeed="10.15" duration="525.00" routeLength="891.76" waitingTime="415.00" waitingCount="6" stopTime="0.00" timeLoss="443.74" rerouteNo="0" devices="tripinfo_f_0_2.1" vType="type1" speedFactor="0.93" vaporized=""/>
    <tripinfo id="f_0_2.2" depart="17.00" departLane="np2_nt2_0" departPos="55.97" departSpeed="0.00" departDelay="0.64" arrival="535.00" arrivalLane="nt15_np10_0" arrivalPos="75.00" arrivalSpeed="10.00" duration="518.00" routeLength="895.11" waitingTime="413.00" waitingCount="7" stopTime="0.00" timeLoss="444.89" rerouteNo="0" devices="tripinfo_f_0_2.2" vType="type1" speedFactor="1.02" vaporized=""/>
    <tripinfo id="f_0_0.2" depart="28.00" departLane="np13_nt13_0" departPos="51.81" departSpeed="0.00" departDelay="0.73" arrival="552.00" arrivalLane="nt4_np5_0" arrivalPos="75.00" arrivalSpeed="19.73" duration="524.00" routeLength="1296.08" waitingTime="389.00" waitingCount="8" stopTime="0.00" timeLoss="432.57" rerouteNo="0" devices="tripinfo_f_0_0.2" vType="type1" speedFactor="0.99" vaporized=""/>
    <tripinfo id="f_0_2.3" depart="25.00" departLane="np2_nt2_0" departPos="30.73" departSpeed="0.00" departDelay="0.45" arrival="578.00" arrivalLane="nt15_np10_0" arrivalPos="75.00" arrivalSpeed="10.67" duration="553.00" routeLength="920.35" waitingTime="432.00" waitingCount="8" stopTime="0.00" timeLoss="474.18" rerouteNo="0" devices="tripinfo_f_0_2.3" vType="type1" speedFactor="0.98" vaporized=""/>
    <tripinfo id="f_0_2.4" depart="33.00" departLane="np2_nt2_0" departPos="12.41" departSpeed="0.00" departDelay="0.27" arrival="587.00" arrivalLane="nt15_np10_0" arrivalPos="75.00" arrivalSpeed="10.64" duration="554.00" routeLength="938.67" waitingTime="411.00" waitingCount="12" stopTime="0.00" timeLoss="480.73" rerouteNo="0" devices="tripinfo_f_0_2.4" vType="type1" speedFactor="1.08" vaporized=""/>
    <tripinfo id="f_0_1.0" depart="0.00" departLane="np16_nt1_0" departPos="6.75" departSpeed="0.00" departDelay="0.00" arrival="593.00" arrivalLane="nt16_np8_0" arrivalPos="75.00" arrivalSpeed="20.25" duration="593.00" routeLength="1341.13" waitingTime="443.00" waitingCount="10" stopTime="0.00" timeLoss="503.80" rerouteNo="0" devices="tripinfo_f_0_1.0" vType="type1" speedFactor="1.04" vaporized=""/>
    <tripinfo id="f_0_3.6" depart="50.00" departLane="np3_nt3_0" departPos="4.98" departSpeed="0.00" departDelay="0.91" arrival="597.00" arrivalLane="nt14_np11_0" arrivalPos="75.00" arrivalSpeed="9.07" duration="547.00" routeLength="946.11" waitingTime="411.00" waitingCount="10" stopTime="0.00" timeLoss="468.34" rerouteNo="0" devices="tripinfo_f_0_3.6" vType="type1" speedFactor="1.01" vaporized=""/>
    <tripinfo id="f_0_3.7" depart="58.00" departLane="np3_nt3_0" departPos="1.28" departSpeed="0.00" departDelay="0.73" arrival="599.00" arrivalLane="nt14_np11_0" arrivalPos="75.00" arrivalSpeed="11.47" duration="541.00" routeLength="949.81" waitingTime="400.00" waitingCount="11" stopTime="0.00" timeLoss="469.83" rerouteNo="0" devices="tripinfo_f_0_3.7" vType="type1" speedFactor="1.12" vaporized=""/>
    <tripinfo id="f_0_0.3" depart="41.00" departLane="np13_nt13_0" departPos="20.26" departSpeed="0.00" departDelay="0.09" arrival="605.00" arrivalLane="nt4_np5_0" arrivalPos="75.00" arrivalSpeed="18.25" duration="564.00" routeLength="1327.63" waitingTime="422.00" waitingCount="11" stopTime="0.00" timeLoss="471.80" rerouteNo="0" devices="tripinfo_f_0_0.3" vType="type1" speedFactor="1.00" vaporized=""/>
    <tripinfo id="f_0_0.4" depart="55.00" departLane="np13_nt13_0" departPos="30.67" departSpeed="0.00" departDelay="0.46" arrival="607.00" arrivalLane="nt4_np5_0" arrivalPos="75.00" arrivalSpeed="18.69" duration="552.00" routeLength="1317.22" waitingTime="400.00" waitingCount="10" stopTime="0.00" timeLoss="460.51" rerouteNo="0" devices="tripinfo_f_0_0.4" vType="type1" speedFactor="1.00" vaporized=""/>
    <tripinfo id="f_0_2.5" depart="41.00" departLane="np2_nt2_0" departPos="17.46" departSpeed="0.00" departDelay="0.09" arrival="619.00" arrivalLane="nt15_np10_0" arrivalPos="75.00" arrivalSpeed="8.31" duration="578.00" routeLength="933.62" waitingTime="417.00" waitingCount="11" stopTime="0.00" timeLoss="489.17" rerouteNo="0" devices="tripinfo_f_0_2.5" vType="type1" speedFactor="0.89" vaporized=""/>
    <tripinfo id="f_0_0.5" depart="69.00" departLane="np13_nt13_0" departPos="52.39" departSpeed="0.00" departDelay="0.82" arrival="621.00" arrivalLane="nt4_np5_0" arrivalPos="75.00" arrivalSpeed="19.28" duration="552.00" routeLength="1295.50" waitingTime="386.00" waitingCount="15" stopTime="0.00" timeLoss="460.87" rerouteNo="0" devices="tripinfo_f_0_0.5" vType="type1" speedFactor="1.00" vaporized=""/>
    <tripinfo id="f_0_3.14" depart="253.00" departLane="np3_nt3_0" departPos="64.58" departSpeed="0.00" departDelay="138.45" arrival="623.00" arrivalLane="nt14_np11_0" arrivalPos="75.00" arrivalSpeed="8.15" duration="370.00" routeLength="886.51" waitingTime="241.00" waitingCount="10" stopTime="0.00" timeLoss="289.16" rerouteNo="0" devices="tripinfo_f_0_3.14" vType="type1" speedFactor="0.92" vaporized=""/>
    <tripinfo id="f_0_3.8" depart="66.00" departLane="np3_nt3_0" departPos="3.35" departSpeed="0.00" departDelay="0.54" arrival="625.00" arrivalLane="nt14_np11_0" arrivalPos="75.00" arrivalSpeed="9.81" duration="559.00" routeLength="947.74" waitingTime="388.00" waitingCount="12" stopTime="0.00" timeLoss="474.10" rerouteNo="0" devices="tripinfo_f_0_3.8" vType="type1" speedFactor="0.94" vaporized=""/>
    <tripinfo id="f_0_1.1" depart="14.00" departLane="np16_nt1_0" departPos="57.20" departSpeed="0.00" departDelay="0.36" arrival="639.00" arrivalLane="nt16_np8_0" arrivalPos="75.00" arrivalSpeed="15.99" duration="625.00" routeLength="1290.68" waitingTime="460.00" waitingCount="12" stopTime="0.00" timeLoss="527.00" rerouteNo="0" devices="tripinfo_f_0_1.1" vType="type1" speedFactor="0.92" vaporized=""/>
    <tripinfo id="f_0_1.2" depart="28.00" departLane="np16_nt1_0" departPos="37.34" departSpeed="0.00" departDelay="0.73" arrival="648.00" arrivalLane="nt16_np8_0" arrivalPos="75.00" arrivalSpeed="20.84" duration="620.00" routeLength="1310.54" waitingTime="429.00" waitingCount="15" stopTime="0.00" timeLoss="537.36" rerouteNo="0" devices="tripinfo_f_0_1.2" vType="type1" speedFactor="1.11" vaporized=""/>
    <tripinfo id="f_0_1.3" depart="41.00" departLane="np16_nt1_0" departPos="15.81" departSpeed="0.00" departDelay="0.09" arrival="650.00" arrivalLane="nt16_np8_0" arrivalPos="75.00" arrivalSpeed="20.68" duration="609.00" routeLength="1332.07" waitingTime="410.00" waitingCount="14" stopTime="0.00" timeLoss="524.15" rerouteNo="0" devices="tripinfo_f_0_1.3" vType="type1" speedFactor="1.09" vaporized=""/>
    <tripinfo id="f_0_3.9" depart="93.00" departLane="np3_nt3_0" departPos="0.00" departSpeed="0.00" departDelay="19.36" arrival="652.00" arrivalLane="nt14_np11_0" arrivalPos="75.00" arrivalSpeed="11.21" duration="559.00" routeLength="951.09" waitingTime="404.00" waitingCount="16" stopTime="0.00" timeLoss="488.97" rerouteNo="0" devices="tripinfo_f_0_3.9" vType="type1" speedFactor="1.15" vaporized=""/>
    <tripinfo id="f_0_3.10" depart="122.00" departLane="np3_nt3_0" departPos="0.00" departSpeed="0.00" departDelay="40.18" arrival="672.00" arrivalLane="nt14_np11_0" arrivalPos="75.00" arrivalSpeed="9.33" duration="550.00" routeLength="951.09" waitingTime="381.00" waitingCount="15" stopTime="0.00" timeLoss="474.71" rerouteNo="0" devices="tripinfo_f_0_3.10" vType="type1" speedFactor="1.06" vaporized=""/>
    <tripinfo id="f_0_3.11" depart="126.00" departLane="np3_nt3_0" departPos="0.00" departSpeed="0.00" departDelay="36.00" arrival="673.00" arrivalLane="nt14_np11_0" arrivalPos="75.00" arrivalSpeed="12.40" duration="547.00" routeLength="951.09" waitingTime="375.00" waitingCount="17" stopTime="0.00" timeLoss="479.64" rerouteNo="0" devices="tripinfo_f_0_3.11" vType="type1" speedFactor="1.18" vaporized=""/>
    <tripinfo id="f_0_0.6" depart="82.00" departLane="np13_nt13_0" departPos="37.70" departSpeed="0.00" departDelay="0.18" arrival="690.00" arrivalLane="nt4_np5_0" arrivalPos="75.00" arrivalSpeed="20.11" duration="608.00" routeLength="1310.19" waitingTime="435.00" waitingCount="15" stopTime="0.00" timeLoss="521.91" rerouteNo="0" devices="tripinfo_f_0_0.6" vType="type1" speedFactor="1.06" vaporized=""/>
    <tripinfo id="f_0_2.6" depart="50.00" departLane="np2_nt2_0" departPos="35.93" departSpeed="0.00" departDelay="0.91" arrival="703.00" arrivalLane="nt15_np10_0" arrivalPos="75.00" arrivalSpeed="8.50" duration="653.00" routeLength="915.15" waitingTime="483.00" waitingCount="13" stopTime="0.00" timeLoss="570.76" rerouteNo="0" devices="tripinfo_f_0_2.6" vType="type1" speedFactor="0.93" vaporized=""/>
    <tripinfo id="f_0_2.7" depart="58.00" departLane="np2_nt2_0" departPos="50.54" departSpeed="0.00" departDelay="0.73" arrival="705.00" arrivalLane="nt15_np10_0" arrivalPos="75.00" arrivalSpeed="8.50" duration="647.00" routeLength="900.54" waitingTime="469.00" waitingCount="14" stopTime="0.00" timeLoss="570.33" rerouteNo="0" devices="tripinfo_f_0_2.7" vType="type1" speedFactor="0.98" vaporized=""/>
    <tripinfo id="f_0_2.8" depart="66.00" departLane="np2_nt2_0" departPos="31.98" departSpeed="0.00" departDelay="0.54" arrival="707.00" arrivalLane="nt15_np10_0" arrivalPos="75.00" arrivalSpeed="9.92" duration="641.00" routeLength="919.10" waitingTime="450.00" waitingCount="16" stopTime="0.00" timeLoss="558.20" rerouteNo="0" devices="tripinfo_f_0_2.8" vType="type1" speedFactor="0.93" vaporized=""/>
    <tripinfo id="f_0_2.9" depart="74.00" departLane="np2_nt2_0" departPos="25.86" departSpeed="0.00" departDelay="0.36" arrival="710.00" arrivalLane="nt15_np10_0" arrivalPos="75.00" arrivalSpeed="8.68" duration="636.00" routeLength="925.22" waitingTime="430.00" waitingCount="14" stopTime="0.00" timeLoss="548.24" rerouteNo="0" devices="tripinfo_f_0_2.9" vType="type1" speedFactor="0.88" vaporized=""/>
    <tripinfo id="f_0_2.10" depart="82.00" departLane="np2_nt2_0" departPos="19.92" departSpeed="0.00" departDelay="0.18" arrival="713.00" arrivalLane="nt15_np10_0" arrivalPos="75.00" arrivalSpeed="11.04" duration="631.00" routeLength="931.16" waitingTime="434.00" waitingCount="16" stopTime="0.00" timeLoss="563.68" rerouteNo="0" devices="tripinfo_f_0_2.10" vType="type1" speedFactor="1.16" vaporized=""/>
    <tripinfo id="f_0_0.7" depart="96.00" departLane="np13_nt13_0" departPos="31.69" departSpeed="0.00" departDelay="0.55" arrival="721.00" arrivalLane="nt4_np5_0" arrivalPos="75.00" arrivalSpeed="19.14" duration="625.00" routeLength="1316.20" waitingTime="437.00" waitingCount="15" stopTime="0.00" timeLoss="530.38" rerouteNo="0" devices="tripinfo_f_0_0.7" vType="type1" speedFactor="0.97" vaporized=""/>
    <tripinfo id="f_0_1.4" depart="55.00" departLane="np16_nt1_0" departPos="2.59" departSpeed="0.00" departDelay="0.46" arrival="723.00" arrivalLane="nt16_np8_0" arrivalPos="75.00" arrivalSpeed="17.78" duration="668.00" routeLength="1345.29" waitingTime="450.00" waitingCount="15" stopTime="0.00" timeLoss="568.82" rerouteNo="0" devices="tripinfo_f_0_1.4" vType="type1" speedFactor="0.94" vaporized=""/>
    <tripinfo id="f_0_0.8" depart="110.00" departLane="np13_nt13_0" departPos="28.36" departSpeed="0.00" departDelay="0.91" arrival="723.00" arrivalLane="nt4_np5_0" arrivalPos="75.00" arrivalSpeed="19.96" duration="613.00" routeLength="1319.53" waitingTime="422.00" waitingCount="15" stopTime="0.00" timeLoss="527.72" rerouteNo="0" devices="tripinfo_f_0_0.8" vType="type1" speedFactor="1.08" vaporized=""/>
    <tripinfo id="f_0_0.9" depart="123.00" departLane="np13_nt13_0" departPos="27.67" departSpeed="0.00" departDelay="0.28" arrival="725.00" arrivalLane="nt4_np5_0" arrivalPos="75.00" arrivalSpeed="20.69" duration="602.00" routeLength="1320.22" waitingTime="406.00" waitingCount="14" stopTime="0.00" timeLoss="513.03" rerouteNo="0" devices="tripinfo_f_0_0.9" vType="type1" speedFactor="1.04" vaporized=""/>
    <tripinfo id="f_0_3.12" depart="133.00" departLane="np3_nt3_0" departPos="0.00" departSpeed="0.00" departDelay="34.82" arrival="727.00" arrivalLane="nt14_np11_0" arrivalPos="75.00" arrivalSpeed="10.13" duration="594.00" routeLength="951.09" waitingTime="424.00" waitingCount="17" stopTime="0.00" timeLoss="518.43" rerouteNo="0" devices="tripinfo_f_0_3.12" vType="type1" speedFactor="1.06" vaporized=""/>
    <tripinfo id="f_0_3.13" depart="193.00" departLane="np3_nt3_0" departPos="0.00" departSpeed="0.00" departDelay="86.63" arrival="729.00" arrivalLane="nt14_np11_0" arrivalPos="75.00" arrivalSpeed="10.50" duration="536.00" routeLength="951.09" waitingTime="369.00" waitingCount="15" stopTime="0.00" timeLoss="459.11" rerouteNo="0" devices="tripinfo_f_0_3.13" vType="type1" speedFactor="1.04" vaporized=""/>
    <tripinfo id="f_0_3.15" depart="258.00" departLane="np3_nt3_0" departPos="0.00" departSpeed="0.00" departDelay="135.27" arrival="733.00" arrivalLane="nt14_np11_0" arrivalPos="75.00" arrivalSpeed="9.02" duration="475.00" routeLength="951.09" waitingTime="296.00" waitingCount="13" stopTime="0.00" timeLoss="383.84" rerouteNo="0" devices="tripinfo_f_0_3.15" vType="type1" speedFactor="0.88" vaporized=""/>
    <tripinfo id="f_0_3.16" depart="262.00" departLane="np3_nt3_0" departPos="0.79" departSpeed="0.00" departDelay="131.09" arrival="735.00" arrivalLane="nt14_np11_0" arrivalPos="75.00" arrivalSpeed="13.39" duration="473.00" routeLength="950.30" waitingTime="311.00" waitingCount="13" stopTime="0.00" timeLoss="407.00" rerouteNo="0" devices="tripinfo_f_0_3.16" vType="type1" speedFactor="1.22" vaporized=""/>
    <tripinfo id="f_0_2.11" depart="90.00" departLane="np2_nt2_0" departPos="30.83" departSpeed="0.00" departDelay="0.00" arrival="751.00" arrivalLane="nt15_np10_0" arrivalPos="75.00" arrivalSpeed="9.65" duration="661.00" routeLength="920.25" waitingTime="467.00" waitingCount="18" stopTime="0.00" timeLoss="591.44" rerouteNo="0" devices="tripinfo_f_0_2.11" vType="type1" speedFactor="1.10" vaporized=""/>
    <tripinfo id="f_0_3.17" depart="266.00" departLane="np3_nt3_0" departPos="0.87" departSpeed="0.00" departDelay="126.91" arrival="753.00" arrivalLane="nt14_np11_0" arrivalPos="75.00" arrivalSpeed="8.75" duration="487.00" routeLength="950.22" waitingTime="325.00" waitingCount="11" stopTime="0.00" timeLoss="407.66" rerouteNo="0" devices="tripinfo_f_0_3.17" vType="type1" speedFactor="1.00" vaporized=""/>
    <tripinfo id="f_0_1.5" depart="69.00" departLane="np16_nt1_0" departPos="11.12" departSpeed="0.00" departDelay="0.82" arrival="762.00" arrivalLane="nt16_np8_0" arrivalPos="75.00" arrivalSpeed="17.55" duration="693.00" routeLength="1336.76" waitingTime="463.00" waitingCount="17" stopTime="0.00" timeLoss="596.76" rerouteNo="0" devices="tripinfo_f_0_1.5" vType="type1" speedFactor="0.96" vaporized=""/>
    <tripinfo id="f_0_1.6" depart="82.00" departLane="np16_nt1_0" departPos="62.63" departSpeed="0.00" departDelay="0.18" arrival="769.00" arrivalLane="nt16_np8_0" arrivalPos="75.00" arrivalSpeed="16.57" duration="687.00" routeLength="1285.25" waitingTime="440.00" waitingCount="18" stopTime="0.00" timeLoss="591.49" rerouteNo="0" devices="tripinfo_f_0_1.6" vType="type1" speedFactor="0.95" vaporized=""/>
    <tripinfo id="f_0_3.18" depart="269.00" departLane="np3_nt3_0" departPos="0.00" departSpeed="0.00" departDelay="121.72" arrival="772.00" arrivalLane="nt14_np11_0" arrivalPos="75.00" arrivalSpeed="10.11" duration="503.00" routeLength="951.09" waitingTime="341.00" waitingCount="15" stopTime="0.00" timeLoss="421.75" rerouteNo="0" devices="tripinfo_f_0_3.18" vType="type1" speedFactor="0.98" vaporized=""/>
    <tripinfo id="f_0_2.12" depart="99.00" departLane="np2_nt2_0" departPos="6.54" departSpeed="0.00" departDelay="0.82" arrival="782.00" arrivalLane="nt15_np10_0" arrivalPos="75.00" arrivalSpeed="9.69" duration="683.00" routeLength="944.54" waitingTime="453.00" waitingCount="17" stopTime="0.00" timeLoss="603.30" rerouteNo="0" devices="tripinfo_f_0_2.12" vType="type1" speedFactor="1.00" vaporized=""/>
    <tripinfo id="f_0_2.13" depart="107.00" departLane="np2_nt2_0" departPos="49.78" departSpeed="0.00" departDelay="0.63" arrival="784.00" arrivalLane="nt15_np10_0" arrivalPos="75.00" arrivalSpeed="9.82" duration="677.00" routeLength="901.30" waitingTime="440.00" waitingCount="17" stopTime="0.00" timeLoss="606.13" rerouteNo="0" devices="tripinfo_f_0_2.13" vType="type1" speedFactor="1.07" vaporized=""/>
    <tripinfo id="f_0_0.10" depart="137.00" departLane="np13_nt13_0" departPos="64.96" departSpeed="0.00" departDelay="0.64" arrival="789.00" arrivalLane="nt4_np5_0" arrivalPos="75.00" arrivalSpeed="18.50" duration="652.00" routeLength="1282.93" waitingTime="488.00" waitingCount="12" stopTime="0.00" timeLoss="559.36" rerouteNo="0" devices="tripinfo_f_0_0.10" vType="type1" speedFactor="0.97" vaporized=""/>
    <tripinfo id="f_0_0.11" depart="150.00" departLane="np13_nt13_0" departPos="44.14" departSpeed="0.00" departDelay="0.00" arrival="813.00" arrivalLane="nt4_np5_0" arrivalPos="75.00" arrivalSpeed="19.61" duration="663.00" routeLength="1303.75" waitingTime="495.00" waitingCount="12" stopTime="0.00" timeLoss="572.44" rerouteNo="0" devices="tripinfo_f_0_0.11" vType="type1" speedFactor="1.00" vaporized=""/>
    <tripinfo id="f_0_0.12" depart="164.00" departLane="np13_nt13_0" departPos="17.35" departSpeed="0.00" departDelay="0.37" arrival="815.00" arrivalLane="nt4_np5_0" arrivalPos="75.00" arrivalSpeed="19.25" duration="651.00" routeLength="1330.54" waitingTime="473.00" waitingCount="16" stopTime="0.00" timeLoss="556.07" rerouteNo="0" devices="tripinfo_f_0_0.12" vType="type1" speedFactor="0.97" vaporized=""/>
    <tripinfo id="f_0_2.14" depart="115.00" departLane="np2_nt2_0" departPos="41.53" departSpeed="0.00" departDelay="0.45" arrival="817.00" arrivalLane="nt15_np10_0" arrivalPos="75.00" arrivalSpeed="9.50" duration="702.00" routeLength="909.55" waitingTime="464.00" waitingCount="18" stopTime="0.00" timeLoss="630.28" rerouteNo="0" devices="tripinfo_f_0_2.14" vType="type1" speedFactor="1.06" vaporized=""/>
    <tripinfo id="f_0_0.13" depart="178.00" departLane="np13_nt13_0" departPos="19.93" departSpeed="0.00" departDelay="0.73" arrival="820.00" arrivalLane="nt4_np5_0" arrivalPos="75.00" arrivalSpeed="16.60" duration="642.00" routeLength="1327.96" waitingTime="446.00" waitingCount="14" stopTime="0.00" timeLoss="538.68" rerouteNo="0" devices="tripinfo_f_0_0.13" vType="type1" speedFactor="0.90" vaporized=""/>
    <tripinfo id="f_0_0.14" depart="191.00" departLane="np13_nt13_0" departPos="51.07" departSpeed="0.00" departDelay="0.10" arrival="822.00" arrivalLane="nt4_np5_0" arrivalPos="75.00" arrivalSpeed="16.64" duration="631.00" routeLength="1296.82" waitingTime="432.00" waitingCount="17" stopTime="0.00" timeLoss="533.37" rerouteNo="0" devices="tripinfo_f_0_0.14" vType="type1" speedFactor="0.93" vaporized=""/>
    <tripinfo id="f_0_0.15" depart="205.00" departLane="np13_nt13_0" departPos="21.37" departSpeed="0.00" departDelay="0.46" arrival="848.00" arrivalLane="nt4_np5_0" arrivalPos="75.00" arrivalSpeed="19.34" duration="643.00" routeLength="1326.52" waitingTime="429.00" waitingCount="19" stopTime="0.00" timeLoss="554.91" rerouteNo="0" devices="tripinfo_f_0_0.15" vType="type1" speedFactor="1.05" vaporized=""/>
    <tripinfo id="f_0_0.16" depart="219.00" departLane="np13_nt13_0" departPos="46.46" departSpeed="0.00" departDelay="0.82" arrival="850.00" arrivalLane="nt4_np5_0" arrivalPos="75.00" arrivalSpeed="21.07" duration="631.00" routeLength="1301.43" waitingTime="427.00" waitingCount="16" stopTime="0.00" timeLoss="550.94" rerouteNo="0" devices="tripinfo_f_0_0.16" vType="type1" speedFactor="1.14" vaporized=""/>
    <tripinfo id="f_0_1.7" depart="96.00" departLane="np16_nt1_0" departPos="33.66" departSpeed="0.00" departDelay="0.55" arrival="854.00" arrivalLane="nt16_np8_0" arrivalPos="75.00" arrivalSpeed="18.70" duration="758.00" routeLength="1314.22" waitingTime="486.00" waitingCount="22" stopTime="0.00" timeLoss="660.71" rerouteNo="0" devices="tripinfo_f_0_1.7" vType="type1" speedFactor="0.95" vaporized=""/>
    <tripinfo id="f_0_1.8" depart="110.00" departLane="np16_nt1_0" departPos="29.31" departSpeed="0.00" departDelay="0.91" arrival="856.00" arrivalLane="nt16_np8_0" arrivalPos="75.00" arrivalSpeed="16.45" duration="746.00" routeLength="1318.57" waitingTime="450.00" waitingCount="23" stopTime="0.00" timeLoss="635.21" rerouteNo="0" devices="tripinfo_f_0_1.8" vType="type1" speedFactor="0.83" vaporized=""/>
    <tripinfo id="f_0_1.9" depart="123.00" departLane="np16_nt1_0" departPos="5.83" departSpeed="0.00" departDelay="0.28" arrival="858.00" arrivalLane="nt16_np8_0" arrivalPos="75.00" arrivalSpeed="18.31" duration="735.00" routeLength="1342.05" waitingTime="450.00" waitingCount="20" stopTime="0.00" timeLoss="640.07" rerouteNo="0" devices="tripinfo_f_0_1.9" vType="type1" speedFactor="0.99" vaporized=""/>
    <tripinfo id="f_0_2.15" depart="123.00" departLane="np2_nt2_0" departPos="21.94" departSpeed="0.00" departDelay="0.27" arrival="863.00" arrivalLane="nt15_np10_0" arrivalPos="75.00" arrivalSpeed="9.16" duration="740.00" routeLength="929.14" waitingTime="468.00" waitingCount="20" stopTime="0.00" timeLoss="657.63" rerouteNo="0" devices="tripinfo_f_0_2.15" vType="type1" speedFactor="0.95" vaporized=""/>
    <tripinfo id="f_0_2.16" depart="131.00" departLane="np2_nt2_0" departPos="6.64" departSpeed="0.00" departDelay="0.09" arrival="865.00" arrivalLane="nt15_np10_0" arrivalPos="75.00" arrivalSpeed="8.96" duration="734.00" routeLength="944.44" waitingTime="480.00" waitingCount="23" stopTime="0.00" timeLoss="650.28" rerouteNo="0" devices="tripinfo_f_0_2.16" vType="type1" speedFactor="0.95" vaporized=""/>
    <tripinfo id="f_0_0.17" depart="232.00" departLane="np13_nt13_0" departPos="6.58" departSpeed="0.00" departDelay="0.19" arrival="868.00" arrivalLane="nt4_np5_0" arrivalPos="75.00" arrivalSpeed="17.56" duration="636.00" routeLength="1341.31" waitingTime="405.00" waitingCount="19" stopTime="0.00" timeLoss="541.62" rerouteNo="0" devices="tripinfo_f_0_0.17" vType="type1" speedFactor="0.98" vaporized=""/>
    <tripinfo id="f_0_1.13" depart="178.00" departLane="np16_nt1_0" departPos="22.58" departSpeed="0.00" departDelay="0.73" arrival="880.00" arrivalLane="nt16_np8_0" arrivalPos="75.00" arrivalSpeed="18.75" duration="702.00" routeLength="1325.30" waitingTime="457.00" waitingCount="19" stopTime="0.00" timeLoss="607.19" rerouteNo="0" devices="tripinfo_f_0_1.13" vType="type1" speedFactor="0.98" vaporized=""/>
    <tripinfo id="f_0_2.17" depart="140.00" departLane="np2_nt2_0" departPos="42.50" departSpeed="0.00" departDelay="0.91" arrival="902.00" arrivalLane="nt15_np10_0" arrivalPos="75.00" arrivalSpeed="9.85" duration="762.00" routeLength="908.58" waitingTime="491.00" waitingCount="24" stopTime="0.00" timeLoss="691.84" rerouteNo="0" devices="tripinfo_f_0_2.17" vType="type1" speedFactor="1.10" vaporized=""/>
    <tripinfo id="f_0_0.18" depart="246.00" departLane="np13_nt13_0" departPos="50.21" departSpeed="0.00" departDelay="0.55" arrival="905.00" arrivalLane="nt4_np5_0" arrivalPos="75.00" arrivalSpeed="20.71" duration="659.00" routeLength="1297.68" waitingTime="440.00" waitingCount="20" stopTime="0.00" timeLoss="572.58" rerouteNo="0" devices="tripinfo_f_0_0.18" vType="type1" speedFactor="1.06" vaporized=""/>
    <tripinfo id="f_0_1.14" depart="191.00" departLane="np16_nt1_0" departPos="32.94" departSpeed="0.00" departDelay="0.10" arrival="913.00" arrivalLane="nt16_np8_0" arrivalPos="75.00" arrivalSpeed="24.02" duration="722.00" routeLength="1314.94" waitingTime="459.00" waitingCount="19" stopTime="0.00" timeLoss="646.90" rerouteNo="0" devices="tripinfo_f_0_1.14" vType="type1" speedFactor="1.23" vaporized=""/>
    <tripinfo id="f_0_0.19" depart="260.00" departLane="np13_nt13_0" departPos="61.39" departSpeed="0.00" departDelay="0.92" arrival="949.00" arrivalLane="nt4_np5_0" arrivalPos="75.00" arrivalSpeed="15.74" duration="689.00" routeLength="1286.50" waitingTime="443.00" waitingCount="18" stopTime="0.00" timeLoss="585.18" rerouteNo="0" devices="tripinfo_f_0_0.19" vType="type1" speedFactor="0.87" vaporized=""/>
    <tripinfo id="f_0_2.18" depart="148.00" departLane="np2_nt2_0" departPos="34.01" departSpeed="0.00" departDelay="0.72" arrival="977.00" arrivalLane="nt15_np10_0" arrivalPos="75.00" arrivalSpeed="9.43" duration="829.00" routeLength="917.07" waitingTime="532.00" waitingCount="25" stopTime="0.00" timeLoss="753.02" rerouteNo="0" devices="tripinfo_f_0_2.18" vType="type1" speedFactor="1.01" vaporized=""/>
    <tripinfo id="f_0_2.19" depart="156.00" departLane="np2_nt2_0" departPos="50.47" departSpeed="0.00" departDelay="0.54" arrival="982.00" arrivalLane="nt15_np10_0" arrivalPos="75.00" arrivalSpeed="7.08" duration="826.00" routeLength="900.61" waitingTime="518.00" waitingCount="24" stopTime="0.00" timeLoss="734.73" rerouteNo="0" devices="tripinfo_f_0_2.19" vType="type1" speedFactor="0.83" vaporized=""/>