<?xml version="1.0" encoding="UTF-8"?>

<!-- generated on 2023-08-30 19:21:14 by Eclipse SUMO libsumo Version 1.18.0
<configuration xmlns:xsi="http://www.w3.org/2001/XMLSchema-instance" xsi:noNamespaceSchemaLocation="http://sumo.dlr.de/xsd/libsumoConfiguration.xsd">

    <input>
        <net-file value="/home/stefan/RESCO/./environments/arterial4x4/arterial4x4.net.xml"/>
        <route-files value="/home/stefan/RESCO/./environments/arterial4x4/arterial4x4_75.rou.xml"/>
    </input>

    <output>
        <tripinfo-output value="/home/stefan/results/RAINBOW-tr0-arterial4x4-0-drq_norm-wait_norm/tripinfo_75.xml"/>
        <tripinfo-output.write-unfinished value="true"/>
    </output>

    <processing>
        <time-to-teleport value="-1"/>
    </processing>

    <report>
        <no-warnings value="True"/>
        <no-step-log value="True"/>
    </report>

    <random_number>
        <random value="true"/>
    </random_number>

</configuration>
-->

<tripinfos xmlns:xsi="http://www.w3.org/2001/XMLSchema-instance" xsi:noNamespaceSchemaLocation="http://sumo.dlr.de/xsd/tripinfo_file.xsd">
    <tripinfo id="f_0_2.0" depart="0.00" departLane="np2_nt2_0" departPos="7.77" departSpeed="0.00" departDelay="0.00" arrival="378.00" arrivalLane="nt15_np10_0" arrivalPos="75.00" arrivalSpeed="8.42" duration="378.00" routeLength="943.31" waitingTime="268.00" waitingCount="5" stopTime="0.00" timeLoss="292.59" rerouteNo="0" devices="tripinfo_f_0_2.0" vType="type1" speedFactor="0.93" vaporized=""/>
    <tripinfo id="f_0_2.1" depart="9.00" departLane="np2_nt2_0" departPos="46.95" departSpeed="0.00" departDelay="0.82" arrival="380.00" arrivalLane="nt15_np10_0" arrivalPos="75.00" arrivalSpeed="9.02" duration="371.00" routeLength="904.13" waitingTime="261.00" waitingCount="5" stopTime="0.00" timeLoss="289.46" rerouteNo="0" devices="tripinfo_f_0_2.1" vType="type1" speedFactor="0.93" vaporized=""/>
    <tripinfo id="f_0_2.2" depart="17.00" departLane="np2_nt2_0" departPos="23.06" departSpeed="0.00" departDelay="0.64" arrival="818.00" arrivalLane="nt15_np10_0" arrivalPos="75.00" arrivalSpeed="10.34" duration="801.00" routeLength="928.02" waitingTime="691.00" waitingCount="6" stopTime="0.00" timeLoss="722.03" rerouteNo="0" devices="tripinfo_f_0_2.2" vType="type1" speedFactor="0.99" vaporized=""/>
    <tripinfo id="f_0_3.0" depart="0.00" departLane="np3_nt3_0" departPos="54.28" departSpeed="0.00" departDelay="0.00" arrival="828.00" arrivalLane="nt14_np11_0" arrivalPos="75.00" arrivalSpeed="8.45" duration="828.00" routeLength="896.81" waitingTime="729.00" waitingCount="4" stopTime="0.00" timeLoss="748.48" rerouteNo="0" devices="tripinfo_f_0_3.0" vType="type1" speedFactor="0.95" vaporized=""/>
    <tripinfo id="f_3_6.0" depart="900.00" departLane="np10_nt15_0" departPos="67.71" departSpeed="0.00" departDelay="0.00" arrival="1061.00" arrivalLane="nt2_np2_0" arrivalPos="64.60" arrivalSpeed="7.80" duration="161.00" routeLength="883.37" waitingTime="59.00" waitingCount="2" stopTime="0.00" timeLoss="77.63" rerouteNo="0" devices="tripinfo_f_3_6.0" vType="type1" speedFactor="0.89" vaporized=""/>
    <tripinfo id="f_0_0.0" depart="0.00" departLane="np13_nt13_0" departPos="26.63" departSpeed="0.00" departDelay="0.00" arrival="1069.00" arrivalLane="nt4_np5_0" arrivalPos="75.00" arrivalSpeed="16.09" duration="1069.00" routeLength="1321.26" waitingTime="932.00" waitingCount="4" stopTime="0.00" timeLoss="960.94" rerouteNo="0" devices="tripinfo_f_0_0.0" vType="type1" speedFactor="0.85" vaporized=""/>
    <tripinfo id="f_0_0.1" depart="14.00" departLane="np13_nt13_0" departPos="15.74" departSpeed="0.00" departDelay="0.36" arrival="1070.00" arrivalLane="nt4_np5_0" arrivalPos="75.00" arrivalSpeed="17.87" duration="1056.00" routeLength="1332.15" waitingTime="917.00" waitingCount="3" stopTime="0.00" timeLoss="957.23" rerouteNo="0" devices="tripinfo_f_0_0.1" vType="type1" speedFactor="0.94" vaporized=""/>
    <tripinfo id="f_0_0.2" depart="28.00" departLane="np13_nt13_0" departPos="49.52" departSpeed="0.00" departDelay="0.73" arrival="1078.00" arrivalLane="nt4_np5_0" arrivalPos="75.00" arrivalSpeed="18.64" duration="1050.00" routeLength="1298.37" waitingTime="918.00" waitingCount="6" stopTime="0.00" timeLoss="957.05" rerouteNo="0" devices="tripinfo_f_0_0.2" vType="type1" speedFactor="0.98" vaporized=""/>
    <tripinfo id="f_0_3.1" depart="9.00" departLane="np3_nt3_0" departPos="45.85" departSpeed="0.00" departDelay="0.82" arrival="1093.00" arrivalLane="nt14_np11_0" arrivalPos="75.00" arrivalSpeed="9.58" duration="1084.00" routeLength="905.24" waitingTime="979.00" waitingCount="5" stopTime="0.00" timeLoss="1002.61" rerouteNo="0" devices="tripinfo_f_0_3.1" vType="type1" speedFactor="0.94" vaporized=""/>
    <tripinfo id="f_0_3.9" depart="75.00" departLane="np3_nt3_0" departPos="63.73" departSpeed="0.00" departDelay="1.36" arrival="1096.00" arrivalLane="nt14_np11_0" arrivalPos="75.00" arrivalSpeed="8.09" duration="1021.00" routeLength="887.36" waitingTime="908.00" waitingCount="5" stopTime="0.00" timeLoss="939.08" rerouteNo="0" devices="tripinfo_f_0_3.9" vType="type1" speedFactor="0.91" vaporized=""/>
    <tripinfo id="f_0_3.2" depart="17.00" departLane="np3_nt3_0" departPos="12.67" departSpeed="0.00" departDelay="0.64" arrival="1473.00" arrivalLane="nt14_np11_0" arrivalPos="75.00" arrivalSpeed="7.86" duration="1456.00" routeLength="938.42" waitingTime="1316.00" waitingCount="8" stopTime="0.00" timeLoss="1361.19" rerouteNo="0" devices="tripinfo_f_0_3.2" vType="type1" speedFactor="0.84" vaporized=""/>
    <tripinfo id="f_0_3.3" depart="25.00" departLane="np3_nt3_0" departPos="26.42" departSpeed="0.00" departDelay="0.45" arrival="1475.00" arrivalLane="nt14_np11_0" arrivalPos="75.00" arrivalSpeed="10.33" duration="1450.00" routeLength="924.67" waitingTime="1311.00" waitingCount="9" stopTime="0.00" timeLoss="1368.24" rerouteNo="0" devices="tripinfo_f_0_3.3" vType="type1" speedFactor="0.94" vaporized=""/>
    <tripinfo id="f_0_3.4" depart="33.00" departLane="np3_nt3_0" departPos="31.27" departSpeed="0.00" departDelay="0.27" arrival="1477.00" arrivalLane="nt14_np11_0" arrivalPos="75.00" arrivalSpeed="9.25" duration="1444.00" routeLength="919.82" waitingTime="1302.00" waitingCount="10" stopTime="0.00" timeLoss="1370.05" rerouteNo="0" devices="tripinfo_f_0_3.4" vType="type1" speedFactor="1.04" vaporized=""/>
    <tripinfo id="f_0_3.5" depart="41.00" departLane="np3_nt3_0" departPos="19.20" departSpeed="0.00" departDelay="0.09" arrival="1479.00" arrivalLane="nt14_np11_0" arrivalPos="75.00" arrivalSpeed="10.23" duration="1438.00" routeLength="931.89" waitingTime="1287.00" waitingCount="10" stopTime="0.00" timeLoss="1364.81" rerouteNo="0" devices="tripinfo_f_0_3.5" vType="type1" speedFactor="1.07" vaporized=""/>
    <tripinfo id="f_0_3.6" depart="50.00" departLane="np3_nt3_0" departPos="3.30" departSpeed="0.00" departDelay="0.91" arrival="1481.00" arrivalLane="nt14_np11_0" arrivalPos="75.00" arrivalSpeed="9.88" duration="1431.00" routeLength="947.79" waitingTime="1269.00" waitingCount="12" stopTime="0.00" timeLoss="1347.63" rerouteNo="0" devices="tripinfo_f_0_3.6" vType="type1" speedFactor="0.96" vaporized=""/>
    <tripinfo id="f_0_3.7" depart="58.00" departLane="np3_nt3_0" departPos="8.06" departSpeed="0.00" departDelay="0.73" arrival="1486.00" arrivalLane="nt14_np11_0" arrivalPos="75.00" arrivalSpeed="8.68" duration="1428.00" routeLength="943.03" waitingTime="1249.00" waitingCount="12" stopTime="0.00" timeLoss="1329.65" rerouteNo="0" devices="tripinfo_f_0_3.7" vType="type1" speedFactor="0.81" vaporized=""/>
    <tripinfo id="f_0_3.8" depart="66.00" departLane="np3_nt3_0" departPos="0.00" departSpeed="0.00" departDelay="0.54" arrival="1488.00" arrivalLane="nt14_np11_0" arrivalPos="75.00" arrivalSpeed="10.64" duration="1422.00" routeLength="951.09" waitingTime="1237.00" waitingCount="12" stopTime="0.00" timeLoss="1339.34" rerouteNo="0" devices="tripinfo_f_0_3.8" vType="type1" speedFactor="0.97" vaporized=""/>
    <tripinfo id="f_0_2.3" depart="25.00" departLane="np2_nt2_0" departPos="17.70" departSpeed="0.00" departDelay="0.45" arrival="1612.00" arrivalLane="nt15_np10_0" arrivalPos="75.00" arrivalSpeed="8.82" duration="1587.00" routeLength="933.38" waitingTime="1470.00" waitingCount="8" stopTime="0.00" timeLoss="1508.83" rerouteNo="0" devices="tripinfo_f_0_2.3" vType="type1" speedFactor="1.00" vaporized=""/>
    <tripinfo id="f_0_2.4" depart="33.00" departLane="np2_nt2_0" departPos="50.99" departSpeed="0.00" departDelay="0.27" arrival="1648.00" arrivalLane="nt15_np10_0" arrivalPos="75.00" arrivalSpeed="10.00" duration="1615.00" routeLength="900.09" waitingTime="1492.00" waitingCount="10" stopTime="0.00" timeLoss="1537.77" rerouteNo="0" devices="tripinfo_f_0_2.4" vType="type1" speedFactor="0.98" vaporized=""/>
    <tripinfo id="f_3_7.0" depart="900.00" departLane="np11_nt14_0" departPos="45.38" departSpeed="0.00" departDelay="0.00" arrival="1676.00" arrivalLane="nt3_np3_0" arrivalPos="64.60" arrivalSpeed="11.38" duration="776.00" routeLength="905.71" waitingTime="677.00" waitingCount="5" stopTime="0.00" timeLoss="706.00" rerouteNo="0" devices="tripinfo_f_3_7.0" vType="type1" speedFactor="1.09" vaporized=""/>
    <tripinfo id="f_0_2.5" depart="41.00" departLane="np2_nt2_0" departPos="32.32" departSpeed="0.00" departDelay="0.09" arrival="1683.00" arrivalLane="nt15_np10_0" arrivalPos="75.00" arrivalSpeed="9.02" duration="1642.00" routeLength="918.76" waitingTime="1508.00" waitingCount="12" stopTime="0.00" timeLoss="1560.79" rerouteNo="0" devices="tripinfo_f_0_2.5" vType="type1" speedFactor="0.95" vaporized=""/>
    <tripinfo id="f_0_2.6" depart="50.00" departLane="np2_nt2_0" departPos="26.38" departSpeed="0.00" departDelay="0.91" arrival="1685.00" arrivalLane="nt15_np10_0" arrivalPos="75.00" arrivalSpeed="9.95" duration="1635.00" routeLength="924.70" waitingTime="1488.00" waitingCount="13" stopTime="0.00" timeLoss="1550.65" rerouteNo="0" devices="tripinfo_f_0_2.6" vType="type1" speedFactor="0.92" vaporized=""/>
    <tripinfo id="f_3_5.0" depart="900.00" departLane="np8_nt16_0" departPos="35.77" departSpeed="0.00" departDelay="0.00" arrival="1707.00" arrivalLane="nt1_np16_0" arrivalPos="67.80" arrivalSpeed="20.21" duration="807.00" routeLength="1312.11" waitingTime="693.00" waitingCount="4" stopTime="0.00" timeLoss="722.95" rerouteNo="0" devices="tripinfo_f_3_5.0" vType="type1" speedFactor="1.09" vaporized=""/>
    <tripinfo id="f_3_5.1" depart="922.00" departLane="np8_nt16_0" departPos="20.54" departSpeed="0.00" departDelay="0.31" arrival="1711.00" arrivalLane="nt1_np16_0" arrivalPos="67.80" arrivalSpeed="20.02" duration="789.00" routeLength="1327.34" waitingTime="670.00" waitingCount="5" stopTime="0.00" timeLoss="698.57" rerouteNo="0" devices="tripinfo_f_3_5.1" vType="type1" speedFactor="1.02" vaporized=""/>
    <tripinfo id="f_0_2.7" depart="58.00" departLane="np2_nt2_0" departPos="2.49" departSpeed="0.00" departDelay="0.73" arrival="1872.00" arrivalLane="nt15_np10_0" arrivalPos="75.00" arrivalSpeed="10.88" duration="1814.00" routeLength="948.59" waitingTime="1665.00" waitingCount="14" stopTime="0.00" timeLoss="1735.46" rerouteNo="0" devices="tripinfo_f_0_2.7" vType="type1" speedFactor="1.02" vaporized=""/>
    <tripinfo id="f_0_2.26" depart="213.00" departLane="np2_nt2_0" departPos="9.46" departSpeed="0.00" departDelay="0.27" arrival="1874.00" arrivalLane="nt15_np10_0" arrivalPos="75.00" arrivalSpeed="10.37" duration="1661.00" routeLength="941.62" waitingTime="1521.00" waitingCount="14" stopTime="0.00" timeLoss="1592.92" rerouteNo="0" devices="tripinfo_f_0_2.26" vType="type1" speedFactor="1.16" vaporized=""/>
    <tripinfo id="f_0_2.8" depart="66.00" departLane="np2_nt2_0" departPos="41.07" departSpeed="0.00" departDelay="0.54" arrival="1876.00" arrivalLane="nt15_np10_0" arrivalPos="75.00" arrivalSpeed="10.56" duration="1810.00" routeLength="910.01" waitingTime="1638.00" waitingCount="18" stopTime="0.00" timeLoss="1734.87" rerouteNo="0" devices="tripinfo_f_0_2.8" vType="type1" speedFactor="1.01" vaporized=""/>
    <tripinfo id="f_0_2.27" depart="221.00" departLane="np2_nt2_0" departPos="7.50" departSpeed="0.00" departDelay="0.09" arrival="1881.00" arrivalLane="nt15_np10_0" arrivalPos="75.00" arrivalSpeed="7.87" duration="1660.00" routeLength="943.58" waitingTime="1489.00" waitingCount="16" stopTime="0.00" timeLoss="1566.13" rerouteNo="0" devices="tripinfo_f_0_2.27" vType="type1" speedFactor="0.85" vaporized=""/>
    <tripinfo id="f_0_2.28" depart="230.00" departLane="np2_nt2_0" departPos="43.11" departSpeed="0.00" departDelay="0.90" arrival="1889.00" arrivalLane="nt15_np10_0" arrivalPos="75.00" arrivalSpeed="8.75" duration="1659.00" routeLength="907.97" waitingTime="1476.00" waitingCount="18" stopTime="0.00" timeLoss="1567.07" rerouteNo="0" devices="tripinfo_f_0_2.28" vType="type1" speedFactor="0.83" vaporized=""/>
    <tripinfo id="f_0_2.9" depart="74.00" departLane="np2_nt2_0" departPos="22.23" departSpeed="0.00" departDelay="0.36" arrival="1891.00" arrivalLane="nt15_np10_0" arrivalPos="75.00" arrivalSpeed="7.73" duration="1817.00" routeLength="928.85" waitingTime="1603.00" waitingCount="22" stopTime="0.00" timeLoss="1729.00" rerouteNo="0" devices="tripinfo_f_0_2.9" vType="type1" speedFactor="0.89" vaporized=""/>
    <tripinfo id="f_0_2.10" depart="82.00" departLane="np2_nt2_0" departPos="51.08" departSpeed="0.00" departDelay="0.18" arrival="1909.00" arrivalLane="nt15_np10_0" arrivalPos="75.00" arrivalSpeed="9.11" duration="1827.00" routeLength="900.00" waitingTime="1596.00" waitingCount="24" stopTime="0.00" timeLoss="1736.72" rerouteNo="0" devices="tripinfo_f_0_2.10" vType="type1" speedFactor="0.83" vaporized=""/>
    <tripinfo id="f_0_2.29" depart="238.00" departLane="np2_nt2_0" departPos="53.74" departSpeed="0.00" departDelay="0.72" arrival="1911.00" arrivalLane="nt15_np10_0" arrivalPos="75.00" arrivalSpeed="11.92" duration="1673.00" routeLength="897.34" waitingTime="1481.00" waitingCount="17" stopTime="0.00" timeLoss="1608.57" rerouteNo="0" devices="tripinfo_f_0_2.29" vType="type1" speedFactor="1.17" vaporized=""/>
    <tripinfo id="f_0_2.30" depart="246.00" departLane="np2_nt2_0" departPos="3.01" departSpeed="0.00" departDelay="0.54" arrival="1913.00" arrivalLane="nt15_np10_0" arrivalPos="75.00" arrivalSpeed="10.86" duration="1667.00" routeLength="948.07" waitingTime="1475.00" waitingCount="19" stopTime="0.00" timeLoss="1587.74" rerouteNo="0" devices="tripinfo_f_0_2.30" vType="type1" speedFactor="1.01" vaporized=""/>
    <tripinfo id="f_3_4.0" depart="900.00" departLane="np5_nt4_0" departPos="67.28" departSpeed="0.00" departDelay="0.00" arrival="1934.00" arrivalLane="nt13_np13_1" arrivalPos="67.80" arrivalSpeed="16.62" duration="1034.00" routeLength="1280.61" waitingTime="904.00" waitingCount="4" stopTime="0.00" timeLoss="934.53" rerouteNo="0" devices="tripinfo_f_3_4.0" vType="type1" speedFactor="0.91" vaporized=""/>
    <tripinfo id="f_3_5.2" depart="944.00" departLane="np8_nt16_0" departPos="3.90" departSpeed="0.00" departDelay="0.63" arrival="2011.00" arrivalLane="nt1_np16_0" arrivalPos="67.80" arrivalSpeed="17.17" duration="1067.00" routeLength="1343.98" waitingTime="930.00" waitingCount="7" stopTime="0.00" timeLoss="968.24" rerouteNo="0" devices="tripinfo_f_3_5.2" vType="type1" speedFactor="0.94" vaporized=""/>
    <tripinfo id="f_3_5.3" depart="966.00" departLane="np8_nt16_0" departPos="46.76" departSpeed="0.00" departDelay="0.94" arrival="2016.00" arrivalLane="nt1_np16_0" arrivalPos="67.80" arrivalSpeed="18.13" duration="1050.00" routeLength="1301.12" waitingTime="918.00" waitingCount="8" stopTime="0.00" timeLoss="960.50" rerouteNo="0" devices="tripinfo_f_3_5.3" vType="type1" speedFactor="1.01" vaporized=""/>
    <tripinfo id="f_0_2.11" depart="90.00" departLane="np2_nt2_0" departPos="34.24" departSpeed="0.00" departDelay="0.00" arrival="2177.00" arrivalLane="nt15_np10_0" arrivalPos="75.00" arrivalSpeed="9.01" duration="2087.00" routeLength="916.84" waitingTime="1883.00" waitingCount="24" stopTime="0.00" timeLoss="2010.14" rerouteNo="0" devices="tripinfo_f_0_2.11" vType="type1" speedFactor="1.00" vaporized=""/>
    <tripinfo id="f_0_2.12" depart="99.00" departLane="np2_nt2_0" departPos="44.87" departSpeed="0.00" departDelay="0.82" arrival="2181.00" arrivalLane="nt15_np10_0" arrivalPos="75.00" arrivalSpeed="9.06" duration="2082.00" routeLength="906.21" waitingTime="1857.00" waitingCount="23" stopTime="0.00" timeLoss="1996.13" rerouteNo="0" devices="tripinfo_f_0_2.12" vType="type1" speedFactor="0.89" vaporized=""/>
    <tripinfo id="f_3_5.4" depart="987.00" departLane="np8_nt16_0" departPos="26.20" departSpeed="0.00" departDelay="0.25" arrival="2307.00" arrivalLane="nt1_np16_0" arrivalPos="67.80" arrivalSpeed="17.91" duration="1320.00" routeLength="1321.68" waitingTime="1175.00" waitingCount="8" stopTime="0.00" timeLoss="1221.41" rerouteNo="0" devices="tripinfo_f_3_5.4" vType="type1" speedFactor="0.94" vaporized=""/>
    <tripinfo id="f_0_2.31" depart="254.00" departLane="np2_nt2_0" departPos="1.99" departSpeed="0.00" departDelay="0.36" arrival="2343.00" arrivalLane="nt15_np10_0" arrivalPos="75.00" arrivalSpeed="10.50" duration="2089.00" routeLength="949.09" waitingTime="1901.00" waitingCount="17" stopTime="0.00" timeLoss="2008.15" rerouteNo="0" devices="tripinfo_f_0_2.31" vType="type1" speedFactor="0.99" vaporized=""/>
    <tripinfo id="f_0_2.13" depart="107.00" departLane="np2_nt2_0" departPos="43.45" departSpeed="0.00" departDelay="0.63" arrival="2345.00" arrivalLane="nt15_np10_0" arrivalPos="75.00" arrivalSpeed="12.19" duration="2238.00" routeLength="907.63" waitingTime="2017.00" waitingCount="22" stopTime="0.00" timeLoss="2172.48" rerouteNo="0" devices="tripinfo_f_0_2.13" vType="type1" speedFactor="1.17" vaporized=""/>
    <tripinfo id="f_0_2.32" depart="262.00" departLane="np2_nt2_0" departPos="11.61" departSpeed="0.00" departDelay="0.18" arrival="2414.00" arrivalLane="nt15_np10_0" arrivalPos="75.00" arrivalSpeed="11.68" duration="2152.00" routeLength="939.47" waitingTime="1963.00" waitingCount="14" stopTime="0.00" timeLoss="2082.36" rerouteNo="0" devices="tripinfo_f_0_2.32" vType="type1" speedFactor="1.14" vaporized=""/>
    <tripinfo id="f_0_2.14" depart="115.00" departLane="np2_nt2_0" departPos="38.10" departSpeed="0.00" departDelay="0.45" arrival="2417.00" arrivalLane="nt15_np10_0" arrivalPos="75.00" arrivalSpeed="9.79" duration="2302.00" routeLength="912.98" waitingTime="2079.00" waitingCount="18" stopTime="0.00" timeLoss="2230.31" rerouteNo="0" devices="tripinfo_f_0_2.14" vType="type1" speedFactor="1.06" vaporized=""/>
    <tripinfo id="f_0_0.3" depart="41.00" departLane="np13_nt13_0" departPos="60.55" departSpeed="0.00" departDelay="0.09" arrival="2858.00" arrivalLane="nt4_np5_0" arrivalPos="75.00" arrivalSpeed="21.45" duration="2817.00" routeLength="1287.34" waitingTime="2692.00" waitingCount="10" stopTime="0.00" timeLoss="2735.00" rerouteNo="0" devices="tripinfo_f_0_0.3" vType="type1" speedFactor="1.11" vaporized=""/>
    <tripinfo id="f_3_4.1" depart="922.00" departLane="np5_nt4_0" departPos="8.74" departSpeed="0.00" departDelay="0.31" arrival="2895.00" arrivalLane="nt13_np13_1" arrivalPos="67.80" arrivalSpeed="17.75" duration="1973.00" routeLength="1339.15" waitingTime="1835.00" waitingCount="6" stopTime="0.00" timeLoss="1872.04" rerouteNo="0" devices="tripinfo_f_3_4.1" vType="type1" speedFactor="0.92" vaporized=""/>
    <tripinfo id="f_0_3.10" depart="83.00" departLane="np3_nt3_0" departPos="0.14" departSpeed="0.00" departDelay="1.18" arrival="2942.00" arrivalLane="nt14_np11_0" arrivalPos="75.00" arrivalSpeed="10.60" duration="2859.00" routeLength="950.95" waitingTime="2729.00" waitingCount="7" stopTime="0.00" timeLoss="2779.94" rerouteNo="0" devices="tripinfo_f_0_3.10" vType="type1" speedFactor="1.01" vaporized=""/>
    <tripinfo id="f_0_3.11" depart="90.00" departLane="np3_nt3_0" departPos="2.18" departSpeed="0.00" departDelay="0.00" arrival="2944.00" arrivalLane="nt14_np11_0" arrivalPos="75.00" arrivalSpeed="10.69" duration="2854.00" routeLength="948.91" waitingTime="2723.00" waitingCount="7" stopTime="0.00" timeLoss="2782.83" rerouteNo="0" devices="tripinfo_f_0_3.11" vType="type1" speedFactor="1.12" vaporized=""/>
    <tripinfo id="f_0_3.12" depart="99.00" departLane="np3_nt3_0" departPos="14.16" departSpeed="0.00" departDelay="0.82" arrival="2947.00" arrivalLane="nt14_np11_0" arrivalPos="75.00" arrivalSpeed="9.20" duration="2848.00" routeLength="936.93" waitingTime="2714.00" waitingCount="7" stopTime="0.00" timeLoss="2767.13" rerouteNo="0" devices="tripinfo_f_0_3.12" vType="type1" speedFactor="0.97" vaporized=""/>
    <tripinfo id="f_0_3.13" depart="107.00" departLane="np3_nt3_0" departPos="14.23" departSpeed="0.00" departDelay="0.63" arrival="2949.00" arrivalLane="nt14_np11_0" arrivalPos="75.00" arrivalSpeed="12.14" duration="2842.00" routeLength="936.86" waitingTime="2705.00" waitingCount="8" stopTime="0.00" timeLoss="2770.42" rerouteNo="0" devices="tripinfo_f_0_3.13" vType="type1" speedFactor="1.10" vaporized=""/>
    <tripinfo id="f_0_2.33" depart="271.00" departLane="np2_nt2_0" departPos="36.25" departSpeed="0.00" departDelay="0.99" arrival="2968.00" arrivalLane="nt15_np10_0" arrivalPos="75.00" arrivalSpeed="10.55" duration="2697.00" routeLength="914.83" waitingTime="2489.00" waitingCount="16" stopTime="0.00" timeLoss="2618.66" rerouteNo="0" devices="tripinfo_f_0_2.33" vType="type1" speedFactor="0.99" vaporized=""/>
    <tripinfo id="f_0_3.14" depart="115.00" departLane="np3_nt3_0" departPos="0.09" departSpeed="0.00" departDelay="0.45" arrival="3084.00" arrivalLane="nt14_np11_0" arrivalPos="75.00" arrivalSpeed="6.60" duration="2969.00" routeLength="951.00" waitingTime="2796.00" waitingCount="9" stopTime="0.00" timeLoss="2869.17" rerouteNo="0" devices="tripinfo_f_0_3.14" vType="type1" speedFactor="0.80" vaporized=""/>
    <tripinfo id="f_0_2.15" depart="123.00" departLane="np2_nt2_0" departPos="55.05" departSpeed="0.00" departDelay="0.27" arrival="3194.00" arrivalLane="nt15_np10_0" arrivalPos="75.00" arrivalSpeed="9.85" duration="3071.00" routeLength="896.03" waitingTime="2827.00" waitingCount="20" stopTime="0.00" timeLoss="2993.07" rerouteNo="0" devices="tripinfo_f_0_2.15" vType="type1" speedFactor="0.97" vaporized=""/>
    <tripinfo id="f_0_2.34" depart="279.00" departLane="np2_nt2_0" departPos="7.66" departSpeed="0.00" departDelay="0.81" arrival="3200.00" arrivalLane="nt15_np10_0" arrivalPos="75.00" arrivalSpeed="7.45" duration="2921.00" routeLength="943.42" waitingTime="2696.00" waitingCount="15" stopTime="0.00" timeLoss="2827.58" rerouteNo="0" devices="tripinfo_f_0_2.34" vType="type1" speedFactor="0.85" vaporized=""/>
    <tripinfo id="f_0_2.16" depart="131.00" departLane="np2_nt2_0" departPos="60.15" departSpeed="0.00" departDelay="0.09" arrival="3239.00" arrivalLane="nt15_np10_0" arrivalPos="75.00" arrivalSpeed="9.70" duration="3108.00" routeLength="890.93" waitingTime="2884.00" waitingCount="20" stopTime="0.00" timeLoss="3040.97" rerouteNo="0" devices="tripinfo_f_0_2.16" vType="type1" speedFactor="1.10" vaporized=""/>
    <tripinfo id="f_0_2.36" depart="295.00" departLane="np2_nt2_0" departPos="45.34" departSpeed="0.00" departDelay="0.45" arrival="3343.00" arrivalLane="nt15_np10_0" arrivalPos="75.00" arrivalSpeed="8.66" duration="3048.00" routeLength="905.74" waitingTime="2875.00" waitingCount="15" stopTime="0.00" timeLoss="2959.93" rerouteNo="0" devices="tripinfo_f_0_2.36" vType="type1" speedFactor="0.86" vaporized=""/>
    <tripinfo id="f_1_2.0" depart="300.00" departLane="np2_nt2_0" departPos="15.32" departSpeed="0.00" departDelay="0.00" arrival="3345.00" arrivalLane="nt15_np10_0" arrivalPos="75.00" arrivalSpeed="11.92" duration="3045.00" routeLength="935.76" waitingTime="2884.00" waitingCount="15" stopTime="0.00" timeLoss="2973.39" rerouteNo="0" devices="tripinfo_f_1_2.0" vType="type1" speedFactor="1.10" vaporized=""/>
    <tripinfo id="f_0_3.15" depart="123.00" departLane="np3_nt3_0" departPos="3.32" departSpeed="0.00" departDelay="0.27" arrival="3363.00" arrivalLane="nt14_np11_0" arrivalPos="75.00" arrivalSpeed="10.23" duration="3240.00" routeLength="947.77" waitingTime="3088.00" waitingCount="14" stopTime="0.00" timeLoss="3157.68" rerouteNo="0" devices="tripinfo_f_0_3.15" vType="type1" speedFactor="0.96" vaporized=""/>
    <tripinfo id="f_0_1.0" depart="0.00" departLane="np16_nt1_0" departPos="41.66" departSpeed="0.00" departDelay="0.00" arrival="3373.00" arrivalLane="nt16_np8_0" arrivalPos="75.00" arrivalSpeed="20.06" duration="3373.00" routeLength="1306.22" waitingTime="3104.00" waitingCount="22" stopTime="0.00" timeLoss="3290.38" rerouteNo="0" devices="tripinfo_f_0_1.0" vType="type1" speedFactor="1.10" vaporized=""/>
    <tripinfo id="f_0_3.16" depart="132.00" departLane="np3_nt3_0" departPos="0.00" departSpeed="0.00" departDelay="1.09" arrival="3388.00" arrivalLane="nt14_np11_0" arrivalPos="75.00" arrivalSpeed="7.80" duration="3256.00" routeLength="951.09" waitingTime="3085.00" waitingCount="14" stopTime="0.00" timeLoss="3165.98" rerouteNo="0" devices="tripinfo_f_0_3.16" vType="type1" speedFactor="0.88" vaporized=""/>
    <tripinfo id="f_3_6.1" depart="913.00" departLane="np10_nt15_0" departPos="65.73" departSpeed="0.00" departDelay="0.00" arrival="3527.00" arrivalLane="nt2_np2_0" arrivalPos="64.60" arrivalSpeed="10.04" duration="2614.00" routeLength="885.35" waitingTime="2514.00" waitingCount="4" stopTime="0.00" timeLoss="2536.66" rerouteNo="0" devices="tripinfo_f_3_6.1" vType="type1" speedFactor="0.96" vaporized=""/>
    <tripinfo id="f_0_1.1" depart="14.00" departLane="np16_nt1_0" departPos="53.03" departSpeed="0.00" departDelay="0.36" arrival="-1.00" arrivalLane="" arrivalPos="-1.00" arrivalSpeed="-1.00" duration="3586.00" routeLength="787.31" waitingTime="3365.00" waitingCount="22" stopTime="0.00" timeLoss="3529.85" rerouteNo="0" devices="tripinfo_f_0_1.1" vType="type1" speedFactor="1.00" vaporized="end"/>
    <tripinfo id="f_0_1.2" depart="28.00" departLane="np16_nt1_0" departPos="13.81" departSpeed="0.00" departDelay="0.73" arrival="-1.00" arrivalLane="" arrivalPos="-1.00" arrivalSpeed="-1.00" duration="3572.00" routeLength="849.04" waitingTime="3408.00" waitingCount="20" stopTime="0.00" timeLoss="3509.05" rerouteNo="0" devices="tripinfo_f_0_1.2" vType="type1" speedFactor="0.96" vaporized="end"/>
    <tripinfo id="f_0_1.3" depart="41.00" departLane="np16_nt1_0" departPos="0.10" departSpeed="0.00" departDelay="0.09" arrival="-1.00" arrivalLane="" arrivalPos="-1.00" arrivalSpeed="-1.00" duration="3559.00" routeLength="632.74" waitingTime="3417.00" waitingCount="11" stopTime="0.00" timeLoss="3520.54" rerouteNo="0" devices="tripinfo_f_0_1.3" vType="type1" speedFactor="1.03" vaporized="end"/>
    <tripinfo id="f_0_0.4" depart="55.00" departLane="np13_nt13_0" departPos="25.32" departSpeed="0.00" departDelay="0.46" arrival="-1.00" arrivalLane="" arrivalPos="-1.00" arrivalSpeed="-1.00" duration="3545.00" routeLength="1029.71" waitingTime="3433.00" waitingCount="10" stopTime="0.00" timeLoss="3475.20" rerouteNo="0" devices="tripinfo_f_0_0.4" vType="type1" speedFactor="1.11" vaporized="end"/>
    <tripinfo id="f_0_1.4" depart="55.00" departLane="np16_nt1_0" departPos="14.70" departSpeed="0.00" departDelay="0.46" arrival="-1.00" arrivalLane="" arrivalPos="-1.00" arrivalSpeed="-1.00" duration="3545.00" routeLength="535.64" waitingTime="3403.00" waitingCount="15" stopTime="0.00" timeLoss="3517.09" rerouteNo="0" devices="tripinfo_f_0_1.4" vType="type1" speedFactor="1.14" vaporized="end"/>
    <tripinfo id="f_0_0.5" depart="69.00" departLane="np13_nt13_0" departPos="16.02" departSpeed="0.00" departDelay="0.82" arrival="-1.00" arrivalLane="" arrivalPos="-1.00" arrivalSpeed="-1.00" duration="3531.00" routeLength="1031.51" waitingTime="3409.00" waitingCount="11" stopTime="0.00" timeLoss="3461.27" rerouteNo="0" devices="tripinfo_f_0_0.5" vType="type1" speedFactor="1.10" vaporized="end"/>
    <tripinfo id="f_0_1.5" depart="69.00" departLane="np16_nt1_0" departPos="7.50" departSpeed="0.00" departDelay="0.82" arrival="-1.00" arrivalLane="" arrivalPos="-1.00" arrivalSpeed="-1.00" duration="3531.00" routeLength="617.84" waitingTime="3388.00" waitingCount="12" stopTime="0.00" timeLoss="3493.16" rerouteNo="0" devices="tripinfo_f_0_1.5" vType="type1" speedFactor="1.03" vaporized="end"/>
    <tripinfo id="f_0_0.6" depart="82.00" departLane="np13_nt13_0" departPos="21.07" departSpeed="0.00" departDelay="0.18" arrival="-1.00" arrivalLane="" arrivalPos="-1.00" arrivalSpeed="-1.00" duration="3518.00" routeLength="1018.96" waitingTime="3391.00" waitingCount="11" stopTime="0.00" timeLoss="3445.57" rerouteNo="0" devices="tripinfo_f_0_0.6" vType="type1" speedFactor="1.06" vaporized="end"/>
    <tripinfo id="f_0_1.6" depart="82.00" departLane="np16_nt1_0" departPos="18.39" departSpeed="0.00" departDelay="0.18" arrival="-1.00" arrivalLane="" arrivalPos="-1.00" arrivalSpeed="-1.00" duration="3518.00" routeLength="576.95" waitingTime="3375.00" waitingCount="12" stopTime="0.00" timeLoss="3480.35" rerouteNo="0" devices="tripinfo_f_0_1.6" vType="type1" speedFactor="0.95" vaporized="end"/>
    <tripinfo id="f_0_0.7" depart="96.00" departLane="np13_nt13_0" departPos="57.55" departSpeed="0.00" departDelay="0.55" arrival="-1.00" arrivalLane="" arrivalPos="-1.00" arrivalSpeed="-1.00" duration="3504.00" routeLength="974.98" waitingTime="3363.00" waitingCount="12" stopTime="0.00" timeLoss="3423.35" rerouteNo="0" devices="tripinfo_f_0_0.7" vType="type1" speedFactor="0.91" vaporized="end"/>