<?xml version="1.0" encoding="UTF-8"?>

<!-- generated on 2023-08-30 18:40:17 by Eclipse SUMO libsumo Version 1.18.0
<configuration xmlns:xsi="http://www.w3.org/2001/XMLSchema-instance" xsi:noNamespaceSchemaLocation="http://sumo.dlr.de/xsd/libsumoConfiguration.xsd">

    <input>
        <net-file value="/home/stefan/RESCO/./environments/arterial4x4/arterial4x4.net.xml"/>
        <route-files value="/home/stefan/RESCO/./environments/arterial4x4/arterial4x4_41.rou.xml"/>
    </input>

    <output>
        <tripinfo-output value="/home/stefan/results/RAINBOW-tr0-arterial4x4-0-drq_norm-wait_norm/tripinfo_41.xml"/>
        <tripinfo-output.write-unfinished value="true"/>
    </output>

    <processing>
        <time-to-teleport value="-1"/>
    </processing>

    <report>
        <no-warnings value="True"/>
        <no-step-log value="True"/>
    </report>

    <random_number>
        <random value="true"/>
    </random_number>

</configuration>
-->

<tripinfos xmlns:xsi="http://www.w3.org/2001/XMLSchema-instance" xsi:noNamespaceSchemaLocation="http://sumo.dlr.de/xsd/tripinfo_file.xsd">
    <tripinfo id="f_0_3.0" depart="0.00" departLane="np3_nt3_0" departPos="5.61" departSpeed="0.00" departDelay="0.00" arrival="122.00" arrivalLane="nt14_np11_0" arrivalPos="75.00" arrivalSpeed="10.55" duration="122.00" routeLength="945.48" waitingTime="16.00" waitingCount="5" stopTime="0.00" timeLoss="48.00" rerouteNo="0" devices="tripinfo_f_0_3.0" vType="type1" speedFactor="1.08" vaporized=""/>
    <tripinfo id="f_0_3.1" depart="9.00" departLane="np3_nt3_0" departPos="37.75" departSpeed="0.00" departDelay="0.82" arrival="168.00" arrivalLane="nt14_np11_0" arrivalPos="75.00" arrivalSpeed="8.86" duration="159.00" routeLength="913.34" waitingTime="54.00" waitingCount="5" stopTime="0.00" timeLoss="78.46" rerouteNo="0" devices="tripinfo_f_0_3.1" vType="type1" speedFactor="0.95" vaporized=""/>
    <tripinfo id="f_0_3.2" depart="17.00" departLane="np3_nt3_0" departPos="24.01" departSpeed="0.00" departDelay="0.64" arrival="202.00" arrivalLane="nt14_np11_0" arrivalPos="75.00" arrivalSpeed="10.25" duration="185.00" routeLength="927.08" waitingTime="78.00" waitingCount="5" stopTime="0.00" timeLoss="112.01" rerouteNo="0" devices="tripinfo_f_0_3.2" vType="type1" speedFactor="1.07" vaporized=""/>
    <tripinfo id="f_0_3.3" depart="25.00" departLane="np3_nt3_0" departPos="38.97" departSpeed="0.00" departDelay="0.45" arrival="203.00" arrivalLane="nt14_np11_0" arrivalPos="75.00" arrivalSpeed="11.84" duration="178.00" routeLength="912.12" waitingTime="70.00" waitingCount="7" stopTime="0.00" timeLoss="110.77" rerouteNo="0" devices="tripinfo_f_0_3.3" vType="type1" speedFactor="1.13" vaporized=""/>
    <tripinfo id="f_0_3.4" depart="33.00" departLane="np3_nt3_0" departPos="37.75" departSpeed="0.00" departDelay="0.27" arrival="213.00" arrivalLane="nt14_np11_0" arrivalPos="75.00" arrivalSpeed="9.63" duration="180.00" routeLength="913.34" waitingTime="57.00" waitingCount="5" stopTime="0.00" timeLoss="98.38" rerouteNo="0" devices="tripinfo_f_0_3.4" vType="type1" speedFactor="0.94" vaporized=""/>
    <tripinfo id="f_0_3.5" depart="41.00" departLane="np3_nt3_0" departPos="17.39" departSpeed="0.00" departDelay="0.09" arrival="215.00" arrivalLane="nt14_np11_0" arrivalPos="75.00" arrivalSpeed="10.30" duration="174.00" routeLength="933.70" waitingTime="50.00" waitingCount="6" stopTime="0.00" timeLoss="98.49" rerouteNo="0" devices="tripinfo_f_0_3.5" vType="type1" speedFactor="1.04" vaporized=""/>
    <tripinfo id="f_0_2.0" depart="0.00" departLane="np2_nt2_0" departPos="18.22" departSpeed="0.00" departDelay="0.00" arrival="252.00" arrivalLane="nt15_np10_0" arrivalPos="75.00" arrivalSpeed="9.50" duration="252.00" routeLength="932.86" waitingTime="144.00" waitingCount="5" stopTime="0.00" timeLoss="167.72" rerouteNo="0" devices="tripinfo_f_0_2.0" vType="type1" speedFactor="0.93" vaporized=""/>
    <tripinfo id="f_0_0.0" depart="0.00" departLane="np13_nt13_0" departPos="42.88" departSpeed="0.00" departDelay="0.00" arrival="254.00" arrivalLane="nt4_np5_0" arrivalPos="75.00" arrivalSpeed="23.19" duration="254.00" routeLength="1305.01" waitingTime="146.00" waitingCount="5" stopTime="0.00" timeLoss="175.74" rerouteNo="0" devices="tripinfo_f_0_0.0" vType="type1" speedFactor="1.17" vaporized=""/>
    <tripinfo id="f_0_2.1" depart="9.00" departLane="np2_nt2_0" departPos="30.73" departSpeed="0.00" departDelay="0.82" arrival="254.00" arrivalLane="nt15_np10_0" arrivalPos="75.00" arrivalSpeed="11.15" duration="245.00" routeLength="920.35" waitingTime="143.00" waitingCount="6" stopTime="0.00" timeLoss="173.49" rerouteNo="0" devices="tripinfo_f_0_2.1" vType="type1" speedFactor="1.08" vaporized=""/>
    <tripinfo id="f_0_3.6" depart="50.00" departLane="np3_nt3_0" departPos="16.31" departSpeed="0.00" departDelay="0.91" arrival="306.00" arrivalLane="nt14_np11_0" arrivalPos="75.00" arrivalSpeed="11.13" duration="256.00" routeLength="934.78" waitingTime="138.00" waitingCount="8" stopTime="0.00" timeLoss="189.88" rerouteNo="0" devices="tripinfo_f_0_3.6" vType="type1" speedFactor="1.19" vaporized=""/>
    <tripinfo id="f_0_0.1" depart="14.00" departLane="np13_nt13_0" departPos="36.48" departSpeed="0.00" departDelay="0.36" arrival="330.00" arrivalLane="nt4_np5_0" arrivalPos="75.00" arrivalSpeed="18.51" duration="316.00" routeLength="1311.41" waitingTime="195.00" waitingCount="5" stopTime="0.00" timeLoss="226.39" rerouteNo="0" devices="tripinfo_f_0_0.1" vType="type1" speedFactor="1.02" vaporized=""/>
    <tripinfo id="f_0_0.2" depart="28.00" departLane="np13_nt13_0" departPos="6.23" departSpeed="0.00" departDelay="0.73" arrival="332.00" arrivalLane="nt4_np5_0" arrivalPos="75.00" arrivalSpeed="20.38" duration="304.00" routeLength="1341.66" waitingTime="176.00" waitingCount="7" stopTime="0.00" timeLoss="220.86" rerouteNo="0" devices="tripinfo_f_0_0.2" vType="type1" speedFactor="1.12" vaporized=""/>
    <tripinfo id="f_0_2.2" depart="17.00" departLane="np2_nt2_0" departPos="48.91" departSpeed="0.00" departDelay="0.64" arrival="348.00" arrivalLane="nt15_np10_0" arrivalPos="75.00" arrivalSpeed="9.76" duration="331.00" routeLength="902.17" waitingTime="224.00" waitingCount="5" stopTime="0.00" timeLoss="253.06" rerouteNo="0" devices="tripinfo_f_0_2.2" vType="type1" speedFactor="0.97" vaporized=""/>
    <tripinfo id="f_0_2.3" depart="25.00" departLane="np2_nt2_0" departPos="52.55" departSpeed="0.00" departDelay="0.45" arrival="350.00" arrivalLane="nt15_np10_0" arrivalPos="75.00" arrivalSpeed="11.48" duration="325.00" routeLength="898.53" waitingTime="218.00" waitingCount="5" stopTime="0.00" timeLoss="255.52" rerouteNo="0" devices="tripinfo_f_0_2.3" vType="type1" speedFactor="1.09" vaporized=""/>
    <tripinfo id="f_0_3.7" depart="58.00" departLane="np3_nt3_0" departPos="11.66" departSpeed="0.00" departDelay="0.73" arrival="358.00" arrivalLane="nt14_np11_0" arrivalPos="75.00" arrivalSpeed="9.16" duration="300.00" routeLength="939.43" waitingTime="164.00" waitingCount="8" stopTime="0.00" timeLoss="215.24" rerouteNo="0" devices="tripinfo_f_0_3.7" vType="type1" speedFactor="0.93" vaporized=""/>
    <tripinfo id="f_0_3.8" depart="66.00" departLane="np3_nt3_0" departPos="3.92" departSpeed="0.00" departDelay="0.54" arrival="360.00" arrivalLane="nt14_np11_0" arrivalPos="75.00" arrivalSpeed="12.14" duration="294.00" routeLength="947.17" waitingTime="152.00" waitingCount="8" stopTime="0.00" timeLoss="227.53" rerouteNo="0" devices="tripinfo_f_0_3.8" vType="type1" speedFactor="1.19" vaporized=""/>
    <tripinfo id="f_0_3.9" depart="74.00" departLane="np3_nt3_0" departPos="0.74" departSpeed="0.00" departDelay="0.36" arrival="379.00" arrivalLane="nt14_np11_0" arrivalPos="75.00" arrivalSpeed="8.92" duration="305.00" routeLength="950.35" waitingTime="164.00" waitingCount="8" stopTime="0.00" timeLoss="214.96" rerouteNo="0" devices="tripinfo_f_0_3.9" vType="type1" speedFactor="0.89" vaporized=""/>
    <tripinfo id="f_0_0.3" depart="41.00" departLane="np13_nt13_0" departPos="42.85" departSpeed="0.00" departDelay="0.09" arrival="423.00" arrivalLane="nt4_np5_0" arrivalPos="75.00" arrivalSpeed="16.78" duration="382.00" routeLength="1305.04" waitingTime="236.00" waitingCount="7" stopTime="0.00" timeLoss="282.91" rerouteNo="0" devices="tripinfo_f_0_0.3" vType="type1" speedFactor="0.92" vaporized=""/>
    <tripinfo id="f_0_0.4" depart="55.00" departLane="np13_nt13_0" departPos="15.33" departSpeed="0.00" departDelay="0.46" arrival="425.00" arrivalLane="nt4_np5_0" arrivalPos="75.00" arrivalSpeed="17.81" duration="370.00" routeLength="1332.56" waitingTime="217.00" waitingCount="8" stopTime="0.00" timeLoss="276.95" rerouteNo="0" devices="tripinfo_f_0_0.4" vType="type1" speedFactor="1.00" vaporized=""/>
    <tripinfo id="f_0_3.10" depart="82.00" departLane="np3_nt3_0" departPos="24.12" departSpeed="0.00" departDelay="0.18" arrival="446.00" arrivalLane="nt14_np11_0" arrivalPos="75.00" arrivalSpeed="11.05" duration="364.00" routeLength="926.97" waitingTime="227.00" waitingCount="9" stopTime="0.00" timeLoss="294.05" rerouteNo="0" devices="tripinfo_f_0_3.10" vType="type1" speedFactor="1.10" vaporized=""/>
    <tripinfo id="f_0_0.5" depart="69.00" departLane="np13_nt13_0" departPos="5.22" departSpeed="0.00" departDelay="0.82" arrival="449.00" arrivalLane="nt4_np5_0" arrivalPos="75.00" arrivalSpeed="18.31" duration="380.00" routeLength="1342.67" waitingTime="224.00" waitingCount="8" stopTime="0.00" timeLoss="285.72" rerouteNo="0" devices="tripinfo_f_0_0.5" vType="type1" speedFactor="0.99" vaporized=""/>
    <tripinfo id="f_0_2.4" depart="33.00" departLane="np2_nt2_0" departPos="41.74" departSpeed="0.00" departDelay="0.27" arrival="488.00" arrivalLane="nt15_np10_0" arrivalPos="75.00" arrivalSpeed="8.98" duration="455.00" routeLength="909.34" waitingTime="344.00" waitingCount="6" stopTime="0.00" timeLoss="375.82" rerouteNo="0" devices="tripinfo_f_0_2.4" vType="type1" speedFactor="0.97" vaporized=""/>
    <tripinfo id="f_0_0.6" depart="82.00" departLane="np13_nt13_0" departPos="41.89" departSpeed="0.00" departDelay="0.18" arrival="488.00" arrivalLane="nt4_np5_0" arrivalPos="75.00" arrivalSpeed="19.30" duration="406.00" routeLength="1306.00" waitingTime="247.00" waitingCount="8" stopTime="0.00" timeLoss="313.08" rerouteNo="0" devices="tripinfo_f_0_0.6" vType="type1" speedFactor="0.98" vaporized=""/>
    <tripinfo id="f_0_2.5" depart="41.00" departLane="np2_nt2_0" departPos="25.66" departSpeed="0.00" departDelay="0.09" arrival="491.00" arrivalLane="nt15_np10_0" arrivalPos="75.00" arrivalSpeed="8.94" duration="450.00" routeLength="925.42" waitingTime="320.00" waitingCount="7" stopTime="0.00" timeLoss="359.01" rerouteNo="0" devices="tripinfo_f_0_2.5" vType="type1" speedFactor="0.86" vaporized=""/>
    <tripinfo id="f_0_0.7" depart="96.00" departLane="np13_nt13_0" departPos="51.77" departSpeed="0.00" departDelay="0.55" arrival="491.00" arrivalLane="nt4_np5_0" arrivalPos="75.00" arrivalSpeed="17.05" duration="395.00" routeLength="1296.12" waitingTime="223.00" waitingCount="9" stopTime="0.00" timeLoss="289.04" rerouteNo="0" devices="tripinfo_f_0_0.7" vType="type1" speedFactor="0.86" vaporized=""/>
    <tripinfo id="f_0_2.6" depart="50.00" departLane="np2_nt2_0" departPos="52.60" departSpeed="0.00" departDelay="0.91" arrival="501.00" arrivalLane="nt15_np10_0" arrivalPos="75.00" arrivalSpeed="10.30" duration="451.00" routeLength="898.48" waitingTime="335.00" waitingCount="9" stopTime="0.00" timeLoss="381.90" rerouteNo="0" devices="tripinfo_f_0_2.6" vType="type1" speedFactor="1.09" vaporized=""/>
    <tripinfo id="f_0_2.7" depart="58.00" departLane="np2_nt2_0" departPos="50.60" departSpeed="0.00" departDelay="0.73" arrival="503.00" arrivalLane="nt15_np10_0" arrivalPos="75.00" arrivalSpeed="10.54" duration="445.00" routeLength="900.48" waitingTime="322.00" waitingCount="10" stopTime="0.00" timeLoss="379.38" rerouteNo="0" devices="tripinfo_f_0_2.7" vType="type1" speedFactor="1.15" vaporized=""/>
    <tripinfo id="f_0_0.8" depart="110.00" departLane="np13_nt13_0" departPos="59.15" departSpeed="0.00" departDelay="0.91" arrival="503.00" arrivalLane="nt4_np5_0" arrivalPos="75.00" arrivalSpeed="21.19" duration="393.00" routeLength="1288.74" waitingTime="233.00" waitingCount="11" stopTime="0.00" timeLoss="310.92" rerouteNo="0" devices="tripinfo_f_0_0.8" vType="type1" speedFactor="1.09" vaporized=""/>
    <tripinfo id="f_0_0.9" depart="123.00" departLane="np13_nt13_0" departPos="58.88" departSpeed="0.00" departDelay="0.28" arrival="528.00" arrivalLane="nt4_np5_0" arrivalPos="75.00" arrivalSpeed="21.35" duration="405.00" routeLength="1289.01" waitingTime="264.00" waitingCount="9" stopTime="0.00" timeLoss="323.46" rerouteNo="0" devices="tripinfo_f_0_0.9" vType="type1" speedFactor="1.10" vaporized=""/>
    <tripinfo id="f_0_0.10" depart="137.00" departLane="np13_nt13_0" departPos="24.26" departSpeed="0.00" departDelay="0.64" arrival="535.00" arrivalLane="nt4_np5_0" arrivalPos="75.00" arrivalSpeed="15.59" duration="398.00" routeLength="1323.63" waitingTime="232.00" waitingCount="8" stopTime="0.00" timeLoss="294.05" rerouteNo="0" devices="tripinfo_f_0_0.10" vType="type1" speedFactor="0.89" vaporized=""/>
    <tripinfo id="f_0_0.11" depart="150.00" departLane="np13_nt13_0" departPos="24.43" departSpeed="0.00" departDelay="0.00" arrival="547.00" arrivalLane="nt4_np5_0" arrivalPos="75.00" arrivalSpeed="19.31" duration="397.00" routeLength="1323.46" waitingTime="236.00" waitingCount="11" stopTime="0.00" timeLoss="308.02" rerouteNo="0" devices="tripinfo_f_0_0.11" vType="type1" speedFactor="1.03" vaporized=""/>
    <tripinfo id="f_0_3.11" depart="90.00" departLane="np3_nt3_0" departPos="32.66" departSpeed="0.00" departDelay="0.00" arrival="569.00" arrivalLane="nt14_np11_0" arrivalPos="75.00" arrivalSpeed="7.59" duration="479.00" routeLength="918.43" waitingTime="337.00" waitingCount="10" stopTime="0.00" timeLoss="391.15" rerouteNo="0" devices="tripinfo_f_0_3.11" vType="type1" speedFactor="0.88" vaporized=""/>
    <tripinfo id="f_0_3.12" depart="99.00" departLane="np3_nt3_0" departPos="32.38" departSpeed="0.00" departDelay="0.82" arrival="570.00" arrivalLane="nt14_np11_0" arrivalPos="75.00" arrivalSpeed="9.89" duration="471.00" routeLength="918.71" waitingTime="327.00" waitingCount="9" stopTime="0.00" timeLoss="398.24" rerouteNo="0" devices="tripinfo_f_0_3.12" vType="type1" speedFactor="1.05" vaporized=""/>
    <tripinfo id="f_0_3.13" depart="107.00" departLane="np3_nt3_0" departPos="11.03" departSpeed="0.00" departDelay="0.63" arrival="577.00" arrivalLane="nt14_np11_0" arrivalPos="75.00" arrivalSpeed="9.22" duration="470.00" routeLength="940.06" waitingTime="320.00" waitingCount="12" stopTime="0.00" timeLoss="394.55" rerouteNo="0" devices="tripinfo_f_0_3.13" vType="type1" speedFactor="1.05" vaporized=""/>
    <tripinfo id="f_0_0.12" depart="164.00" departLane="np13_nt13_0" departPos="29.06" departSpeed="0.00" departDelay="0.37" arrival="579.00" arrivalLane="nt4_np5_0" arrivalPos="75.00" arrivalSpeed="20.64" duration="415.00" routeLength="1318.83" waitingTime="263.00" waitingCount="13" stopTime="0.00" timeLoss="330.85" rerouteNo="0" devices="tripinfo_f_0_0.12" vType="type1" speedFactor="1.09" vaporized=""/>
    <tripinfo id="f_0_2.8" depart="66.00" departLane="np2_nt2_0" departPos="50.40" departSpeed="0.00" departDelay="0.54" arrival="587.00" arrivalLane="nt15_np10_0" arrivalPos="75.00" arrivalSpeed="9.40" duration="521.00" routeLength="900.68" waitingTime="391.00" waitingCount="12" stopTime="0.00" timeLoss="445.56" rerouteNo="0" devices="tripinfo_f_0_2.8" vType="type1" speedFactor="0.99" vaporized=""/>
    <tripinfo id="f_0_0.13" depart="178.00" departLane="np13_nt13_0" departPos="11.26" departSpeed="0.00" departDelay="0.73" arrival="588.00" arrivalLane="nt4_np5_0" arrivalPos="75.00" arrivalSpeed="19.94" duration="410.00" routeLength="1336.63" waitingTime="256.00" waitingCount="12" stopTime="0.00" timeLoss="326.24" rerouteNo="0" devices="tripinfo_f_0_0.13" vType="type1" speedFactor="1.11" vaporized=""/>
    <tripinfo id="f_0_3.14" depart="115.00" departLane="np3_nt3_0" departPos="29.62" departSpeed="0.00" departDelay="0.45" arrival="593.00" arrivalLane="nt14_np11_0" arrivalPos="75.00" arrivalSpeed="9.67" duration="478.00" routeLength="921.47" waitingTime="335.00" waitingCount="13" stopTime="0.00" timeLoss="398.67" rerouteNo="0" devices="tripinfo_f_0_3.14" vType="type1" speedFactor="0.98" vaporized=""/>
    <tripinfo id="f_0_3.15" depart="123.00" departLane="np3_nt3_0" departPos="25.44" departSpeed="0.00" departDelay="0.27" arrival="594.00" arrivalLane="nt14_np11_0" arrivalPos="75.00" arrivalSpeed="11.28" duration="471.00" routeLength="925.65" waitingTime="322.00" waitingCount="12" stopTime="0.00" timeLoss="404.42" rerouteNo="0" devices="tripinfo_f_0_3.15" vType="type1" speedFactor="1.16" vaporized=""/>
    <tripinfo id="f_0_2.23" depart="189.00" departLane="np2_nt2_0" departPos="20.86" departSpeed="0.00" departDelay="0.81" arrival="612.00" arrivalLane="nt15_np10_0" arrivalPos="75.00" arrivalSpeed="10.05" duration="423.00" routeLength="930.22" waitingTime="281.00" waitingCount="16" stopTime="0.00" timeLoss="351.10" rerouteNo="0" devices="tripinfo_f_0_2.23" vType="type1" speedFactor="1.09" vaporized=""/>
    <tripinfo id="f_0_1.0" depart="0.00" departLane="np16_nt1_0" departPos="40.48" departSpeed="0.00" departDelay="0.00" arrival="613.00" arrivalLane="nt16_np8_0" arrivalPos="75.00" arrivalSpeed="17.56" duration="613.00" routeLength="1307.40" waitingTime="447.00" waitingCount="14" stopTime="0.00" timeLoss="519.29" rerouteNo="0" devices="tripinfo_f_0_1.0" vType="type1" speedFactor="0.98" vaporized=""/>
    <tripinfo id="f_0_1.1" depart="14.00" departLane="np16_nt1_0" departPos="41.17" departSpeed="0.00" departDelay="0.36" arrival="615.00" arrivalLane="nt16_np8_0" arrivalPos="75.00" arrivalSpeed="22.13" duration="601.00" routeLength="1306.71" waitingTime="422.00" waitingCount="17" stopTime="0.00" timeLoss="519.17" rerouteNo="0" devices="tripinfo_f_0_1.1" vType="type1" speedFactor="1.12" vaporized=""/>
    <tripinfo id="f_0_2.25" depart="205.00" departLane="np2_nt2_0" departPos="39.35" departSpeed="0.00" departDelay="0.45" arrival="618.00" arrivalLane="nt15_np10_0" arrivalPos="75.00" arrivalSpeed="9.52" duration="413.00" routeLength="911.73" waitingTime="277.00" waitingCount="11" stopTime="0.00" timeLoss="332.59" rerouteNo="0" devices="tripinfo_f_0_2.25" vType="type1" speedFactor="0.94" vaporized=""/>
    <tripinfo id="f_0_3.16" depart="131.00" departLane="np3_nt3_0" departPos="11.35" departSpeed="0.00" departDelay="0.09" arrival="646.00" arrivalLane="nt14_np11_0" arrivalPos="75.00" arrivalSpeed="12.20" duration="515.00" routeLength="939.74" waitingTime="360.00" waitingCount="12" stopTime="0.00" timeLoss="444.84" rerouteNo="0" devices="tripinfo_f_0_3.16" vType="type1" speedFactor="1.12" vaporized=""/>
    <tripinfo id="f_0_1.2" depart="28.00" departLane="np16_nt1_0" departPos="0.92" departSpeed="0.00" departDelay="0.73" arrival="648.00" arrivalLane="nt16_np8_0" arrivalPos="75.00" arrivalSpeed="17.79" duration="620.00" routeLength="1346.96" waitingTime="426.00" waitingCount="16" stopTime="0.00" timeLoss="519.70" rerouteNo="0" devices="tripinfo_f_0_1.2" vType="type1" speedFactor="0.93" vaporized=""/>
    <tripinfo id="f_0_1.3" depart="41.00" departLane="np16_nt1_0" departPos="1.52" departSpeed="0.00" departDelay="0.09" arrival="650.00" arrivalLane="nt16_np8_0" arrivalPos="75.00" arrivalSpeed="19.24" duration="609.00" routeLength="1346.36" waitingTime="428.00" waitingCount="15" stopTime="0.00" timeLoss="523.14" rerouteNo="0" devices="tripinfo_f_0_1.3" vType="type1" speedFactor="1.08" vaporized=""/>
    <tripinfo id="f_0_3.17" depart="140.00" departLane="np3_nt3_0" departPos="59.23" departSpeed="0.00" departDelay="0.91" arrival="651.00" arrivalLane="nt14_np11_0" arrivalPos="75.00" arrivalSpeed="7.58" duration="511.00" routeLength="891.86" waitingTime="348.00" waitingCount="13" stopTime="0.00" timeLoss="429.26" rerouteNo="0" devices="tripinfo_f_0_3.17" vType="type1" speedFactor="0.91" vaporized=""/>
    <tripinfo id="f_0_1.7" depart="96.00" departLane="np16_nt1_0" departPos="40.60" departSpeed="0.00" departDelay="0.55" arrival="663.00" arrivalLane="nt16_np8_0" arrivalPos="75.00" arrivalSpeed="18.57" duration="567.00" routeLength="1307.28" waitingTime="386.00" waitingCount="16" stopTime="0.00" timeLoss="477.49" rerouteNo="0" devices="tripinfo_f_0_1.7" vType="type1" speedFactor="1.02" vaporized=""/>
    <tripinfo id="f_0_0.14" depart="191.00" departLane="np13_nt13_0" departPos="55.74" departSpeed="0.00" departDelay="0.10" arrival="664.00" arrivalLane="nt4_np5_0" arrivalPos="75.00" arrivalSpeed="20.70" duration="473.00" routeLength="1292.15" waitingTime="348.00" waitingCount="7" stopTime="0.00" timeLoss="386.50" rerouteNo="0" devices="tripinfo_f_0_0.14" vType="type1" speedFactor="1.05" vaporized=""/>
    <tripinfo id="f_0_0.15" depart="205.00" departLane="np13_nt13_0" departPos="45.12" departSpeed="0.00" departDelay="0.46" arrival="666.00" arrivalLane="nt4_np5_0" arrivalPos="75.00" arrivalSpeed="18.65" duration="461.00" routeLength="1302.77" waitingTime="321.00" waitingCount="8" stopTime="0.00" timeLoss="374.70" rerouteNo="0" devices="tripinfo_f_0_0.15" vType="type1" speedFactor="1.05" vaporized=""/>
    <tripinfo id="f_0_3.18" depart="148.00" departLane="np3_nt3_0" departPos="26.08" departSpeed="0.00" departDelay="0.72" arrival="687.00" arrivalLane="nt14_np11_0" arrivalPos="75.00" arrivalSpeed="8.73" duration="539.00" routeLength="925.01" waitingTime="387.00" waitingCount="13" stopTime="0.00" timeLoss="459.99" rerouteNo="0" devices="tripinfo_f_0_3.18" vType="type1" speedFactor="0.98" vaporized=""/>
    <tripinfo id="f_0_3.19" depart="156.00" departLane="np3_nt3_0" departPos="19.17" departSpeed="0.00" departDelay="0.54" arrival="733.00" arrivalLane="nt14_np11_0" arrivalPos="75.00" arrivalSpeed="9.89" duration="577.00" routeLength="931.92" waitingTime="415.00" waitingCount="14" stopTime="0.00" timeLoss="494.59" rerouteNo="0" devices="tripinfo_f_0_3.19" vType="type1" speedFactor="0.95" vaporized=""/>
    <tripinfo id="f_0_3.20" depart="164.00" departLane="np3_nt3_0" departPos="12.56" departSpeed="0.00" departDelay="0.36" arrival="736.00" arrivalLane="nt14_np11_0" arrivalPos="75.00" arrivalSpeed="9.69" duration="572.00" routeLength="938.53" waitingTime="409.00" waitingCount="12" stopTime="0.00" timeLoss="482.62" rerouteNo="0" devices="tripinfo_f_0_3.20" vType="type1" speedFactor="0.89" vaporized=""/>
    <tripinfo id="f_0_3.21" depart="172.00" departLane="np3_nt3_0" departPos="55.79" departSpeed="0.00" departDelay="0.18" arrival="737.00" arrivalLane="nt14_np11_0" arrivalPos="75.00" arrivalSpeed="10.73" duration="565.00" routeLength="895.30" waitingTime="409.00" waitingCount="13" stopTime="0.00" timeLoss="492.23" rerouteNo="0" devices="tripinfo_f_0_3.21" vType="type1" speedFactor="1.02" vaporized=""/>
    <tripinfo id="f_0_3.22" depart="180.00" departLane="np3_nt3_0" departPos="60.00" departSpeed="0.00" departDelay="0.00" arrival="740.00" arrivalLane="nt14_np11_0" arrivalPos="75.00" arrivalSpeed="7.90" duration="560.00" routeLength="891.09" waitingTime="415.00" waitingCount="10" stopTime="0.00" timeLoss="478.50" rerouteNo="0" devices="tripinfo_f_0_3.22" vType="type1" speedFactor="0.91" vaporized=""/>
    <tripinfo id="f_0_0.16" depart="219.00" departLane="np13_nt13_0" departPos="67.30" departSpeed="0.00" departDelay="0.82" arrival="744.00" arrivalLane="nt4_np5_0" arrivalPos="75.00" arrivalSpeed="15.57" duration="525.00" routeLength="1280.59" waitingTime="352.00" waitingCount="11" stopTime="0.00" timeLoss="415.84" rerouteNo="0" devices="tripinfo_f_0_0.16" vType="type1" speedFactor="0.82" vaporized=""/>
    <tripinfo id="f_0_3.23" depart="189.00" departLane="np3_nt3_0" departPos="27.01" departSpeed="0.00" departDelay="0.81" arrival="751.00" arrivalLane="nt14_np11_0" arrivalPos="75.00" arrivalSpeed="11.72" duration="562.00" routeLength="924.08" waitingTime="431.00" waitingCount="11" stopTime="0.00" timeLoss="489.58" rerouteNo="0" devices="tripinfo_f_0_3.23" vType="type1" speedFactor="1.07" vaporized=""/>
    <tripinfo id="f_0_3.24" depart="197.00" departLane="np3_nt3_0" departPos="54.38" departSpeed="0.00" departDelay="0.63" arrival="754.00" arrivalLane="nt14_np11_0" arrivalPos="75.00" arrivalSpeed="10.73" duration="557.00" routeLength="896.71" waitingTime="426.00" waitingCount="11" stopTime="0.00" timeLoss="483.62" rerouteNo="0" devices="tripinfo_f_0_3.24" vType="type1" speedFactor="1.02" vaporized=""/>
    <tripinfo id="f_0_0.17" depart="232.00" departLane="np13_nt13_0" departPos="38.49" departSpeed="0.00" departDelay="0.19" arrival="761.00" arrivalLane="nt4_np5_0" arrivalPos="75.00" arrivalSpeed="19.14" duration="529.00" routeLength="1309.40" waitingTime="349.00" waitingCount="13" stopTime="0.00" timeLoss="437.65" rerouteNo="0" devices="tripinfo_f_0_0.17" vType="type1" speedFactor="1.00" vaporized=""/>
    <tripinfo id="f_0_2.9" depart="74.00" departLane="np2_nt2_0" departPos="18.13" departSpeed="0.00" departDelay="0.36" arrival="764.00" arrivalLane="nt15_np10_0" arrivalPos="75.00" arrivalSpeed="8.80" duration="690.00" routeLength="932.95" waitingTime="527.00" waitingCount="13" stopTime="0.00" timeLoss="596.27" rerouteNo="0" devices="tripinfo_f_0_2.9" vType="type1" speedFactor="0.84" vaporized=""/>
    <tripinfo id="f_0_1.8" depart="110.00" departLane="np16_nt1_0" departPos="43.32" departSpeed="0.00" departDelay="0.91" arrival="783.00" arrivalLane="nt16_np8_0" arrivalPos="75.00" arrivalSpeed="21.96" duration="673.00" routeLength="1304.56" waitingTime="519.00" waitingCount="13" stopTime="0.00" timeLoss="593.98" rerouteNo="0" devices="tripinfo_f_0_1.8" vType="type1" speedFactor="1.16" vaporized=""/>
    <tripinfo id="f_0_2.10" depart="82.00" departLane="np2_nt2_0" departPos="18.27" departSpeed="0.00" departDelay="0.18" arrival="803.00" arrivalLane="nt15_np10_0" arrivalPos="75.00" arrivalSpeed="9.22" duration="721.00" routeLength="932.81" waitingTime="555.00" waitingCount="16" stopTime="0.00" timeLoss="632.19" rerouteNo="0" devices="tripinfo_f_0_2.10" vType="type1" speedFactor="0.88" vaporized=""/>
    <tripinfo id="f_0_3.25" depart="205.00" departLane="np3_nt3_0" departPos="14.08" departSpeed="0.00" departDelay="0.45" arrival="866.00" arrivalLane="nt14_np11_0" arrivalPos="75.00" arrivalSpeed="6.53" duration="661.00" routeLength="937.01" waitingTime="488.00" waitingCount="11" stopTime="0.00" timeLoss="554.78" rerouteNo="0" devices="tripinfo_f_0_3.25" vType="type1" speedFactor="0.74" vaporized=""/>
    <tripinfo id="f_0_3.26" depart="213.00" departLane="np3_nt3_0" departPos="10.61" departSpeed="0.00" departDelay="0.27" arrival="868.00" arrivalLane="nt14_np11_0" arrivalPos="75.00" arrivalSpeed="9.04" duration="655.00" routeLength="940.48" waitingTime="498.00" waitingCount="14" stopTime="0.00" timeLoss="576.03" rerouteNo="0" devices="tripinfo_f_0_3.26" vType="type1" speedFactor="1.01" vaporized=""/>
    <tripinfo id="f_0_3.27" depart="221.00" departLane="np3_nt3_0" departPos="45.60" departSpeed="0.00" departDelay="0.09" arrival="897.00" arrivalLane="nt14_np11_0" arrivalPos="75.00" arrivalSpeed="10.20" duration="676.00" routeLength="905.49" waitingTime="526.00" waitingCount="16" stopTime="0.00" timeLoss="603.83" rerouteNo="0" devices="tripinfo_f_0_3.27" vType="type1" speedFactor="1.06" vaporized=""/>
    <tripinfo id="f_0_0.18" depart="246.00" departLane="np13_nt13_0" departPos="36.26" departSpeed="0.00" departDelay="0.55" arrival="927.00" arrivalLane="nt4_np5_0" arrivalPos="75.00" arrivalSpeed="19.79" duration="681.00" routeLength="1311.63" waitingTime="501.00" waitingCount="12" stopTime="0.00" timeLoss="590.19" rerouteNo="0" devices="tripinfo_f_0_0.18" vType="type1" speedFactor="1.00" vaporized=""/>
    <tripinfo id="f_0_0.19" depart="260.00" departLane="np13_nt13_0" departPos="27.16" departSpeed="0.00" departDelay="0.92" arrival="953.00" arrivalLane="nt4_np5_0" arrivalPos="75.00" arrivalSpeed="17.49" duration="693.00" routeLength="1320.73" waitingTime="503.00" waitingCount="12" stopTime="0.00" timeLoss="598.01" rerouteNo="0" devices="tripinfo_f_0_0.19" vType="type1" speedFactor="0.96" vaporized=""/>
    <tripinfo id="f_0_3.28" depart="230.00" departLane="np3_nt3_0" departPos="26.49" departSpeed="0.00" departDelay="0.90" arrival="965.00" arrivalLane="nt14_np11_0" arrivalPos="75.00" arrivalSpeed="8.16" duration="735.00" routeLength="924.60" waitingTime="575.00" waitingCount="10" stopTime="0.00" timeLoss="642.33" rerouteNo="0" devices="tripinfo_f_0_3.28" vType="type1" speedFactor="0.84" vaporized=""/>
    <tripinfo id="f_0_2.26" depart="213.00" departLane="np2_nt2_0" departPos="12.40" departSpeed="0.00" departDelay="0.27" arrival="968.00" arrivalLane="nt15_np10_0" arrivalPos="75.00" arrivalSpeed="9.07" duration="755.00" routeLength="938.68" waitingTime="608.00" waitingCount="13" stopTime="0.00" timeLoss="664.76" rerouteNo="0" devices="tripinfo_f_0_2.26" vType="type1" speedFactor="0.87" vaporized=""/>
    <tripinfo id="f_0_3.29" depart="238.00" departLane="np3_nt3_0" departPos="25.20" departSpeed="0.00" departDelay="0.72" arrival="1032.00" arrivalLane="nt14_np11_0" arrivalPos="75.00" arrivalSpeed="11.36" duration="794.00" routeLength="925.89" waitingTime="643.00" waitingCount="13" stopTime="0.00" timeLoss="721.88" rerouteNo="0" devices="tripinfo_f_0_3.29" vType="type1" speedFactor="1.09" vaporized=""/>
    <tripinfo id="f_0_0.20" depart="273.00" departLane="np13_nt13_0" departPos="20.93" departSpeed="0.00" departDelay="0.28" arrival="1064.00" arrivalLane="nt4_np5_0" arrivalPos="75.00" arrivalSpeed="19.02" duration="791.00" routeLength="1326.96" waitingTime="580.00" waitingCount="16" stopTime="0.00" timeLoss="695.82" rerouteNo="0" devices="tripinfo_f_0_0.20" vType="type1" speedFactor="0.97" vaporized=""/>