<?xml version="1.0" encoding="UTF-8"?>

<!-- generated on 2023-08-30 19:14:15 by Eclipse SUMO libsumo Version 1.18.0
<configuration xmlns:xsi="http://www.w3.org/2001/XMLSchema-instance" xsi:noNamespaceSchemaLocation="http://sumo.dlr.de/xsd/libsumoConfiguration.xsd">

    <input>
        <net-file value="/home/stefan/RESCO/./environments/arterial4x4/arterial4x4.net.xml"/>
        <route-files value="/home/stefan/RESCO/./environments/arterial4x4/arterial4x4_69.rou.xml"/>
    </input>

    <output>
        <tripinfo-output value="/home/stefan/results/RAINBOW-tr0-arterial4x4-0-drq_norm-wait_norm/tripinfo_69.xml"/>
        <tripinfo-output.write-unfinished value="true"/>
    </output>

    <processing>
        <time-to-teleport value="-1"/>
    </processing>

    <report>
        <no-warnings value="True"/>
        <no-step-log value="True"/>
    </report>

    <random_number>
        <random value="true"/>
    </random_number>

</configuration>
-->

<tripinfos xmlns:xsi="http://www.w3.org/2001/XMLSchema-instance" xsi:noNamespaceSchemaLocation="http://sumo.dlr.de/xsd/tripinfo_file.xsd">
    <tripinfo id="f_0_0.0" depart="0.00" departLane="np13_nt13_0" departPos="54.52" departSpeed="0.00" departDelay="0.00" arrival="410.00" arrivalLane="nt4_np5_0" arrivalPos="75.00" arrivalSpeed="20.07" duration="410.00" routeLength="1293.37" waitingTime="289.00" waitingCount="5" stopTime="0.00" timeLoss="328.79" rerouteNo="0" devices="tripinfo_f_0_0.0" vType="type1" speedFactor="1.12" vaporized=""/>
    <tripinfo id="f_0_0.1" depart="14.00" departLane="np13_nt13_0" departPos="42.30" departSpeed="0.00" departDelay="0.36" arrival="462.00" arrivalLane="nt4_np5_0" arrivalPos="75.00" arrivalSpeed="17.78" duration="448.00" routeLength="1305.59" waitingTime="317.00" waitingCount="6" stopTime="0.00" timeLoss="355.25" rerouteNo="0" devices="tripinfo_f_0_0.1" vType="type1" speedFactor="0.98" vaporized=""/>
    <tripinfo id="f_0_0.2" depart="28.00" departLane="np13_nt13_0" departPos="56.09" departSpeed="0.00" departDelay="0.73" arrival="479.00" arrivalLane="nt4_np5_0" arrivalPos="75.00" arrivalSpeed="15.40" duration="451.00" routeLength="1291.80" waitingTime="301.00" waitingCount="7" stopTime="0.00" timeLoss="343.48" rerouteNo="0" devices="tripinfo_f_0_0.2" vType="type1" speedFactor="0.84" vaporized=""/>
    <tripinfo id="f_0_0.3" depart="41.00" departLane="np13_nt13_0" departPos="34.83" departSpeed="0.00" departDelay="0.09" arrival="484.00" arrivalLane="nt4_np5_0" arrivalPos="75.00" arrivalSpeed="22.63" duration="443.00" routeLength="1313.06" waitingTime="328.00" waitingCount="8" stopTime="0.00" timeLoss="365.35" rerouteNo="0" devices="tripinfo_f_0_0.3" vType="type1" speedFactor="1.18" vaporized=""/>
    <tripinfo id="f_0_3.0" depart="0.00" departLane="np3_nt3_0" departPos="58.58" departSpeed="0.00" departDelay="0.00" arrival="682.00" arrivalLane="nt14_np11_0" arrivalPos="75.00" arrivalSpeed="9.83" duration="682.00" routeLength="892.51" waitingTime="585.00" waitingCount="5" stopTime="0.00" timeLoss="613.77" rerouteNo="0" devices="tripinfo_f_0_3.0" vType="type1" speedFactor="1.09" vaporized=""/>
    <tripinfo id="f_0_3.1" depart="9.00" departLane="np3_nt3_0" departPos="48.87" departSpeed="0.00" departDelay="0.82" arrival="686.00" arrivalLane="nt14_np11_0" arrivalPos="75.00" arrivalSpeed="8.42" duration="677.00" routeLength="902.22" waitingTime="565.00" waitingCount="5" stopTime="0.00" timeLoss="597.19" rerouteNo="0" devices="tripinfo_f_0_3.1" vType="type1" speedFactor="0.95" vaporized=""/>
    <tripinfo id="f_0_2.0" depart="0.00" departLane="np2_nt2_0" departPos="44.33" departSpeed="0.00" departDelay="0.00" arrival="769.00" arrivalLane="nt15_np10_0" arrivalPos="75.00" arrivalSpeed="7.89" duration="769.00" routeLength="906.75" waitingTime="653.00" waitingCount="4" stopTime="0.00" timeLoss="686.72" rerouteNo="0" devices="tripinfo_f_0_2.0" vType="type1" speedFactor="0.93" vaporized=""/>
    <tripinfo id="f_0_3.2" depart="17.00" departLane="np3_nt3_0" departPos="40.30" departSpeed="0.00" departDelay="0.64" arrival="792.00" arrivalLane="nt14_np11_0" arrivalPos="75.00" arrivalSpeed="8.89" duration="775.00" routeLength="910.79" waitingTime="647.00" waitingCount="5" stopTime="0.00" timeLoss="680.78" rerouteNo="0" devices="tripinfo_f_0_3.2" vType="type1" speedFactor="0.81" vaporized=""/>
    <tripinfo id="f_0_2.1" depart="9.00" departLane="np2_nt2_0" departPos="22.24" departSpeed="0.00" departDelay="0.82" arrival="968.00" arrivalLane="nt15_np10_0" arrivalPos="75.00" arrivalSpeed="11.26" duration="959.00" routeLength="928.84" waitingTime="848.00" waitingCount="5" stopTime="0.00" timeLoss="883.13" rerouteNo="0" devices="tripinfo_f_0_2.1" vType="type1" speedFactor="1.03" vaporized=""/>
    <tripinfo id="f_0_2.2" depart="17.00" departLane="np2_nt2_0" departPos="56.51" departSpeed="0.00" departDelay="0.64" arrival="981.00" arrivalLane="nt15_np10_0" arrivalPos="75.00" arrivalSpeed="10.54" duration="964.00" routeLength="894.57" waitingTime="861.00" waitingCount="7" stopTime="0.00" timeLoss="895.78" rerouteNo="0" devices="tripinfo_f_0_2.2" vType="type1" speedFactor="1.10" vaporized=""/>
    <tripinfo id="f_0_0.4" depart="55.00" departLane="np13_nt13_0" departPos="26.77" departSpeed="0.00" departDelay="0.46" arrival="1131.00" arrivalLane="nt4_np5_0" arrivalPos="75.00" arrivalSpeed="18.50" duration="1076.00" routeLength="1321.12" waitingTime="939.00" waitingCount="8" stopTime="0.00" timeLoss="980.39" rerouteNo="0" devices="tripinfo_f_0_0.4" vType="type1" speedFactor="0.96" vaporized=""/>
    <tripinfo id="f_0_2.3" depart="25.00" departLane="np2_nt2_0" departPos="36.90" departSpeed="0.00" departDelay="0.45" arrival="1205.00" arrivalLane="nt15_np10_0" arrivalPos="75.00" arrivalSpeed="7.23" duration="1180.00" routeLength="914.18" waitingTime="1042.00" waitingCount="8" stopTime="0.00" timeLoss="1087.56" rerouteNo="0" devices="tripinfo_f_0_2.3" vType="type1" speedFactor="0.83" vaporized=""/>
    <tripinfo id="f_0_2.4" depart="33.00" departLane="np2_nt2_0" departPos="59.35" departSpeed="0.00" departDelay="0.27" arrival="1207.00" arrivalLane="nt15_np10_0" arrivalPos="75.00" arrivalSpeed="9.60" duration="1174.00" routeLength="891.73" waitingTime="1041.00" waitingCount="9" stopTime="0.00" timeLoss="1094.22" rerouteNo="0" devices="tripinfo_f_0_2.4" vType="type1" speedFactor="0.94" vaporized=""/>
    <tripinfo id="f_0_0.5" depart="69.00" departLane="np13_nt13_0" departPos="8.49" departSpeed="0.00" departDelay="0.82" arrival="1227.00" arrivalLane="nt4_np5_0" arrivalPos="75.00" arrivalSpeed="17.86" duration="1158.00" routeLength="1339.40" waitingTime="1001.00" waitingCount="10" stopTime="0.00" timeLoss="1057.13" rerouteNo="0" devices="tripinfo_f_0_0.5" vType="type1" speedFactor="0.92" vaporized=""/>
    <tripinfo id="f_0_0.6" depart="82.00" departLane="np13_nt13_0" departPos="6.31" departSpeed="0.00" departDelay="0.18" arrival="1228.00" arrivalLane="nt4_np5_0" arrivalPos="75.00" arrivalSpeed="21.03" duration="1146.00" routeLength="1341.58" waitingTime="1005.00" waitingCount="11" stopTime="0.00" timeLoss="1063.85" rerouteNo="0" devices="tripinfo_f_0_0.6" vType="type1" speedFactor="1.13" vaporized=""/>
    <tripinfo id="f_0_0.7" depart="96.00" departLane="np13_nt13_0" departPos="41.97" departSpeed="0.00" departDelay="0.55" arrival="1325.00" arrivalLane="nt4_np5_0" arrivalPos="75.00" arrivalSpeed="20.62" duration="1229.00" routeLength="1305.92" waitingTime="1073.00" waitingCount="12" stopTime="0.00" timeLoss="1142.33" rerouteNo="0" devices="tripinfo_f_0_0.7" vType="type1" speedFactor="1.05" vaporized=""/>
    <tripinfo id="f_0_2.5" depart="41.00" departLane="np2_nt2_0" departPos="40.31" departSpeed="0.00" departDelay="0.09" arrival="1342.00" arrivalLane="nt15_np10_0" arrivalPos="75.00" arrivalSpeed="9.92" duration="1301.00" routeLength="910.77" waitingTime="1162.00" waitingCount="9" stopTime="0.00" timeLoss="1225.67" rerouteNo="0" devices="tripinfo_f_0_2.5" vType="type1" speedFactor="1.01" vaporized=""/>
    <tripinfo id="f_0_2.6" depart="50.00" departLane="np2_nt2_0" departPos="36.36" departSpeed="0.00" departDelay="0.91" arrival="1344.00" arrivalLane="nt15_np10_0" arrivalPos="75.00" arrivalSpeed="10.71" duration="1294.00" routeLength="914.72" waitingTime="1149.00" waitingCount="11" stopTime="0.00" timeLoss="1217.37" rerouteNo="0" devices="tripinfo_f_0_2.6" vType="type1" speedFactor="1.00" vaporized=""/>
    <tripinfo id="f_3_7.0" depart="900.00" departLane="np11_nt14_0" departPos="39.62" departSpeed="0.00" departDelay="0.00" arrival="1376.00" arrivalLane="nt3_np3_0" arrivalPos="64.60" arrivalSpeed="9.04" duration="476.00" routeLength="911.47" waitingTime="368.00" waitingCount="5" stopTime="0.00" timeLoss="401.15" rerouteNo="0" devices="tripinfo_f_3_7.0" vType="type1" speedFactor="1.02" vaporized=""/>
    <tripinfo id="f_3_7.1" depart="913.00" departLane="np11_nt14_0" departPos="61.77" departSpeed="0.00" departDelay="0.00" arrival="1379.00" arrivalLane="nt3_np3_0" arrivalPos="64.60" arrivalSpeed="10.04" duration="466.00" routeLength="889.32" waitingTime="360.00" waitingCount="6" stopTime="0.00" timeLoss="390.71" rerouteNo="0" devices="tripinfo_f_3_7.1" vType="type1" speedFactor="0.99" vaporized=""/>
    <tripinfo id="f_0_0.8" depart="110.00" departLane="np13_nt13_0" departPos="40.32" departSpeed="0.00" departDelay="0.91" arrival="1381.00" arrivalLane="nt4_np5_0" arrivalPos="75.00" arrivalSpeed="18.63" duration="1271.00" routeLength="1307.57" waitingTime="1098.00" waitingCount="16" stopTime="0.00" timeLoss="1176.94" rerouteNo="0" devices="tripinfo_f_0_0.8" vType="type1" speedFactor="0.97" vaporized=""/>
    <tripinfo id="f_0_0.9" depart="123.00" departLane="np13_nt13_0" departPos="25.80" departSpeed="0.00" departDelay="0.28" arrival="1383.00" arrivalLane="nt4_np5_0" arrivalPos="75.00" arrivalSpeed="18.75" duration="1260.00" routeLength="1322.09" waitingTime="1085.00" waitingCount="15" stopTime="0.00" timeLoss="1166.28" rerouteNo="0" devices="tripinfo_f_0_0.9" vType="type1" speedFactor="0.97" vaporized=""/>
    <tripinfo id="f_3_6.0" depart="900.00" departLane="np10_nt15_0" departPos="57.82" departSpeed="0.00" departDelay="0.00" arrival="1470.00" arrivalLane="nt2_np2_0" arrivalPos="64.60" arrivalSpeed="7.67" duration="570.00" routeLength="893.26" waitingTime="457.00" waitingCount="4" stopTime="0.00" timeLoss="489.36" rerouteNo="0" devices="tripinfo_f_3_6.0" vType="type1" speedFactor="0.92" vaporized=""/>
    <tripinfo id="f_3_6.1" depart="913.00" departLane="np10_nt15_0" departPos="10.39" departSpeed="0.00" departDelay="0.00" arrival="1474.00" arrivalLane="nt2_np2_0" arrivalPos="64.60" arrivalSpeed="9.74" duration="561.00" routeLength="940.69" waitingTime="453.00" waitingCount="4" stopTime="0.00" timeLoss="479.36" rerouteNo="0" devices="tripinfo_f_3_6.1" vType="type1" speedFactor="0.97" vaporized=""/>
    <tripinfo id="f_3_6.2" depart="926.00" departLane="np10_nt15_0" departPos="13.01" departSpeed="0.00" departDelay="0.01" arrival="1491.00" arrivalLane="nt2_np2_0" arrivalPos="64.60" arrivalSpeed="8.98" duration="565.00" routeLength="938.07" waitingTime="456.00" waitingCount="5" stopTime="0.00" timeLoss="487.02" rerouteNo="0" devices="tripinfo_f_3_6.2" vType="type1" speedFactor="1.01" vaporized=""/>
    <tripinfo id="f_0_2.7" depart="58.00" departLane="np2_nt2_0" departPos="18.76" departSpeed="0.00" departDelay="0.73" arrival="1511.00" arrivalLane="nt15_np10_0" arrivalPos="75.00" arrivalSpeed="11.44" duration="1453.00" routeLength="932.32" waitingTime="1301.00" waitingCount="12" stopTime="0.00" timeLoss="1389.08" rerouteNo="0" devices="tripinfo_f_0_2.7" vType="type1" speedFactor="1.23" vaporized=""/>
    <tripinfo id="f_0_1.0" depart="0.00" departLane="np16_nt1_0" departPos="42.99" departSpeed="0.00" departDelay="0.00" arrival="1529.00" arrivalLane="nt16_np8_0" arrivalPos="75.00" arrivalSpeed="20.08" duration="1529.00" routeLength="1304.89" waitingTime="1333.00" waitingCount="13" stopTime="0.00" timeLoss="1439.60" rerouteNo="0" devices="tripinfo_f_0_1.0" vType="type1" speedFactor="1.03" vaporized=""/>
    <tripinfo id="f_0_2.8" depart="66.00" departLane="np2_nt2_0" departPos="35.29" departSpeed="0.00" departDelay="0.54" arrival="1538.00" arrivalLane="nt15_np10_0" arrivalPos="75.00" arrivalSpeed="10.16" duration="1472.00" routeLength="915.79" waitingTime="1293.00" waitingCount="14" stopTime="0.00" timeLoss="1393.19" rerouteNo="0" devices="tripinfo_f_0_2.8" vType="type1" speedFactor="0.97" vaporized=""/>
    <tripinfo id="f_0_2.9" depart="74.00" departLane="np2_nt2_0" departPos="58.76" departSpeed="0.00" departDelay="0.36" arrival="1540.00" arrivalLane="nt15_np10_0" arrivalPos="75.00" arrivalSpeed="8.15" duration="1466.00" routeLength="892.32" waitingTime="1279.00" waitingCount="16" stopTime="0.00" timeLoss="1387.39" rerouteNo="0" devices="tripinfo_f_0_2.9" vType="type1" speedFactor="0.95" vaporized=""/>
    <tripinfo id="f_3_7.2" depart="926.00" departLane="np11_nt14_0" departPos="32.52" departSpeed="0.00" departDelay="0.01" arrival="1691.00" arrivalLane="nt3_np3_0" arrivalPos="64.60" arrivalSpeed="9.64" duration="765.00" routeLength="918.57" waitingTime="657.00" waitingCount="6" stopTime="0.00" timeLoss="688.06" rerouteNo="0" devices="tripinfo_f_3_7.2" vType="type1" speedFactor="1.00" vaporized=""/>
    <tripinfo id="f_0_3.3" depart="25.00" departLane="np3_nt3_0" departPos="22.95" departSpeed="0.00" departDelay="0.45" arrival="1988.00" arrivalLane="nt14_np11_0" arrivalPos="75.00" arrivalSpeed="8.97" duration="1963.00" routeLength="928.14" waitingTime="1837.00" waitingCount="9" stopTime="0.00" timeLoss="1880.07" rerouteNo="0" devices="tripinfo_f_0_3.3" vType="type1" speedFactor="0.94" vaporized=""/>
    <tripinfo id="f_0_3.4" depart="33.00" departLane="np3_nt3_0" departPos="20.53" departSpeed="0.00" departDelay="0.27" arrival="1997.00" arrivalLane="nt14_np11_0" arrivalPos="75.00" arrivalSpeed="9.06" duration="1964.00" routeLength="930.56" waitingTime="1835.00" waitingCount="11" stopTime="0.00" timeLoss="1888.72" rerouteNo="0" devices="tripinfo_f_0_3.4" vType="type1" speedFactor="1.03" vaporized=""/>
    <tripinfo id="f_0_3.5" depart="41.00" departLane="np3_nt3_0" departPos="20.73" departSpeed="0.00" departDelay="0.09" arrival="1999.00" arrivalLane="nt14_np11_0" arrivalPos="75.00" arrivalSpeed="11.41" duration="1958.00" routeLength="930.36" waitingTime="1821.00" waitingCount="11" stopTime="0.00" timeLoss="1882.83" rerouteNo="0" devices="tripinfo_f_0_3.5" vType="type1" speedFactor="1.04" vaporized=""/>
    <tripinfo id="f_0_3.13" depart="469.00" departLane="np3_nt3_0" departPos="60.25" departSpeed="0.00" departDelay="362.63" arrival="2001.00" arrivalLane="nt14_np11_0" arrivalPos="75.00" arrivalSpeed="10.89" duration="1532.00" routeLength="890.84" waitingTime="1425.00" waitingCount="7" stopTime="0.00" timeLoss="1466.03" rerouteNo="0" devices="tripinfo_f_0_3.13" vType="type1" speedFactor="1.13" vaporized=""/>
    <tripinfo id="f_0_3.6" depart="50.00" departLane="np3_nt3_0" departPos="1.79" departSpeed="0.00" departDelay="0.91" arrival="2003.00" arrivalLane="nt14_np11_0" arrivalPos="75.00" arrivalSpeed="10.79" duration="1953.00" routeLength="949.30" waitingTime="1809.00" waitingCount="12" stopTime="0.00" timeLoss="1879.87" rerouteNo="0" devices="tripinfo_f_0_3.6" vType="type1" speedFactor="1.09" vaporized=""/>
    <tripinfo id="f_0_2.10" depart="82.00" departLane="np2_nt2_0" departPos="6.96" departSpeed="0.00" departDelay="0.18" arrival="2047.00" arrivalLane="nt15_np10_0" arrivalPos="75.00" arrivalSpeed="10.01" duration="1965.00" routeLength="944.12" waitingTime="1772.00" waitingCount="17" stopTime="0.00" timeLoss="1884.76" rerouteNo="0" devices="tripinfo_f_0_2.10" vType="type1" speedFactor="0.99" vaporized=""/>
    <tripinfo id="f_0_2.11" depart="90.00" departLane="np2_nt2_0" departPos="46.28" departSpeed="0.00" departDelay="0.00" arrival="2049.00" arrivalLane="nt15_np10_0" arrivalPos="75.00" arrivalSpeed="10.39" duration="1959.00" routeLength="904.80" waitingTime="1766.00" waitingCount="16" stopTime="0.00" timeLoss="1884.35" rerouteNo="0" devices="tripinfo_f_0_2.11" vType="type1" speedFactor="1.01" vaporized=""/>
    <tripinfo id="f_0_2.12" depart="99.00" departLane="np2_nt2_0" departPos="1.46" departSpeed="0.00" departDelay="0.82" arrival="2062.00" arrivalLane="nt15_np10_0" arrivalPos="75.00" arrivalSpeed="8.97" duration="1963.00" routeLength="949.62" waitingTime="1764.00" waitingCount="16" stopTime="0.00" timeLoss="1884.72" rerouteNo="0" devices="tripinfo_f_0_2.12" vType="type1" speedFactor="1.02" vaporized=""/>
    <tripinfo id="f_0_2.13" depart="107.00" departLane="np2_nt2_0" departPos="5.67" departSpeed="0.00" departDelay="0.63" arrival="2064.00" arrivalLane="nt15_np10_0" arrivalPos="75.00" arrivalSpeed="8.43" duration="1957.00" routeLength="945.41" waitingTime="1744.00" waitingCount="17" stopTime="0.00" timeLoss="1874.31" rerouteNo="0" devices="tripinfo_f_0_2.13" vType="type1" speedFactor="0.95" vaporized=""/>
    <tripinfo id="f_0_2.14" depart="115.00" departLane="np2_nt2_0" departPos="49.89" departSpeed="0.00" departDelay="0.45" arrival="2087.00" arrivalLane="nt15_np10_0" arrivalPos="75.00" arrivalSpeed="10.54" duration="1972.00" routeLength="901.19" waitingTime="1745.00" waitingCount="20" stopTime="0.00" timeLoss="1899.59" rerouteNo="0" devices="tripinfo_f_0_2.14" vType="type1" speedFactor="1.05" vaporized=""/>
    <tripinfo id="f_0_2.15" depart="123.00" departLane="np2_nt2_0" departPos="41.79" departSpeed="0.00" departDelay="0.27" arrival="2089.00" arrivalLane="nt15_np10_0" arrivalPos="75.00" arrivalSpeed="10.96" duration="1966.00" routeLength="909.29" waitingTime="1753.00" waitingCount="17" stopTime="0.00" timeLoss="1891.62" rerouteNo="0" devices="tripinfo_f_0_2.15" vType="type1" speedFactor="1.02" vaporized=""/>
    <tripinfo id="f_0_2.16" depart="131.00" departLane="np2_nt2_0" departPos="19.41" departSpeed="0.00" departDelay="0.09" arrival="2118.00" arrivalLane="nt15_np10_0" arrivalPos="75.00" arrivalSpeed="7.82" duration="1987.00" routeLength="931.67" waitingTime="1760.00" waitingCount="18" stopTime="0.00" timeLoss="1900.73" rerouteNo="0" devices="tripinfo_f_0_2.16" vType="type1" speedFactor="0.90" vaporized=""/>
    <tripinfo id="f_0_2.17" depart="140.00" departLane="np2_nt2_0" departPos="26.23" departSpeed="0.00" departDelay="0.91" arrival="2121.00" arrivalLane="nt15_np10_0" arrivalPos="75.00" arrivalSpeed="7.86" duration="1981.00" routeLength="924.85" waitingTime="1744.00" waitingCount="20" stopTime="0.00" timeLoss="1890.71" rerouteNo="0" devices="tripinfo_f_0_2.17" vType="type1" speedFactor="0.86" vaporized=""/>
    <tripinfo id="f_0_1.1" depart="14.00" departLane="np16_nt1_0" departPos="67.59" departSpeed="0.00" departDelay="0.36" arrival="2137.00" arrivalLane="nt16_np8_0" arrivalPos="75.00" arrivalSpeed="14.42" duration="2123.00" routeLength="1280.29" waitingTime="1849.00" waitingCount="21" stopTime="0.00" timeLoss="2011.06" rerouteNo="0" devices="tripinfo_f_0_1.1" vType="type1" speedFactor="0.80" vaporized=""/>
    <tripinfo id="f_0_1.2" depart="28.00" departLane="np16_nt1_0" departPos="27.78" departSpeed="0.00" departDelay="0.73" arrival="2140.00" arrivalLane="nt16_np8_0" arrivalPos="75.00" arrivalSpeed="16.60" duration="2112.00" routeLength="1320.10" waitingTime="1861.00" waitingCount="16" stopTime="0.00" timeLoss="2006.97" rerouteNo="0" devices="tripinfo_f_0_1.2" vType="type1" speedFactor="0.88" vaporized=""/>
    <tripinfo id="f_0_0.10" depart="137.00" departLane="np13_nt13_0" departPos="48.29" departSpeed="0.00" departDelay="0.64" arrival="2182.00" arrivalLane="nt4_np5_0" arrivalPos="75.00" arrivalSpeed="17.05" duration="2045.00" routeLength="1299.60" waitingTime="1863.00" waitingCount="13" stopTime="0.00" timeLoss="1948.12" rerouteNo="0" devices="tripinfo_f_0_0.10" vType="type1" speedFactor="0.94" vaporized=""/>
    <tripinfo id="f_3_6.3" depart="939.00" departLane="np10_nt15_0" departPos="25.93" departSpeed="0.00" departDelay="0.01" arrival="2192.00" arrivalLane="nt2_np2_0" arrivalPos="64.60" arrivalSpeed="8.33" duration="1253.00" routeLength="925.15" waitingTime="1133.00" waitingCount="6" stopTime="0.00" timeLoss="1165.91" rerouteNo="0" devices="tripinfo_f_3_6.3" vType="type1" speedFactor="0.90" vaporized=""/>
    <tripinfo id="f_3_6.4" depart="952.00" departLane="np10_nt15_0" departPos="61.26" departSpeed="0.00" departDelay="0.02" arrival="2194.00" arrivalLane="nt2_np2_0" arrivalPos="64.60" arrivalSpeed="10.36" duration="1242.00" routeLength="889.82" waitingTime="1126.00" waitingCount="6" stopTime="0.00" timeLoss="1168.61" rerouteNo="0" devices="tripinfo_f_3_6.4" vType="type1" speedFactor="1.02" vaporized=""/>
    <tripinfo id="f_0_2.18" depart="148.00" departLane="np2_nt2_0" departPos="7.94" departSpeed="0.00" departDelay="0.72" arrival="2321.00" arrivalLane="nt15_np10_0" arrivalPos="75.00" arrivalSpeed="10.32" duration="2173.00" routeLength="943.14" waitingTime="1948.00" waitingCount="16" stopTime="0.00" timeLoss="2100.55" rerouteNo="0" devices="tripinfo_f_0_2.18" vType="type1" speedFactor="1.09" vaporized=""/>
    <tripinfo id="f_0_2.19" depart="156.00" departLane="np2_nt2_0" departPos="51.04" departSpeed="0.00" departDelay="0.54" arrival="2324.00" arrivalLane="nt15_np10_0" arrivalPos="75.00" arrivalSpeed="9.06" duration="2168.00" routeLength="900.04" waitingTime="1961.00" waitingCount="13" stopTime="0.00" timeLoss="2091.56" rerouteNo="0" devices="tripinfo_f_0_2.19" vType="type1" speedFactor="0.99" vaporized=""/>
    <tripinfo id="f_3_4.0" depart="900.00" departLane="np5_nt4_0" departPos="41.95" departSpeed="0.00" departDelay="0.00" arrival="2354.00" arrivalLane="nt13_np13_1" arrivalPos="67.80" arrivalSpeed="20.31" duration="1454.00" routeLength="1305.94" waitingTime="1331.00" waitingCount="6" stopTime="0.00" timeLoss="1366.78" rerouteNo="0" devices="tripinfo_f_3_4.0" vType="type1" speedFactor="1.04" vaporized=""/>
    <tripinfo id="f_0_0.11" depart="150.00" departLane="np13_nt13_0" departPos="53.23" departSpeed="0.00" departDelay="0.00" arrival="2462.00" arrivalLane="nt4_np5_0" arrivalPos="75.00" arrivalSpeed="16.59" duration="2312.00" routeLength="1294.66" waitingTime="2117.00" waitingCount="17" stopTime="0.00" timeLoss="2212.08" rerouteNo="0" devices="tripinfo_f_0_0.11" vType="type1" speedFactor="0.91" vaporized=""/>
    <tripinfo id="f_3_7.3" depart="939.00" departLane="np11_nt14_0" departPos="32.85" departSpeed="0.00" departDelay="0.01" arrival="2492.00" arrivalLane="nt3_np3_0" arrivalPos="64.60" arrivalSpeed="9.42" duration="1553.00" routeLength="918.24" waitingTime="1432.00" waitingCount="6" stopTime="0.00" timeLoss="1466.54" rerouteNo="0" devices="tripinfo_f_3_7.3" vType="type1" speedFactor="0.89" vaporized=""/>
    <tripinfo id="f_3_5.0" depart="900.00" departLane="np8_nt16_0" departPos="71.34" departSpeed="0.00" departDelay="0.00" arrival="2562.00" arrivalLane="nt1_np16_0" arrivalPos="67.80" arrivalSpeed="14.82" duration="1662.00" routeLength="1276.54" waitingTime="1519.00" waitingCount="7" stopTime="0.00" timeLoss="1558.01" rerouteNo="0" devices="tripinfo_f_3_5.0" vType="type1" speedFactor="0.86" vaporized=""/>
    <tripinfo id="f_3_5.1" depart="922.00" departLane="np8_nt16_0" departPos="50.79" departSpeed="0.00" departDelay="0.31" arrival="2568.00" arrivalLane="nt1_np16_0" arrivalPos="67.80" arrivalSpeed="19.11" duration="1646.00" routeLength="1297.09" waitingTime="1490.00" waitingCount="10" stopTime="0.00" timeLoss="1552.92" rerouteNo="0" devices="tripinfo_f_3_5.1" vType="type1" speedFactor="0.99" vaporized=""/>
    <tripinfo id="f_3_4.1" depart="922.00" departLane="np5_nt4_0" departPos="17.86" departSpeed="0.00" departDelay="0.31" arrival="2605.00" arrivalLane="nt13_np13_1" arrivalPos="67.80" arrivalSpeed="18.67" duration="1683.00" routeLength="1330.03" waitingTime="1542.00" waitingCount="8" stopTime="0.00" timeLoss="1591.26" rerouteNo="0" devices="tripinfo_f_3_4.1" vType="type1" speedFactor="1.01" vaporized=""/>
    <tripinfo id="f_3_6.5" depart="965.00" departLane="np10_nt15_0" departPos="14.95" departSpeed="0.00" departDelay="0.02" arrival="2612.00" arrivalLane="nt2_np2_0" arrivalPos="64.60" arrivalSpeed="8.25" duration="1647.00" routeLength="936.13" waitingTime="1534.00" waitingCount="5" stopTime="0.00" timeLoss="1564.18" rerouteNo="0" devices="tripinfo_f_3_6.5" vType="type1" speedFactor="0.96" vaporized=""/>
    <tripinfo id="f_3_6.6" depart="978.00" departLane="np10_nt15_0" departPos="44.99" departSpeed="0.00" departDelay="0.02" arrival="2614.00" arrivalLane="nt2_np2_0" arrivalPos="64.60" arrivalSpeed="8.97" duration="1636.00" routeLength="906.09" waitingTime="1525.00" waitingCount="8" stopTime="0.00" timeLoss="1562.29" rerouteNo="0" devices="tripinfo_f_3_6.6" vType="type1" speedFactor="1.03" vaporized=""/>
    <tripinfo id="f_3_5.2" depart="944.00" departLane="np8_nt16_0" departPos="39.26" departSpeed="0.00" departDelay="0.63" arrival="2638.00" arrivalLane="nt1_np16_0" arrivalPos="67.80" arrivalSpeed="18.78" duration="1694.00" routeLength="1308.62" waitingTime="1533.00" waitingCount="13" stopTime="0.00" timeLoss="1604.26" rerouteNo="0" devices="tripinfo_f_3_5.2" vType="type1" speedFactor="1.01" vaporized=""/>
    <tripinfo id="f_3_5.3" depart="966.00" departLane="np8_nt16_0" departPos="1.71" departSpeed="0.00" departDelay="0.94" arrival="2645.00" arrivalLane="nt1_np16_0" arrivalPos="67.80" arrivalSpeed="17.82" duration="1679.00" routeLength="1346.17" waitingTime="1493.00" waitingCount="17" stopTime="0.00" timeLoss="1581.64" rerouteNo="0" devices="tripinfo_f_3_5.3" vType="type1" speedFactor="0.96" vaporized=""/>
    <tripinfo id="f_0_2.20" depart="164.00" departLane="np2_nt2_0" departPos="46.80" departSpeed="0.00" departDelay="0.36" arrival="2647.00" arrivalLane="nt15_np10_0" arrivalPos="75.00" arrivalSpeed="9.33" duration="2483.00" routeLength="904.28" waitingTime="2269.00" waitingCount="13" stopTime="0.00" timeLoss="2410.50" rerouteNo="0" devices="tripinfo_f_0_2.20" vType="type1" speedFactor="1.05" vaporized=""/>
    <tripinfo id="f_0_2.21" depart="172.00" departLane="np2_nt2_0" departPos="1.61" departSpeed="0.00" departDelay="0.18" arrival="2649.00" arrivalLane="nt15_np10_0" arrivalPos="75.00" arrivalSpeed="10.06" duration="2477.00" routeLength="949.47" waitingTime="2269.00" waitingCount="17" stopTime="0.00" timeLoss="2397.84" rerouteNo="0" devices="tripinfo_f_0_2.21" vType="type1" speedFactor="1.01" vaporized=""/>
    <tripinfo id="f_3_6.7" depart="991.00" departLane="np10_nt15_0" departPos="20.49" departSpeed="0.00" departDelay="0.03" arrival="2661.00" arrivalLane="nt2_np2_0" arrivalPos="64.60" arrivalSpeed="10.43" duration="1670.00" routeLength="930.59" waitingTime="1549.00" waitingCount="9" stopTime="0.00" timeLoss="1597.11" rerouteNo="0" devices="tripinfo_f_3_6.7" vType="type1" speedFactor="1.07" vaporized=""/>
    <tripinfo id="f_0_2.22" depart="180.00" departLane="np2_nt2_0" departPos="18.36" departSpeed="0.00" departDelay="0.00" arrival="2762.00" arrivalLane="nt15_np10_0" arrivalPos="75.00" arrivalSpeed="9.67" duration="2582.00" routeLength="932.72" waitingTime="2361.00" waitingCount="19" stopTime="0.00" timeLoss="2501.55" rerouteNo="0" devices="tripinfo_f_0_2.22" vType="type1" speedFactor="0.97" vaporized=""/>
    <tripinfo id="f_0_2.23" depart="189.00" departLane="np2_nt2_0" departPos="28.15" departSpeed="0.00" departDelay="0.81" arrival="2768.00" arrivalLane="nt15_np10_0" arrivalPos="75.00" arrivalSpeed="7.36" duration="2579.00" routeLength="922.93" waitingTime="2336.00" waitingCount="17" stopTime="0.00" timeLoss="2478.23" rerouteNo="0" devices="tripinfo_f_0_2.23" vType="type1" speedFactor="0.77" vaporized=""/>
    <tripinfo id="f_0_3.7" depart="58.00" departLane="np3_nt3_0" departPos="10.53" departSpeed="0.00" departDelay="0.73" arrival="2777.00" arrivalLane="nt14_np11_0" arrivalPos="75.00" arrivalSpeed="9.10" duration="2719.00" routeLength="940.56" waitingTime="2554.00" waitingCount="16" stopTime="0.00" timeLoss="2638.68" rerouteNo="0" devices="tripinfo_f_0_3.7" vType="type1" speedFactor="0.98" vaporized=""/>
    <tripinfo id="f_3_4.2" depart="944.00" departLane="np5_nt4_0" departPos="15.65" departSpeed="0.00" departDelay="0.63" arrival="2780.00" arrivalLane="nt13_np13_1" arrivalPos="67.80" arrivalSpeed="18.03" duration="1836.00" routeLength="1332.24" waitingTime="1677.00" waitingCount="11" stopTime="0.00" timeLoss="1734.54" rerouteNo="0" devices="tripinfo_f_3_4.2" vType="type1" speedFactor="0.91" vaporized=""/>
    <tripinfo id="f_0_3.8" depart="66.00" departLane="np3_nt3_0" departPos="0.00" departSpeed="0.00" departDelay="0.54" arrival="2781.00" arrivalLane="nt14_np11_0" arrivalPos="75.00" arrivalSpeed="6.78" duration="2715.00" routeLength="951.09" waitingTime="2537.00" waitingCount="15" stopTime="0.00" timeLoss="2618.89" rerouteNo="0" devices="tripinfo_f_0_3.8" vType="type1" speedFactor="0.83" vaporized=""/>
    <tripinfo id="f_0_2.24" depart="197.00" departLane="np2_nt2_0" departPos="17.92" departSpeed="0.00" departDelay="0.63" arrival="2787.00" arrivalLane="nt15_np10_0" arrivalPos="75.00" arrivalSpeed="10.06" duration="2590.00" routeLength="933.16" waitingTime="2336.00" waitingCount="18" stopTime="0.00" timeLoss="2514.87" rerouteNo="0" devices="tripinfo_f_0_2.24" vType="type1" speedFactor="1.04" vaporized=""/>
    <tripinfo id="f_0_2.25" depart="205.00" departLane="np2_nt2_0" departPos="51.66" departSpeed="0.00" departDelay="0.45" arrival="2790.00" arrivalLane="nt15_np10_0" arrivalPos="75.00" arrivalSpeed="8.86" duration="2585.00" routeLength="899.42" waitingTime="2350.00" waitingCount="18" stopTime="0.00" timeLoss="2503.93" rerouteNo="0" devices="tripinfo_f_0_2.25" vType="type1" speedFactor="0.93" vaporized=""/>