<?xml version="1.0" encoding="UTF-8"?>

<!-- generated on 2023-08-30 19:29:31 by Eclipse SUMO libsumo Version 1.18.0
<configuration xmlns:xsi="http://www.w3.org/2001/XMLSchema-instance" xsi:noNamespaceSchemaLocation="http://sumo.dlr.de/xsd/libsumoConfiguration.xsd">

    <input>
        <net-file value="/home/stefan/RESCO/./environments/arterial4x4/arterial4x4.net.xml"/>
        <route-files value="/home/stefan/RESCO/./environments/arterial4x4/arterial4x4_82.rou.xml"/>
    </input>

    <output>
        <tripinfo-output value="/home/stefan/results/RAINBOW-tr0-arterial4x4-0-drq_norm-wait_norm/tripinfo_82.xml"/>
        <tripinfo-output.write-unfinished value="true"/>
    </output>

    <processing>
        <time-to-teleport value="-1"/>
    </processing>

    <report>
        <no-warnings value="True"/>
        <no-step-log value="True"/>
    </report>

    <random_number>
        <random value="true"/>
    </random_number>

</configuration>
-->

<tripinfos xmlns:xsi="http://www.w3.org/2001/XMLSchema-instance" xsi:noNamespaceSchemaLocation="http://sumo.dlr.de/xsd/tripinfo_file.xsd">
    <tripinfo id="f_0_0.0" depart="0.00" departLane="np13_nt13_0" departPos="28.94" departSpeed="0.00" departDelay="0.00" arrival="-1.00" arrivalLane="" arrivalPos="-1.00" arrivalSpeed="-1.00" duration="3600.00" routeLength="252.98" waitingTime="3575.00" waitingCount="3" stopTime="0.00" timeLoss="3586.09" rerouteNo="0" devices="tripinfo_f_0_0.0" vType="type1" speedFactor="0.98" vaporized="end"/>
    <tripinfo id="f_0_1.0" depart="0.00" departLane="np16_nt1_0" departPos="8.54" departSpeed="0.00" departDelay="0.00" arrival="-1.00" arrivalLane="" arrivalPos="-1.00" arrivalSpeed="-1.00" duration="3600.00" routeLength="263.23" waitingTime="3573.00" waitingCount="3" stopTime="0.00" timeLoss="3585.44" rerouteNo="0" devices="tripinfo_f_0_1.0" vType="type1" speedFactor="0.97" vaporized="end"/>
    <tripinfo id="f_0_2.0" depart="0.00" departLane="np2_nt2_0" departPos="28.28" departSpeed="0.00" departDelay="0.00" arrival="-1.00" arrivalLane="" arrivalPos="-1.00" arrivalSpeed="-1.00" duration="3600.00" routeLength="626.00" waitingTime="3527.00" waitingCount="4" stopTime="0.00" timeLoss="3542.81" rerouteNo="0" devices="tripinfo_f_0_2.0" vType="type1" speedFactor="0.89" vaporized="end"/>
    <tripinfo id="f_0_3.0" depart="0.00" departLane="np3_nt3_0" departPos="51.25" departSpeed="0.00" departDelay="0.00" arrival="-1.00" arrivalLane="" arrivalPos="-1.00" arrivalSpeed="-1.00" duration="3600.00" routeLength="12.35" waitingTime="3596.00" waitingCount="1" stopTime="0.00" timeLoss="3597.82" rerouteNo="0" devices="tripinfo_f_0_3.0" vType="type1" speedFactor="0.95" vaporized="end"/>
    <tripinfo id="f_0_2.1" depart="9.00" departLane="np2_nt2_0" departPos="13.62" departSpeed="0.00" departDelay="0.82" arrival="-1.00" arrivalLane="" arrivalPos="-1.00" arrivalSpeed="-1.00" duration="3591.00" routeLength="633.16" waitingTime="3517.00" waitingCount="4" stopTime="0.00" timeLoss="3545.80" rerouteNo="0" devices="tripinfo_f_0_2.1" vType="type1" speedFactor="1.14" vaporized="end"/>
    <tripinfo id="f_0_3.1" depart="9.00" departLane="np3_nt3_0" departPos="20.84" departSpeed="0.00" departDelay="0.82" arrival="-1.00" arrivalLane="" arrivalPos="-1.00" arrivalSpeed="-1.00" duration="3591.00" routeLength="35.26" waitingTime="3583.00" waitingCount="1" stopTime="0.00" timeLoss="3586.47" rerouteNo="0" devices="tripinfo_f_0_3.1" vType="type1" speedFactor="0.91" vaporized="end"/>
    <tripinfo id="f_0_0.1" depart="14.00" departLane="np13_nt13_0" departPos="27.38" departSpeed="0.00" departDelay="0.36" arrival="-1.00" arrivalLane="" arrivalPos="-1.00" arrivalSpeed="-1.00" duration="3586.00" routeLength="239.42" waitingTime="3561.00" waitingCount="3" stopTime="0.00" timeLoss="3572.70" rerouteNo="0" devices="tripinfo_f_0_0.1" vType="type1" speedFactor="0.97" vaporized="end"/>
    <tripinfo id="f_0_1.1" depart="14.00" departLane="np16_nt1_0" departPos="51.86" departSpeed="0.00" departDelay="0.36" arrival="-1.00" arrivalLane="" arrivalPos="-1.00" arrivalSpeed="-1.00" duration="3586.00" routeLength="212.41" waitingTime="3562.00" waitingCount="3" stopTime="0.00" timeLoss="3573.80" rerouteNo="0" devices="tripinfo_f_0_1.1" vType="type1" speedFactor="0.95" vaporized="end"/>
    <tripinfo id="f_0_2.2" depart="17.00" departLane="np2_nt2_0" departPos="1.93" departSpeed="0.00" departDelay="0.64" arrival="-1.00" arrivalLane="" arrivalPos="-1.00" arrivalSpeed="-1.00" duration="3583.00" routeLength="637.35" waitingTime="3496.00" waitingCount="4" stopTime="0.00" timeLoss="3520.77" rerouteNo="0" devices="tripinfo_f_0_2.2" vType="type1" speedFactor="0.84" vaporized="end"/>
    <tripinfo id="f_0_3.2" depart="17.00" departLane="np3_nt3_0" departPos="34.19" departSpeed="0.00" departDelay="0.64" arrival="-1.00" arrivalLane="" arrivalPos="-1.00" arrivalSpeed="-1.00" duration="3583.00" routeLength="14.41" waitingTime="3578.00" waitingCount="1" stopTime="0.00" timeLoss="3580.62" rerouteNo="0" devices="tripinfo_f_0_3.2" vType="type1" speedFactor="0.95" vaporized="end"/>
    <tripinfo id="f_0_2.3" depart="25.00" departLane="np2_nt2_0" departPos="7.88" departSpeed="0.00" departDelay="0.45" arrival="-1.00" arrivalLane="" arrivalPos="-1.00" arrivalSpeed="-1.00" duration="3575.00" routeLength="623.90" waitingTime="3495.00" waitingCount="4" stopTime="0.00" timeLoss="3531.35" rerouteNo="0" devices="tripinfo_f_0_2.3" vType="type1" speedFactor="1.17" vaporized="end"/>
    <tripinfo id="f_0_3.3" depart="25.00" departLane="np3_nt3_0" departPos="2.42" departSpeed="0.00" departDelay="0.45" arrival="-1.00" arrivalLane="" arrivalPos="-1.00" arrivalSpeed="-1.00" duration="3575.00" routeLength="38.67" waitingTime="3569.00" waitingCount="1" stopTime="0.00" timeLoss="3570.75" rerouteNo="0" devices="tripinfo_f_0_3.3" vType="type1" speedFactor="1.08" vaporized="end"/>
    <tripinfo id="f_0_0.2" depart="28.00" departLane="np13_nt13_0" departPos="6.56" departSpeed="0.00" departDelay="0.73" arrival="-1.00" arrivalLane="" arrivalPos="-1.00" arrivalSpeed="-1.00" duration="3572.00" routeLength="252.74" waitingTime="3541.00" waitingCount="3" stopTime="0.00" timeLoss="3558.49" rerouteNo="0" devices="tripinfo_f_0_0.2" vType="type1" speedFactor="1.01" vaporized="end"/>
    <tripinfo id="f_0_1.2" depart="28.00" departLane="np16_nt1_0" departPos="35.24" departSpeed="0.00" departDelay="0.73" arrival="-1.00" arrivalLane="" arrivalPos="-1.00" arrivalSpeed="-1.00" duration="3572.00" routeLength="221.53" waitingTime="3544.00" waitingCount="3" stopTime="0.00" timeLoss="3559.70" rerouteNo="0" devices="tripinfo_f_0_1.2" vType="type1" speedFactor="0.98" vaporized="end"/>
    <tripinfo id="f_0_2.4" depart="33.00" departLane="np2_nt2_0" departPos="24.52" departSpeed="0.00" departDelay="0.27" arrival="-1.00" arrivalLane="" arrivalPos="-1.00" arrivalSpeed="-1.00" duration="3567.00" routeLength="599.76" waitingTime="3486.00" waitingCount="4" stopTime="0.00" timeLoss="3523.98" rerouteNo="0" devices="tripinfo_f_0_2.4" vType="type1" speedFactor="1.13" vaporized="end"/>
    <tripinfo id="f_0_3.4" depart="33.00" departLane="np3_nt3_0" departPos="7.20" departSpeed="0.00" departDelay="0.27" arrival="-1.00" arrivalLane="" arrivalPos="-1.00" arrivalSpeed="-1.00" duration="3567.00" routeLength="26.39" waitingTime="3561.00" waitingCount="1" stopTime="0.00" timeLoss="3563.88" rerouteNo="0" devices="tripinfo_f_0_3.4" vType="type1" speedFactor="1.13" vaporized="end"/>
    <tripinfo id="f_0_0.3" depart="41.00" departLane="np13_nt13_0" departPos="16.29" departSpeed="0.00" departDelay="0.09" arrival="-1.00" arrivalLane="" arrivalPos="-1.00" arrivalSpeed="-1.00" duration="3559.00" routeLength="235.51" waitingTime="3529.00" waitingCount="3" stopTime="0.00" timeLoss="3545.72" rerouteNo="0" devices="tripinfo_f_0_0.3" vType="type1" speedFactor="0.96" vaporized="end"/>
    <tripinfo id="f_0_1.3" depart="41.00" departLane="np16_nt1_0" departPos="0.17" departSpeed="0.00" departDelay="0.09" arrival="-1.00" arrivalLane="" arrivalPos="-1.00" arrivalSpeed="-1.00" duration="3559.00" routeLength="241.60" waitingTime="3528.00" waitingCount="3" stopTime="0.00" timeLoss="3546.84" rerouteNo="0" devices="tripinfo_f_0_1.3" vType="type1" speedFactor="1.08" vaporized="end"/>
    <tripinfo id="f_0_2.5" depart="41.00" departLane="np2_nt2_0" departPos="32.09" departSpeed="0.00" departDelay="0.09" arrival="-1.00" arrivalLane="" arrivalPos="-1.00" arrivalSpeed="-1.00" duration="3559.00" routeLength="584.68" waitingTime="3471.00" waitingCount="4" stopTime="0.00" timeLoss="3503.68" rerouteNo="0" devices="tripinfo_f_0_2.5" vType="type1" speedFactor="0.86" vaporized="end"/>
    <tripinfo id="f_0_3.5" depart="41.00" departLane="np3_nt3_0" departPos="23.07" departSpeed="0.00" departDelay="0.09" arrival="-1.00" arrivalLane="" arrivalPos="-1.00" arrivalSpeed="-1.00" duration="3559.00" routeLength="3.03" waitingTime="3556.00" waitingCount="1" stopTime="0.00" timeLoss="3557.65" rerouteNo="0" devices="tripinfo_f_0_3.5" vType="type1" speedFactor="0.79" vaporized="end"/>
    <tripinfo id="f_0_2.6" depart="50.00" departLane="np2_nt2_0" departPos="39.05" departSpeed="0.00" departDelay="0.91" arrival="-1.00" arrivalLane="" arrivalPos="-1.00" arrivalSpeed="-1.00" duration="3550.00" routeLength="570.23" waitingTime="3466.00" waitingCount="5" stopTime="0.00" timeLoss="3506.11" rerouteNo="0" devices="tripinfo_f_0_2.6" vType="type1" speedFactor="1.04" vaporized="end"/>
    <tripinfo id="f_0_3.6" depart="50.00" departLane="np3_nt3_0" departPos="13.72" departSpeed="0.00" departDelay="0.91" arrival="-1.00" arrivalLane="" arrivalPos="-1.00" arrivalSpeed="-1.00" duration="3550.00" routeLength="4.87" waitingTime="3546.00" waitingCount="1" stopTime="0.00" timeLoss="3548.54" rerouteNo="0" devices="tripinfo_f_0_3.6" vType="type1" speedFactor="0.96" vaporized="end"/>
    <tripinfo id="f_0_0.4" depart="55.00" departLane="np13_nt13_0" departPos="12.57" departSpeed="0.00" departDelay="0.46" arrival="-1.00" arrivalLane="" arrivalPos="-1.00" arrivalSpeed="-1.00" duration="3545.00" routeLength="231.72" waitingTime="3513.00" waitingCount="3" stopTime="0.00" timeLoss="3533.48" rerouteNo="0" devices="tripinfo_f_0_0.4" vType="type1" speedFactor="1.10" vaporized="end"/>
    <tripinfo id="f_0_1.4" depart="55.00" departLane="np16_nt1_0" departPos="29.65" departSpeed="0.00" departDelay="0.46" arrival="-1.00" arrivalLane="" arrivalPos="-1.00" arrivalSpeed="-1.00" duration="3545.00" routeLength="204.62" waitingTime="3513.00" waitingCount="3" stopTime="0.00" timeLoss="3532.95" rerouteNo="0" devices="tripinfo_f_0_1.4" vType="type1" speedFactor="0.93" vaporized="end"/>
    <tripinfo id="f_0_2.7" depart="58.00" departLane="np2_nt2_0" departPos="38.87" departSpeed="0.00" departDelay="0.73" arrival="-1.00" arrivalLane="" arrivalPos="-1.00" arrivalSpeed="-1.00" duration="3542.00" routeLength="562.90" waitingTime="3457.00" waitingCount="4" stopTime="0.00" timeLoss="3492.87" rerouteNo="0" devices="tripinfo_f_0_2.7" vType="type1" speedFactor="0.92" vaporized="end"/>
    <tripinfo id="f_0_3.7" depart="58.00" departLane="np3_nt3_0" departPos="2.80" departSpeed="0.00" departDelay="0.73" arrival="-1.00" arrivalLane="" arrivalPos="-1.00" arrivalSpeed="-1.00" duration="3542.00" routeLength="8.30" waitingTime="3537.00" waitingCount="1" stopTime="0.00" timeLoss="3540.24" rerouteNo="0" devices="tripinfo_f_0_3.7" vType="type1" speedFactor="1.00" vaporized="end"/>
    <tripinfo id="f_0_2.8" depart="66.00" departLane="np2_nt2_0" departPos="26.06" departSpeed="0.00" departDelay="0.54" arrival="-1.00" arrivalLane="" arrivalPos="-1.00" arrivalSpeed="-1.00" duration="3534.00" routeLength="568.21" waitingTime="3450.00" waitingCount="3" stopTime="0.00" timeLoss="3492.09" rerouteNo="0" devices="tripinfo_f_0_2.8" vType="type1" speedFactor="1.11" vaporized="end"/>
    <tripinfo id="f_0_3.8" depart="66.00" departLane="np3_nt3_0" departPos="3.39" departSpeed="0.00" departDelay="0.54" arrival="-1.00" arrivalLane="" arrivalPos="-1.00" arrivalSpeed="-1.00" duration="3534.00" routeLength="0.20" waitingTime="3532.00" waitingCount="1" stopTime="0.00" timeLoss="3532.98" rerouteNo="0" devices="tripinfo_f_0_3.8" vType="type1" speedFactor="0.80" vaporized="end"/>
    <tripinfo id="f_0_0.5" depart="69.00" departLane="np13_nt13_0" departPos="14.66" departSpeed="0.00" departDelay="0.82" arrival="-1.00" arrivalLane="" arrivalPos="-1.00" arrivalSpeed="-1.00" duration="3531.00" routeLength="222.14" waitingTime="3500.00" waitingCount="3" stopTime="0.00" timeLoss="3519.18" rerouteNo="0" devices="tripinfo_f_0_0.5" vType="type1" speedFactor="1.03" vaporized="end"/>
    <tripinfo id="f_0_1.5" depart="69.00" departLane="np16_nt1_0" departPos="7.24" departSpeed="0.00" departDelay="0.82" arrival="-1.00" arrivalLane="" arrivalPos="-1.00" arrivalSpeed="-1.00" duration="3531.00" routeLength="219.53" waitingTime="3496.00" waitingCount="3" stopTime="0.00" timeLoss="3521.18" rerouteNo="0" devices="tripinfo_f_0_1.5" vType="type1" speedFactor="1.24" vaporized="end"/>
    <tripinfo id="f_0_2.9" depart="74.00" departLane="np2_nt2_0" departPos="12.22" departSpeed="0.00" departDelay="0.36" arrival="-1.00" arrivalLane="" arrivalPos="-1.00" arrivalSpeed="-1.00" duration="3526.00" routeLength="574.55" waitingTime="3441.00" waitingCount="3" stopTime="0.00" timeLoss="3487.52" rerouteNo="0" devices="tripinfo_f_0_2.9" vType="type1" speedFactor="1.22" vaporized="end"/>
    <tripinfo id="f_0_0.6" depart="82.00" departLane="np13_nt13_0" departPos="2.30" departSpeed="0.00" departDelay="0.18" arrival="-1.00" arrivalLane="" arrivalPos="-1.00" arrivalSpeed="-1.00" duration="3518.00" routeLength="226.99" waitingTime="3485.00" waitingCount="3" stopTime="0.00" timeLoss="3507.62" rerouteNo="0" devices="tripinfo_f_0_0.6" vType="type1" speedFactor="1.21" vaporized="end"/>
    <tripinfo id="f_0_1.6" depart="82.00" departLane="np16_nt1_0" departPos="8.59" departSpeed="0.00" departDelay="0.18" arrival="-1.00" arrivalLane="" arrivalPos="-1.00" arrivalSpeed="-1.00" duration="3518.00" routeLength="210.67" waitingTime="3482.00" waitingCount="3" stopTime="0.00" timeLoss="3506.05" rerouteNo="0" devices="tripinfo_f_0_1.6" vType="type1" speedFactor="0.96" vaporized="end"/>
    <tripinfo id="f_0_2.10" depart="82.00" departLane="np2_nt2_0" departPos="27.04" departSpeed="0.00" departDelay="0.18" arrival="-1.00" arrivalLane="" arrivalPos="-1.00" arrivalSpeed="-1.00" duration="3518.00" routeLength="552.23" waitingTime="3431.00" waitingCount="3" stopTime="0.00" timeLoss="3474.09" rerouteNo="0" devices="tripinfo_f_0_2.10" vType="type1" speedFactor="1.01" vaporized="end"/>
    <tripinfo id="f_0_2.11" depart="90.00" departLane="np2_nt2_0" departPos="64.50" departSpeed="0.00" departDelay="0.00" arrival="-1.00" arrivalLane="" arrivalPos="-1.00" arrivalSpeed="-1.00" duration="3510.00" routeLength="507.26" waitingTime="3433.00" waitingCount="4" stopTime="0.00" timeLoss="3465.71" rerouteNo="0" devices="tripinfo_f_0_2.11" vType="type1" speedFactor="0.90" vaporized="end"/>
    <tripinfo id="f_0_0.7" depart="96.00" departLane="np13_nt13_0" departPos="9.62" departSpeed="0.00" departDelay="0.55" arrival="-1.00" arrivalLane="" arrivalPos="-1.00" arrivalSpeed="-1.00" duration="3504.00" routeLength="212.18" waitingTime="3473.00" waitingCount="3" stopTime="0.00" timeLoss="3491.76" rerouteNo="0" devices="tripinfo_f_0_0.7" vType="type1" speedFactor="0.94" vaporized="end"/>
    <tripinfo id="f_0_1.7" depart="96.00" departLane="np16_nt1_0" departPos="10.67" departSpeed="0.00" departDelay="0.55" arrival="-1.00" arrivalLane="" arrivalPos="-1.00" arrivalSpeed="-1.00" duration="3504.00" routeLength="201.10" waitingTime="3467.00" waitingCount="3" stopTime="0.00" timeLoss="3491.92" rerouteNo="0" devices="tripinfo_f_0_1.7" vType="type1" speedFactor="0.91" vaporized="end"/>
    <tripinfo id="f_0_2.12" depart="99.00" departLane="np2_nt2_0" departPos="38.30" departSpeed="0.00" departDelay="0.82" arrival="-1.00" arrivalLane="" arrivalPos="-1.00" arrivalSpeed="-1.00" duration="3501.00" routeLength="525.97" waitingTime="3420.00" waitingCount="4" stopTime="0.00" timeLoss="3460.86" rerouteNo="0" devices="tripinfo_f_0_2.12" vType="type1" speedFactor="1.05" vaporized="end"/>
    <tripinfo id="f_0_2.13" depart="107.00" departLane="np2_nt2_0" departPos="14.73" departSpeed="0.00" departDelay="0.63" arrival="-1.00" arrivalLane="" arrivalPos="-1.00" arrivalSpeed="-1.00" duration="3493.00" routeLength="542.04" waitingTime="3408.00" waitingCount="4" stopTime="0.00" timeLoss="3454.54" rerouteNo="0" devices="tripinfo_f_0_2.13" vType="type1" speedFactor="1.14" vaporized="end"/>
    <tripinfo id="f_0_0.8" depart="110.00" departLane="np13_nt13_0" departPos="0.00" departSpeed="0.00" departDelay="0.91" arrival="-1.00" arrivalLane="" arrivalPos="-1.00" arrivalSpeed="-1.00" duration="3490.00" routeLength="214.29" waitingTime="3456.00" waitingCount="3" stopTime="0.00" timeLoss="3477.46" rerouteNo="0" devices="tripinfo_f_0_0.8" vType="type1" speedFactor="0.93" vaporized="end"/>
    <tripinfo id="f_0_1.8" depart="110.00" departLane="np16_nt1_0" departPos="4.28" departSpeed="0.00" departDelay="0.91" arrival="-1.00" arrivalLane="" arrivalPos="-1.00" arrivalSpeed="-1.00" duration="3490.00" routeLength="192.48" waitingTime="3450.00" waitingCount="3" stopTime="0.00" timeLoss="3477.37" rerouteNo="0" devices="tripinfo_f_0_1.8" vType="type1" speedFactor="0.83" vaporized="end"/>
    <tripinfo id="f_0_2.14" depart="115.00" departLane="np2_nt2_0" departPos="45.70" departSpeed="0.00" departDelay="0.45" arrival="-1.00" arrivalLane="" arrivalPos="-1.00" arrivalSpeed="-1.00" duration="3485.00" routeLength="503.56" waitingTime="3403.00" waitingCount="4" stopTime="0.00" timeLoss="3447.36" rerouteNo="0" devices="tripinfo_f_0_2.14" vType="type1" speedFactor="1.05" vaporized="end"/>
    <tripinfo id="f_0_0.9" depart="131.00" departLane="np13_nt13_0" departPos="0.00" departSpeed="0.00" departDelay="8.28" arrival="-1.00" arrivalLane="" arrivalPos="-1.00" arrivalSpeed="-1.00" duration="3469.00" routeLength="206.79" waitingTime="3438.00" waitingCount="2" stopTime="0.00" timeLoss="3459.00" rerouteNo="0" devices="tripinfo_f_0_0.9" vType="type1" speedFactor="1.15" vaporized="end"/>
    <tripinfo id="f_0_1.9" depart="507.00" departLane="np16_nt1_0" departPos="66.26" departSpeed="0.00" departDelay="384.28" arrival="-1.00" arrivalLane="" arrivalPos="-1.00" arrivalSpeed="-1.00" duration="3093.00" routeLength="183.01" waitingTime="3071.00" waitingCount="2" stopTime="0.00" timeLoss="3082.41" rerouteNo="0" devices="tripinfo_f_0_1.9" vType="type1" speedFactor="0.95" vaporized="end"/>
    <tripinfo id="f_0_2.15" depart="123.00" departLane="np2_nt2_0" departPos="37.82" departSpeed="0.00" departDelay="0.27" arrival="-1.00" arrivalLane="" arrivalPos="-1.00" arrivalSpeed="-1.00" duration="3477.00" routeLength="503.95" waitingTime="3391.00" waitingCount="4" stopTime="0.00" timeLoss="3435.77" rerouteNo="0" devices="tripinfo_f_0_2.15" vType="type1" speedFactor="0.96" vaporized="end"/>
    <tripinfo id="f_0_2.16" depart="131.00" departLane="np2_nt2_0" departPos="47.43" departSpeed="0.00" departDelay="0.09" arrival="-1.00" arrivalLane="" arrivalPos="-1.00" arrivalSpeed="-1.00" duration="3469.00" routeLength="486.83" waitingTime="3383.00" waitingCount="4" stopTime="0.00" timeLoss="3429.12" rerouteNo="0" devices="tripinfo_f_0_2.16" vType="type1" speedFactor="0.96" vaporized="end"/>
    <tripinfo id="f_0_0.10" depart="137.00" departLane="np13_nt13_0" departPos="16.52" departSpeed="0.00" departDelay="0.64" arrival="-1.00" arrivalLane="" arrivalPos="-1.00" arrivalSpeed="-1.00" duration="3463.00" routeLength="182.76" waitingTime="3436.00" waitingCount="2" stopTime="0.00" timeLoss="3452.49" rerouteNo="0" devices="tripinfo_f_0_0.10" vType="type1" speedFactor="0.96" vaporized="end"/>
    <tripinfo id="f_0_1.10" depart="511.00" departLane="np16_nt1_0" departPos="0.00" departSpeed="0.00" departDelay="374.64" arrival="-1.00" arrivalLane="" arrivalPos="-1.00" arrivalSpeed="-1.00" duration="3089.00" routeLength="151.75" waitingTime="3045.00" waitingCount="2" stopTime="0.00" timeLoss="3080.69" rerouteNo="0" devices="tripinfo_f_0_1.10" vType="type1" speedFactor="1.04" vaporized="end"/>
    <tripinfo id="f_0_2.17" depart="140.00" departLane="np2_nt2_0" departPos="33.48" departSpeed="0.00" departDelay="0.91" arrival="-1.00" arrivalLane="" arrivalPos="-1.00" arrivalSpeed="-1.00" duration="3460.00" routeLength="493.28" waitingTime="3369.00" waitingCount="4" stopTime="0.00" timeLoss="3416.68" rerouteNo="0" devices="tripinfo_f_0_2.17" vType="type1" speedFactor="0.91" vaporized="end"/>
    <tripinfo id="f_0_2.18" depart="148.00" departLane="np2_nt2_0" departPos="52.79" departSpeed="0.00" departDelay="0.72" arrival="-1.00" arrivalLane="" arrivalPos="-1.00" arrivalSpeed="-1.00" duration="3452.00" routeLength="466.47" waitingTime="3366.00" waitingCount="4" stopTime="0.00" timeLoss="3418.52" rerouteNo="0" devices="tripinfo_f_0_2.18" vType="type1" speedFactor="1.11" vaporized="end"/>
    <tripinfo id="f_0_0.11" depart="150.00" departLane="np13_nt13_0" departPos="52.75" departSpeed="0.00" departDelay="0.00" arrival="-1.00" arrivalLane="" arrivalPos="-1.00" arrivalSpeed="-1.00" duration="3450.00" routeLength="139.04" waitingTime="3429.00" waitingCount="2" stopTime="0.00" timeLoss="3443.17" rerouteNo="0" devices="tripinfo_f_0_0.11" vType="type1" speedFactor="1.19" vaporized="end"/>
    <tripinfo id="f_0_1.11" depart="516.00" departLane="np16_nt1_0" departPos="0.00" departSpeed="0.00" departDelay="366.00" arrival="-1.00" arrivalLane="" arrivalPos="-1.00" arrivalSpeed="-1.00" duration="3084.00" routeLength="144.25" waitingTime="3042.00" waitingCount="2" stopTime="0.00" timeLoss="3077.06" rerouteNo="0" devices="tripinfo_f_0_1.11" vType="type1" speedFactor="1.21" vaporized="end"/>
    <tripinfo id="f_0_2.19" depart="156.00" departLane="np2_nt2_0" departPos="35.44" departSpeed="0.00" departDelay="0.54" arrival="-1.00" arrivalLane="" arrivalPos="-1.00" arrivalSpeed="-1.00" duration="3444.00" routeLength="476.32" waitingTime="3357.00" waitingCount="4" stopTime="0.00" timeLoss="3406.37" rerouteNo="0" devices="tripinfo_f_0_2.19" vType="type1" speedFactor="0.99" vaporized="end"/>
    <tripinfo id="f_0_0.12" depart="164.00" departLane="np13_nt13_0" departPos="13.57" departSpeed="0.00" departDelay="0.37" arrival="-1.00" arrivalLane="" arrivalPos="-1.00" arrivalSpeed="-1.00" duration="3436.00" routeLength="170.71" waitingTime="3411.00" waitingCount="2" stopTime="0.00" timeLoss="3426.02" rerouteNo="0" devices="tripinfo_f_0_0.12" vType="type1" speedFactor="0.95" vaporized="end"/>
    <tripinfo id="f_0_1.12" depart="518.00" departLane="np16_nt1_0" departPos="31.97" departSpeed="0.00" departDelay="354.37" arrival="-1.00" arrivalLane="" arrivalPos="-1.00" arrivalSpeed="-1.00" duration="3082.00" routeLength="134.79" waitingTime="3050.00" waitingCount="2" stopTime="0.00" timeLoss="3074.56" rerouteNo="0" devices="tripinfo_f_0_1.12" vType="type1" speedFactor="1.05" vaporized="end"/>
    <tripinfo id="f_0_2.20" depart="164.00" departLane="np2_nt2_0" departPos="45.90" departSpeed="0.00" departDelay="0.36" arrival="-1.00" arrivalLane="" arrivalPos="-1.00" arrivalSpeed="-1.00" duration="3436.00" routeLength="458.36" waitingTime="3349.00" waitingCount="4" stopTime="0.00" timeLoss="3402.59" rerouteNo="0" devices="tripinfo_f_0_2.20" vType="type1" speedFactor="1.09" vaporized="end"/>
    <tripinfo id="f_0_2.21" depart="172.00" departLane="np2_nt2_0" departPos="24.29" departSpeed="0.00" departDelay="0.18" arrival="-1.00" arrivalLane="" arrivalPos="-1.00" arrivalSpeed="-1.00" duration="3428.00" routeLength="472.46" waitingTime="3335.00" waitingCount="3" stopTime="0.00" timeLoss="3387.27" rerouteNo="0" devices="tripinfo_f_0_2.21" vType="type1" speedFactor="0.91" vaporized="end"/>
    <tripinfo id="f_0_0.13" depart="178.00" departLane="np13_nt13_0" departPos="8.17" departSpeed="0.00" departDelay="0.73" arrival="-1.00" arrivalLane="" arrivalPos="-1.00" arrivalSpeed="-1.00" duration="3422.00" routeLength="168.62" waitingTime="3397.00" waitingCount="2" stopTime="0.00" timeLoss="3412.18" rerouteNo="0" devices="tripinfo_f_0_0.13" vType="type1" speedFactor="0.96" vaporized="end"/>
    <tripinfo id="f_0_1.13" depart="519.00" departLane="np16_nt1_0" departPos="0.00" departSpeed="0.00" departDelay="341.73" arrival="-1.00" arrivalLane="" arrivalPos="-1.00" arrivalSpeed="-1.00" duration="3081.00" routeLength="129.25" waitingTime="3038.00" waitingCount="3" stopTime="0.00" timeLoss="3073.45" rerouteNo="0" devices="tripinfo_f_0_1.13" vType="type1" speedFactor="0.99" vaporized="end"/>
    <tripinfo id="f_0_2.22" depart="180.00" departLane="np2_nt2_0" departPos="22.63" departSpeed="0.00" departDelay="0.00" arrival="-1.00" arrivalLane="" arrivalPos="-1.00" arrivalSpeed="-1.00" duration="3420.00" routeLength="466.62" waitingTime="3334.00" waitingCount="3" stopTime="0.00" timeLoss="3378.11" rerouteNo="0" devices="tripinfo_f_0_2.22" vType="type1" speedFactor="0.88" vaporized="end"/>
    <tripinfo id="f_0_2.23" depart="189.00" departLane="np2_nt2_0" departPos="14.14" departSpeed="0.00" departDelay="0.81" arrival="-1.00" arrivalLane="" arrivalPos="-1.00" arrivalSpeed="-1.00" duration="3411.00" routeLength="467.62" waitingTime="3333.00" waitingCount="3" stopTime="0.00" timeLoss="3374.86" rerouteNo="0" devices="tripinfo_f_0_2.23" vType="type1" speedFactor="1.04" vaporized="end"/>
    <tripinfo id="f_0_0.14" depart="191.00" departLane="np13_nt13_0" departPos="56.21" departSpeed="0.00" departDelay="0.10" arrival="-1.00" arrivalLane="" arrivalPos="-1.00" arrivalSpeed="-1.00" duration="3409.00" routeLength="113.08" waitingTime="3388.00" waitingCount="2" stopTime="0.00" timeLoss="3402.48" rerouteNo="0" devices="tripinfo_f_0_0.14" vType="type1" speedFactor="1.02" vaporized="end"/>
    <tripinfo id="f_0_1.14" depart="519.00" departLane="np16_nt1_0" departPos="41.14" departSpeed="0.00" departDelay="328.10" arrival="-1.00" arrivalLane="" arrivalPos="-1.00" arrivalSpeed="-1.00" duration="3081.00" routeLength="140.62" waitingTime="3050.00" waitingCount="3" stopTime="0.00" timeLoss="3073.43" rerouteNo="0" devices="tripinfo_f_0_1.14" vType="type1" speedFactor="1.07" vaporized="end"/>
    <tripinfo id="f_0_2.24" depart="197.00" departLane="np2_nt2_0" departPos="54.10" departSpeed="0.00" departDelay="0.63" arrival="-1.00" arrivalLane="" arrivalPos="-1.00" arrivalSpeed="-1.00" duration="3403.00" routeLength="400.18" waitingTime="3343.00" waitingCount="3" stopTime="0.00" timeLoss="3369.66" rerouteNo="0" devices="tripinfo_f_0_2.24" vType="type1" speedFactor="0.91" vaporized="end"/>
    <tripinfo id="f_0_0.15" depart="205.00" departLane="np13_nt13_0" departPos="40.28" departSpeed="0.00" departDelay="0.46" arrival="-1.00" arrivalLane="" arrivalPos="-1.00" arrivalSpeed="-1.00" duration="3395.00" routeLength="121.51" waitingTime="3372.00" waitingCount="2" stopTime="0.00" timeLoss="3388.08" rerouteNo="0" devices="tripinfo_f_0_0.15" vType="type1" speedFactor="1.03" vaporized="end"/>
    <tripinfo id="f_0_1.15" depart="519.00" departLane="np16_nt1_0" departPos="66.05" departSpeed="0.00" departDelay="314.46" arrival="-1.00" arrivalLane="" arrivalPos="-1.00" arrivalSpeed="-1.00" duration="3081.00" routeLength="138.21" waitingTime="3057.00" waitingCount="2" stopTime="0.00" timeLoss="3073.16" rerouteNo="0" devices="tripinfo_f_0_1.15" vType="type1" speedFactor="1.01" vaporized="end"/>
    <tripinfo id="f_0_2.25" depart="205.00" departLane="np2_nt2_0" departPos="19.70" departSpeed="0.00" departDelay="0.45" arrival="-1.00" arrivalLane="" arrivalPos="-1.00" arrivalSpeed="-1.00" duration="3395.00" routeLength="427.07" waitingTime="3324.00" waitingCount="3" stopTime="0.00" timeLoss="3347.05" rerouteNo="0" devices="tripinfo_f_0_2.25" vType="type1" speedFactor="0.68" vaporized="end"/>
    <tripinfo id="f_0_2.26" depart="213.00" departLane="np2_nt2_0" departPos="26.39" departSpeed="0.00" departDelay="0.27" arrival="-1.00" arrivalLane="" arrivalPos="-1.00" arrivalSpeed="-1.00" duration="3387.00" routeLength="405.39" waitingTime="3323.00" waitingCount="4" stopTime="0.00" timeLoss="3351.38" rerouteNo="0" devices="tripinfo_f_0_2.26" vType="type1" speedFactor="0.88" vaporized="end"/>
    <tripinfo id="f_0_0.16" depart="219.00" departLane="np13_nt13_0" departPos="64.25" departSpeed="0.00" departDelay="0.82" arrival="-1.00" arrivalLane="" arrivalPos="-1.00" arrivalSpeed="-1.00" duration="3381.00" routeLength="90.03" waitingTime="3361.00" waitingCount="2" stopTime="0.00" timeLoss="3375.93" rerouteNo="0" devices="tripinfo_f_0_0.16" vType="type1" speedFactor="1.11" vaporized="end"/>
    <tripinfo id="f_0_1.16" depart="520.00" departLane="np16_nt1_0" departPos="49.30" departSpeed="0.00" departDelay="301.82" arrival="-1.00" arrivalLane="" arrivalPos="-1.00" arrivalSpeed="-1.00" duration="3080.00" routeLength="139.96" waitingTime="3053.00" waitingCount="3" stopTime="0.00" timeLoss="3071.68" rerouteNo="0" devices="tripinfo_f_0_1.16" vType="type1" speedFactor="0.96" vaporized="end"/>
    <tripinfo id="f_0_2.27" depart="221.00" departLane="np2_nt2_0" departPos="38.66" departSpeed="0.00" departDelay="0.09" arrival="-1.00" arrivalLane="" arrivalPos="-1.00" arrivalSpeed="-1.00" duration="3379.00" routeLength="370.61" waitingTime="3317.00" waitingCount="6" stopTime="0.00" timeLoss="3352.40" rerouteNo="0" devices="tripinfo_f_0_2.27" vType="type1" speedFactor="1.05" vaporized="end"/>
    <tripinfo id="f_0_2.28" depart="230.00" departLane="np2_nt2_0" departPos="3.58" departSpeed="0.00" departDelay="0.90" arrival="-1.00" arrivalLane="" arrivalPos="-1.00" arrivalSpeed="-1.00" duration="3370.00" routeLength="398.19" waitingTime="3299.00" waitingCount="5" stopTime="0.00" timeLoss="3338.08" rerouteNo="0" devices="tripinfo_f_0_2.28" vType="type1" speedFactor="0.96" vaporized="end"/>