<?xml version="1.0" encoding="UTF-8"?>

<!-- generated on 2023-08-30 18:01:42 by Eclipse SUMO libsumo Version 1.18.0
<configuration xmlns:xsi="http://www.w3.org/2001/XMLSchema-instance" xsi:noNamespaceSchemaLocation="http://sumo.dlr.de/xsd/libsumoConfiguration.xsd">

    <input>
        <net-file value="/home/stefan/RESCO/./environments/arterial4x4/arterial4x4.net.xml"/>
        <route-files value="/home/stefan/RESCO/./environments/arterial4x4/arterial4x4_11.rou.xml"/>
    </input>

    <output>
        <tripinfo-output value="/home/stefan/results/RAINBOW-tr0-arterial4x4-0-drq_norm-wait_norm/tripinfo_11.xml"/>
        <tripinfo-output.write-unfinished value="true"/>
    </output>

    <processing>
        <time-to-teleport value="-1"/>
    </processing>

    <report>
        <no-warnings value="True"/>
        <no-step-log value="True"/>
    </report>

    <random_number>
        <random value="true"/>
    </random_number>

</configuration>
-->

<tripinfos xmlns:xsi="http://www.w3.org/2001/XMLSchema-instance" xsi:noNamespaceSchemaLocation="http://sumo.dlr.de/xsd/tripinfo_file.xsd">
    <tripinfo id="f_0_3.0" depart="0.00" departLane="np3_nt3_0" departPos="48.53" departSpeed="0.00" departDelay="0.00" arrival="121.00" arrivalLane="nt14_np11_0" arrivalPos="75.00" arrivalSpeed="10.51" duration="121.00" routeLength="902.56" waitingTime="35.00" waitingCount="3" stopTime="0.00" timeLoss="54.59" rerouteNo="0" devices="tripinfo_f_0_3.0" vType="type1" speedFactor="1.14" vaporized=""/>
    <tripinfo id="f_0_2.0" depart="0.00" departLane="np2_nt2_0" departPos="28.17" departSpeed="0.00" departDelay="0.00" arrival="140.00" arrivalLane="nt15_np10_0" arrivalPos="75.00" arrivalSpeed="10.08" duration="140.00" routeLength="922.91" waitingTime="33.00" waitingCount="4" stopTime="0.00" timeLoss="57.96" rerouteNo="0" devices="tripinfo_f_0_2.0" vType="type1" speedFactor="0.94" vaporized=""/>
    <tripinfo id="f_0_3.1" depart="9.00" departLane="np3_nt3_0" departPos="52.38" departSpeed="0.00" departDelay="0.82" arrival="146.00" arrivalLane="nt14_np11_0" arrivalPos="75.00" arrivalSpeed="12.09" duration="137.00" routeLength="898.71" waitingTime="50.00" waitingCount="4" stopTime="0.00" timeLoss="72.78" rerouteNo="0" devices="tripinfo_f_0_3.1" vType="type1" speedFactor="1.18" vaporized=""/>
    <tripinfo id="f_0_2.1" depart="9.00" departLane="np2_nt2_0" departPos="21.45" departSpeed="0.00" departDelay="0.82" arrival="166.00" arrivalLane="nt15_np10_0" arrivalPos="75.00" arrivalSpeed="10.12" duration="157.00" routeLength="929.63" waitingTime="57.00" waitingCount="6" stopTime="0.00" timeLoss="84.81" rerouteNo="0" devices="tripinfo_f_0_2.1" vType="type1" speedFactor="1.08" vaporized=""/>
    <tripinfo id="f_0_3.2" depart="17.00" departLane="np3_nt3_0" departPos="16.07" departSpeed="0.00" departDelay="0.64" arrival="169.00" arrivalLane="nt14_np11_0" arrivalPos="75.00" arrivalSpeed="7.26" duration="152.00" routeLength="935.02" waitingTime="33.00" waitingCount="4" stopTime="0.00" timeLoss="62.37" rerouteNo="0" devices="tripinfo_f_0_3.2" vType="type1" speedFactor="0.87" vaporized=""/>
    <tripinfo id="f_0_3.3" depart="25.00" departLane="np3_nt3_0" departPos="26.78" departSpeed="0.00" departDelay="0.45" arrival="171.00" arrivalLane="nt14_np11_0" arrivalPos="75.00" arrivalSpeed="11.66" duration="146.00" routeLength="924.31" waitingTime="29.00" waitingCount="5" stopTime="0.00" timeLoss="73.83" rerouteNo="0" devices="tripinfo_f_0_3.3" vType="type1" speedFactor="1.08" vaporized=""/>
    <tripinfo id="f_0_0.0" depart="0.00" departLane="np13_nt13_0" departPos="4.08" departSpeed="0.00" departDelay="0.00" arrival="172.00" arrivalLane="nt4_np5_0" arrivalPos="75.00" arrivalSpeed="16.91" duration="172.00" routeLength="1343.81" waitingTime="42.00" waitingCount="4" stopTime="0.00" timeLoss="73.10" rerouteNo="0" devices="tripinfo_f_0_0.0" vType="type1" speedFactor="0.94" vaporized=""/>
    <tripinfo id="f_0_2.2" depart="17.00" departLane="np2_nt2_0" departPos="49.82" departSpeed="0.00" departDelay="0.64" arrival="173.00" arrivalLane="nt15_np10_0" arrivalPos="75.00" arrivalSpeed="10.53" duration="156.00" routeLength="901.26" waitingTime="52.00" waitingCount="4" stopTime="0.00" timeLoss="82.09" rerouteNo="0" devices="tripinfo_f_0_2.2" vType="type1" speedFactor="1.02" vaporized=""/>
    <tripinfo id="f_0_3.4" depart="33.00" departLane="np3_nt3_0" departPos="17.21" departSpeed="0.00" departDelay="0.27" arrival="177.00" arrivalLane="nt14_np11_0" arrivalPos="75.00" arrivalSpeed="11.07" duration="144.00" routeLength="933.88" waitingTime="32.00" waitingCount="7" stopTime="0.00" timeLoss="70.11" rerouteNo="0" devices="tripinfo_f_0_3.4" vType="type1" speedFactor="1.06" vaporized=""/>
    <tripinfo id="f_0_1.0" depart="0.00" departLane="np16_nt1_0" departPos="41.45" departSpeed="0.00" departDelay="0.00" arrival="179.00" arrivalLane="nt16_np8_0" arrivalPos="75.00" arrivalSpeed="18.16" duration="179.00" routeLength="1306.43" waitingTime="56.00" waitingCount="4" stopTime="0.00" timeLoss="83.75" rerouteNo="0" devices="tripinfo_f_0_1.0" vType="type1" speedFactor="0.96" vaporized=""/>
    <tripinfo id="f_0_3.5" depart="41.00" departLane="np3_nt3_0" departPos="31.66" departSpeed="0.00" departDelay="0.09" arrival="187.00" arrivalLane="nt14_np11_0" arrivalPos="75.00" arrivalSpeed="9.78" duration="146.00" routeLength="919.43" waitingTime="29.00" waitingCount="6" stopTime="0.00" timeLoss="70.79" rerouteNo="0" devices="tripinfo_f_0_3.5" vType="type1" speedFactor="1.02" vaporized=""/>
    <tripinfo id="f_0_2.3" depart="25.00" departLane="np2_nt2_0" departPos="39.86" departSpeed="0.00" departDelay="0.45" arrival="188.00" arrivalLane="nt15_np10_0" arrivalPos="75.00" arrivalSpeed="8.65" duration="163.00" routeLength="911.22" waitingTime="48.00" waitingCount="5" stopTime="0.00" timeLoss="77.63" rerouteNo="0" devices="tripinfo_f_0_2.3" vType="type1" speedFactor="0.89" vaporized=""/>
    <tripinfo id="f_0_2.4" depart="33.00" departLane="np2_nt2_0" departPos="33.46" departSpeed="0.00" departDelay="0.27" arrival="190.00" arrivalLane="nt15_np10_0" arrivalPos="75.00" arrivalSpeed="10.85" duration="157.00" routeLength="917.62" waitingTime="44.00" waitingCount="4" stopTime="0.00" timeLoss="86.47" rerouteNo="0" devices="tripinfo_f_0_2.4" vType="type1" speedFactor="1.09" vaporized=""/>
    <tripinfo id="f_0_3.6" depart="50.00" departLane="np3_nt3_0" departPos="44.29" departSpeed="0.00" departDelay="0.91" arrival="198.00" arrivalLane="nt14_np11_0" arrivalPos="75.00" arrivalSpeed="9.81" duration="148.00" routeLength="906.80" waitingTime="30.00" waitingCount="6" stopTime="0.00" timeLoss="68.11" rerouteNo="0" devices="tripinfo_f_0_3.6" vType="type1" speedFactor="0.96" vaporized=""/>
    <tripinfo id="f_0_0.1" depart="14.00" departLane="np13_nt13_0" departPos="54.71" departSpeed="0.00" departDelay="0.36" arrival="199.00" arrivalLane="nt4_np5_0" arrivalPos="75.00" arrivalSpeed="17.66" duration="185.00" routeLength="1293.18" waitingTime="48.00" waitingCount="6" stopTime="0.00" timeLoss="89.73" rerouteNo="0" devices="tripinfo_f_0_0.1" vType="type1" speedFactor="0.96" vaporized=""/>
    <tripinfo id="f_0_1.1" depart="14.00" departLane="np16_nt1_0" departPos="33.00" departSpeed="0.00" departDelay="0.36" arrival="199.00" arrivalLane="nt16_np8_0" arrivalPos="75.00" arrivalSpeed="19.75" duration="185.00" routeLength="1314.88" waitingTime="47.00" waitingCount="5" stopTime="0.00" timeLoss="93.19" rerouteNo="0" devices="tripinfo_f_0_1.1" vType="type1" speedFactor="1.00" vaporized=""/>
    <tripinfo id="f_0_0.2" depart="28.00" departLane="np13_nt13_0" departPos="24.16" departSpeed="0.00" departDelay="0.73" arrival="200.00" arrivalLane="nt4_np5_0" arrivalPos="75.00" arrivalSpeed="21.40" duration="172.00" routeLength="1323.73" waitingTime="39.00" waitingCount="7" stopTime="0.00" timeLoss="89.17" rerouteNo="0" devices="tripinfo_f_0_0.2" vType="type1" speedFactor="1.11" vaporized=""/>
    <tripinfo id="f_0_3.7" depart="58.00" departLane="np3_nt3_0" departPos="6.52" departSpeed="0.00" departDelay="0.73" arrival="200.00" arrivalLane="nt14_np11_0" arrivalPos="75.00" arrivalSpeed="9.79" duration="142.00" routeLength="944.57" waitingTime="24.00" waitingCount="4" stopTime="0.00" timeLoss="60.48" rerouteNo="0" devices="tripinfo_f_0_3.7" vType="type1" speedFactor="0.97" vaporized=""/>
    <tripinfo id="f_0_0.3" depart="41.00" departLane="np13_nt13_0" departPos="28.57" departSpeed="0.00" departDelay="0.09" arrival="208.00" arrivalLane="nt4_np5_0" arrivalPos="75.00" arrivalSpeed="18.00" duration="167.00" routeLength="1319.32" waitingTime="34.00" waitingCount="5" stopTime="0.00" timeLoss="76.96" rerouteNo="0" devices="tripinfo_f_0_0.3" vType="type1" speedFactor="1.02" vaporized=""/>
    <tripinfo id="f_0_1.2" depart="28.00" departLane="np16_nt1_0" departPos="10.18" departSpeed="0.00" departDelay="0.73" arrival="209.00" arrivalLane="nt16_np8_0" arrivalPos="75.00" arrivalSpeed="16.43" duration="181.00" routeLength="1337.70" waitingTime="39.00" waitingCount="5" stopTime="0.00" timeLoss="78.95" rerouteNo="0" devices="tripinfo_f_0_1.2" vType="type1" speedFactor="0.91" vaporized=""/>
    <tripinfo id="f_0_0.4" depart="55.00" departLane="np13_nt13_0" departPos="17.10" departSpeed="0.00" departDelay="0.46" arrival="218.00" arrivalLane="nt4_np5_0" arrivalPos="75.00" arrivalSpeed="21.36" duration="163.00" routeLength="1330.79" waitingTime="43.00" waitingCount="4" stopTime="0.00" timeLoss="75.95" rerouteNo="0" devices="tripinfo_f_0_0.4" vType="type1" speedFactor="1.07" vaporized=""/>
    <tripinfo id="f_0_0.5" depart="69.00" departLane="np13_nt13_0" departPos="18.60" departSpeed="0.00" departDelay="0.82" arrival="219.00" arrivalLane="nt4_np5_0" arrivalPos="75.00" arrivalSpeed="23.74" duration="150.00" routeLength="1329.29" waitingTime="30.00" waitingCount="5" stopTime="0.00" timeLoss="74.56" rerouteNo="0" devices="tripinfo_f_0_0.5" vType="type1" speedFactor="1.22" vaporized=""/>
    <tripinfo id="f_0_0.6" depart="82.00" departLane="np13_nt13_0" departPos="17.06" departSpeed="0.00" departDelay="0.18" arrival="221.00" arrivalLane="nt4_np5_0" arrivalPos="75.00" arrivalSpeed="18.91" duration="139.00" routeLength="1330.83" waitingTime="14.00" waitingCount="3" stopTime="0.00" timeLoss="51.23" rerouteNo="0" devices="tripinfo_f_0_0.6" vType="type1" speedFactor="1.05" vaporized=""/>
    <tripinfo id="f_0_3.8" depart="66.00" departLane="np3_nt3_0" departPos="45.83" departSpeed="0.00" departDelay="0.54" arrival="232.00" arrivalLane="nt14_np11_0" arrivalPos="75.00" arrivalSpeed="9.60" duration="166.00" routeLength="905.26" waitingTime="55.00" waitingCount="5" stopTime="0.00" timeLoss="90.00" rerouteNo="0" devices="tripinfo_f_0_3.8" vType="type1" speedFactor="0.99" vaporized=""/>
    <tripinfo id="f_0_0.7" depart="96.00" departLane="np13_nt13_0" departPos="36.65" departSpeed="0.00" departDelay="0.55" arrival="263.00" arrivalLane="nt4_np5_0" arrivalPos="75.00" arrivalSpeed="18.23" duration="167.00" routeLength="1311.24" waitingTime="39.00" waitingCount="3" stopTime="0.00" timeLoss="70.14" rerouteNo="0" devices="tripinfo_f_0_0.7" vType="type1" speedFactor="0.95" vaporized=""/>
    <tripinfo id="f_0_0.8" depart="110.00" departLane="np13_nt13_0" departPos="25.38" departSpeed="0.00" departDelay="0.91" arrival="265.00" arrivalLane="nt4_np5_0" arrivalPos="75.00" arrivalSpeed="21.10" duration="155.00" routeLength="1322.51" waitingTime="23.00" waitingCount="4" stopTime="0.00" timeLoss="72.40" rerouteNo="0" devices="tripinfo_f_0_0.8" vType="type1" speedFactor="1.12" vaporized=""/>
    <tripinfo id="f_0_2.5" depart="41.00" departLane="np2_nt2_0" departPos="7.96" departSpeed="0.00" departDelay="0.09" arrival="269.00" arrivalLane="nt15_np10_0" arrivalPos="75.00" arrivalSpeed="8.24" duration="228.00" routeLength="943.12" waitingTime="94.00" waitingCount="6" stopTime="0.00" timeLoss="130.87" rerouteNo="0" devices="tripinfo_f_0_2.5" vType="type1" speedFactor="0.82" vaporized=""/>
    <tripinfo id="f_0_2.6" depart="50.00" departLane="np2_nt2_0" departPos="1.15" departSpeed="0.00" departDelay="0.91" arrival="271.00" arrivalLane="nt15_np10_0" arrivalPos="75.00" arrivalSpeed="11.11" duration="221.00" routeLength="949.93" waitingTime="93.00" waitingCount="6" stopTime="0.00" timeLoss="156.21" rerouteNo="0" devices="tripinfo_f_0_2.6" vType="type1" speedFactor="1.24" vaporized=""/>
    <tripinfo id="f_0_3.9" depart="74.00" departLane="np3_nt3_0" departPos="33.90" departSpeed="0.00" departDelay="0.36" arrival="272.00" arrivalLane="nt14_np11_0" arrivalPos="75.00" arrivalSpeed="9.27" duration="198.00" routeLength="917.19" waitingTime="89.00" waitingCount="3" stopTime="0.00" timeLoss="118.18" rerouteNo="0" devices="tripinfo_f_0_3.9" vType="type1" speedFactor="0.96" vaporized=""/>
    <tripinfo id="f_0_3.10" depart="82.00" departLane="np3_nt3_0" departPos="0.76" departSpeed="0.00" departDelay="0.18" arrival="274.00" arrivalLane="nt14_np11_0" arrivalPos="75.00" arrivalSpeed="9.09" duration="192.00" routeLength="950.33" waitingTime="83.00" waitingCount="5" stopTime="0.00" timeLoss="112.69" rerouteNo="0" devices="tripinfo_f_0_3.10" vType="type1" speedFactor="1.00" vaporized=""/>
    <tripinfo id="f_0_3.11" depart="90.00" departLane="np3_nt3_0" departPos="19.21" departSpeed="0.00" departDelay="0.00" arrival="278.00" arrivalLane="nt14_np11_0" arrivalPos="75.00" arrivalSpeed="9.57" duration="188.00" routeLength="931.88" waitingTime="67.00" waitingCount="6" stopTime="0.00" timeLoss="98.45" rerouteNo="0" devices="tripinfo_f_0_3.11" vType="type1" speedFactor="0.88" vaporized=""/>
    <tripinfo id="f_0_3.12" depart="99.00" departLane="np3_nt3_0" departPos="40.31" departSpeed="0.00" departDelay="0.82" arrival="279.00" arrivalLane="nt14_np11_0" arrivalPos="75.00" arrivalSpeed="11.19" duration="180.00" routeLength="910.78" waitingTime="65.00" waitingCount="5" stopTime="0.00" timeLoss="108.28" rerouteNo="0" devices="tripinfo_f_0_3.12" vType="type1" speedFactor="1.06" vaporized=""/>
    <tripinfo id="f_0_0.9" depart="123.00" departLane="np13_nt13_0" departPos="43.97" departSpeed="0.00" departDelay="0.28" arrival="283.00" arrivalLane="nt4_np5_0" arrivalPos="75.00" arrivalSpeed="22.34" duration="160.00" routeLength="1303.92" waitingTime="35.00" waitingCount="7" stopTime="0.00" timeLoss="78.56" rerouteNo="0" devices="tripinfo_f_0_0.9" vType="type1" speedFactor="1.12" vaporized=""/>
    <tripinfo id="f_0_3.13" depart="107.00" departLane="np3_nt3_0" departPos="2.62" departSpeed="0.00" departDelay="0.63" arrival="303.00" arrivalLane="nt14_np11_0" arrivalPos="75.00" arrivalSpeed="8.46" duration="196.00" routeLength="948.47" waitingTime="60.00" waitingCount="8" stopTime="0.00" timeLoss="110.02" rerouteNo="0" devices="tripinfo_f_0_3.13" vType="type1" speedFactor="0.92" vaporized=""/>
    <tripinfo id="f_0_3.14" depart="115.00" departLane="np3_nt3_0" departPos="2.86" departSpeed="0.00" departDelay="0.45" arrival="305.00" arrivalLane="nt14_np11_0" arrivalPos="75.00" arrivalSpeed="11.55" duration="190.00" routeLength="948.23" waitingTime="53.00" waitingCount="8" stopTime="0.00" timeLoss="120.74" rerouteNo="0" devices="tripinfo_f_0_3.14" vType="type1" speedFactor="1.16" vaporized=""/>
    <tripinfo id="f_0_2.7" depart="58.00" departLane="np2_nt2_0" departPos="25.03" departSpeed="0.00" departDelay="0.73" arrival="306.00" arrivalLane="nt15_np10_0" arrivalPos="75.00" arrivalSpeed="11.52" duration="248.00" routeLength="926.05" waitingTime="122.00" waitingCount="8" stopTime="0.00" timeLoss="181.18" rerouteNo="0" devices="tripinfo_f_0_2.7" vType="type1" speedFactor="1.16" vaporized=""/>
    <tripinfo id="f_0_2.8" depart="66.00" departLane="np2_nt2_0" departPos="35.35" departSpeed="0.00" departDelay="0.54" arrival="311.00" arrivalLane="nt15_np10_0" arrivalPos="75.00" arrivalSpeed="9.83" duration="245.00" routeLength="915.73" waitingTime="101.00" waitingCount="8" stopTime="0.00" timeLoss="159.90" rerouteNo="0" devices="tripinfo_f_0_2.8" vType="type1" speedFactor="0.91" vaporized=""/>
    <tripinfo id="f_0_2.9" depart="74.00" departLane="np2_nt2_0" departPos="45.61" departSpeed="0.00" departDelay="0.36" arrival="313.00" arrivalLane="nt15_np10_0" arrivalPos="75.00" arrivalSpeed="9.34" duration="239.00" routeLength="905.47" waitingTime="116.00" waitingCount="8" stopTime="0.00" timeLoss="166.22" rerouteNo="0" devices="tripinfo_f_0_2.9" vType="type1" speedFactor="1.04" vaporized=""/>
    <tripinfo id="f_0_1.3" depart="41.00" departLane="np16_nt1_0" departPos="41.80" departSpeed="0.00" departDelay="0.09" arrival="322.00" arrivalLane="nt16_np8_0" arrivalPos="75.00" arrivalSpeed="19.15" duration="281.00" routeLength="1306.08" waitingTime="126.00" waitingCount="8" stopTime="0.00" timeLoss="191.25" rerouteNo="0" devices="tripinfo_f_0_1.3" vType="type1" speedFactor="1.03" vaporized=""/>
    <tripinfo id="f_0_2.10" depart="82.00" departLane="np2_nt2_0" departPos="35.18" departSpeed="0.00" departDelay="0.18" arrival="327.00" arrivalLane="nt15_np10_0" arrivalPos="75.00" arrivalSpeed="10.75" duration="245.00" routeLength="915.90" waitingTime="108.00" waitingCount="8" stopTime="0.00" timeLoss="171.94" rerouteNo="0" devices="tripinfo_f_0_2.10" vType="type1" speedFactor="1.05" vaporized=""/>
    <tripinfo id="f_0_1.4" depart="55.00" departLane="np16_nt1_0" departPos="7.48" departSpeed="0.00" departDelay="0.46" arrival="328.00" arrivalLane="nt16_np8_0" arrivalPos="75.00" arrivalSpeed="19.94" duration="273.00" routeLength="1340.40" waitingTime="110.00" waitingCount="7" stopTime="0.00" timeLoss="180.16" rerouteNo="0" devices="tripinfo_f_0_1.4" vType="type1" speedFactor="1.00" vaporized=""/>
    <tripinfo id="f_0_0.10" depart="137.00" departLane="np13_nt13_0" departPos="66.42" departSpeed="0.00" departDelay="0.64" arrival="348.00" arrivalLane="nt4_np5_0" arrivalPos="75.00" arrivalSpeed="21.50" duration="211.00" routeLength="1281.47" waitingTime="101.00" waitingCount="6" stopTime="0.00" timeLoss="132.06" rerouteNo="0" devices="tripinfo_f_0_0.10" vType="type1" speedFactor="1.15" vaporized=""/>
    <tripinfo id="f_0_0.11" depart="150.00" departLane="np13_nt13_0" departPos="19.44" departSpeed="0.00" departDelay="0.00" arrival="382.00" arrivalLane="nt4_np5_0" arrivalPos="75.00" arrivalSpeed="17.12" duration="232.00" routeLength="1328.45" waitingTime="100.00" waitingCount="3" stopTime="0.00" timeLoss="129.82" rerouteNo="0" devices="tripinfo_f_0_0.11" vType="type1" speedFactor="0.90" vaporized=""/>
    <tripinfo id="f_0_0.12" depart="164.00" departLane="np13_nt13_0" departPos="52.53" departSpeed="0.00" departDelay="0.37" arrival="384.00" arrivalLane="nt4_np5_0" arrivalPos="75.00" arrivalSpeed="18.87" duration="220.00" routeLength="1295.36" waitingTime="92.00" waitingCount="6" stopTime="0.00" timeLoss="131.68" rerouteNo="0" devices="tripinfo_f_0_0.12" vType="type1" speedFactor="1.02" vaporized=""/>
    <tripinfo id="f_0_2.11" depart="90.00" departLane="np2_nt2_0" departPos="18.91" departSpeed="0.00" departDelay="0.00" arrival="387.00" arrivalLane="nt15_np10_0" arrivalPos="75.00" arrivalSpeed="8.79" duration="297.00" routeLength="932.17" waitingTime="156.00" waitingCount="10" stopTime="0.00" timeLoss="218.46" rerouteNo="0" devices="tripinfo_f_0_2.11" vType="type1" speedFactor="1.00" vaporized=""/>
    <tripinfo id="f_0_2.12" depart="99.00" departLane="np2_nt2_0" departPos="56.66" departSpeed="0.00" departDelay="0.82" arrival="390.00" arrivalLane="nt15_np10_0" arrivalPos="75.00" arrivalSpeed="9.77" duration="291.00" routeLength="894.42" waitingTime="163.00" waitingCount="10" stopTime="0.00" timeLoss="216.69" rerouteNo="0" devices="tripinfo_f_0_2.12" vType="type1" speedFactor="1.01" vaporized=""/>
    <tripinfo id="f_0_0.13" depart="178.00" departLane="np13_nt13_0" departPos="30.08" departSpeed="0.00" departDelay="0.73" arrival="393.00" arrivalLane="nt4_np5_0" arrivalPos="75.00" arrivalSpeed="18.00" duration="215.00" routeLength="1317.81" waitingTime="73.00" waitingCount="8" stopTime="0.00" timeLoss="121.26" rerouteNo="0" devices="tripinfo_f_0_0.13" vType="type1" speedFactor="0.98" vaporized=""/>
    <tripinfo id="f_0_0.14" depart="191.00" departLane="np13_nt13_0" departPos="62.19" departSpeed="0.00" departDelay="0.10" arrival="404.00" arrivalLane="nt4_np5_0" arrivalPos="75.00" arrivalSpeed="19.91" duration="213.00" routeLength="1285.70" waitingTime="74.00" waitingCount="7" stopTime="0.00" timeLoss="126.25" rerouteNo="0" devices="tripinfo_f_0_0.14" vType="type1" speedFactor="1.03" vaporized=""/>
    <tripinfo id="f_0_0.15" depart="205.00" departLane="np13_nt13_0" departPos="3.60" departSpeed="0.00" departDelay="0.46" arrival="413.00" arrivalLane="nt4_np5_0" arrivalPos="75.00" arrivalSpeed="19.07" duration="208.00" routeLength="1344.29" waitingTime="65.00" waitingCount="8" stopTime="0.00" timeLoss="110.78" rerouteNo="0" devices="tripinfo_f_0_0.15" vType="type1" speedFactor="0.96" vaporized=""/>
    <tripinfo id="f_0_0.16" depart="219.00" departLane="np13_nt13_0" departPos="63.15" departSpeed="0.00" departDelay="0.82" arrival="420.00" arrivalLane="nt4_np5_0" arrivalPos="75.00" arrivalSpeed="19.87" duration="201.00" routeLength="1284.74" waitingTime="92.00" waitingCount="5" stopTime="0.00" timeLoss="115.63" rerouteNo="0" devices="tripinfo_f_0_0.16" vType="type1" speedFactor="1.06" vaporized=""/>
    <tripinfo id="f_0_1.5" depart="69.00" departLane="np16_nt1_0" departPos="60.22" departSpeed="0.00" departDelay="0.82" arrival="423.00" arrivalLane="nt16_np8_0" arrivalPos="75.00" arrivalSpeed="20.83" duration="354.00" routeLength="1287.66" waitingTime="191.00" waitingCount="12" stopTime="0.00" timeLoss="272.36" rerouteNo="0" devices="tripinfo_f_0_1.5" vType="type1" speedFactor="1.10" vaporized=""/>
    <tripinfo id="f_0_1.6" depart="82.00" departLane="np16_nt1_0" departPos="67.01" departSpeed="0.00" departDelay="0.18" arrival="425.00" arrivalLane="nt16_np8_0" arrivalPos="75.00" arrivalSpeed="18.13" duration="343.00" routeLength="1280.87" waitingTime="190.00" waitingCount="11" stopTime="0.00" timeLoss="255.63" rerouteNo="0" devices="tripinfo_f_0_1.6" vType="type1" speedFactor="1.03" vaporized=""/>
    <tripinfo id="f_0_2.13" depart="107.00" departLane="np2_nt2_0" departPos="32.68" departSpeed="0.00" departDelay="0.63" arrival="428.00" arrivalLane="nt15_np10_0" arrivalPos="75.00" arrivalSpeed="9.26" duration="321.00" routeLength="918.40" waitingTime="161.00" waitingCount="10" stopTime="0.00" timeLoss="239.50" rerouteNo="0" devices="tripinfo_f_0_2.13" vType="type1" speedFactor="0.94" vaporized=""/>
    <tripinfo id="f_0_0.17" depart="232.00" departLane="np13_nt13_0" departPos="7.24" departSpeed="0.00" departDelay="0.19" arrival="432.00" arrivalLane="nt4_np5_0" arrivalPos="75.00" arrivalSpeed="18.52" duration="200.00" routeLength="1340.65" waitingTime="70.00" waitingCount="5" stopTime="0.00" timeLoss="105.51" rerouteNo="0" devices="tripinfo_f_0_0.17" vType="type1" speedFactor="0.98" vaporized=""/>
    <tripinfo id="f_0_0.18" depart="246.00" departLane="np13_nt13_0" departPos="37.37" departSpeed="0.00" departDelay="0.55" arrival="434.00" arrivalLane="nt4_np5_0" arrivalPos="75.00" arrivalSpeed="19.87" duration="188.00" routeLength="1310.52" waitingTime="61.00" waitingCount="7" stopTime="0.00" timeLoss="101.52" rerouteNo="0" devices="tripinfo_f_0_0.18" vType="type1" speedFactor="1.06" vaporized=""/>
    <tripinfo id="f_0_1.7" depart="96.00" departLane="np16_nt1_0" departPos="38.09" departSpeed="0.00" departDelay="0.55" arrival="438.00" arrivalLane="nt16_np8_0" arrivalPos="75.00" arrivalSpeed="17.04" duration="342.00" routeLength="1309.79" waitingTime="168.00" waitingCount="14" stopTime="0.00" timeLoss="246.57" rerouteNo="0" devices="tripinfo_f_0_1.7" vType="type1" speedFactor="0.95" vaporized=""/>
    <tripinfo id="f_0_3.15" depart="123.00" departLane="np3_nt3_0" departPos="6.52" departSpeed="0.00" departDelay="0.27" arrival="442.00" arrivalLane="nt14_np11_0" arrivalPos="75.00" arrivalSpeed="9.10" duration="319.00" routeLength="944.57" waitingTime="188.00" waitingCount="8" stopTime="0.00" timeLoss="236.42" rerouteNo="0" devices="tripinfo_f_0_3.15" vType="type1" speedFactor="0.96" vaporized=""/>
    <tripinfo id="f_0_2.14" depart="115.00" departLane="np2_nt2_0" departPos="45.01" departSpeed="0.00" departDelay="0.45" arrival="444.00" arrivalLane="nt15_np10_0" arrivalPos="75.00" arrivalSpeed="9.29" duration="329.00" routeLength="906.07" waitingTime="156.00" waitingCount="13" stopTime="0.00" timeLoss="238.95" rerouteNo="0" devices="tripinfo_f_0_2.14" vType="type1" speedFactor="0.85" vaporized=""/>
    <tripinfo id="f_0_3.16" depart="131.00" departLane="np3_nt3_0" departPos="1.58" departSpeed="0.00" departDelay="0.09" arrival="445.00" arrivalLane="nt14_np11_0" arrivalPos="75.00" arrivalSpeed="9.62" duration="314.00" routeLength="949.51" waitingTime="178.00" waitingCount="8" stopTime="0.00" timeLoss="232.09" rerouteNo="0" devices="tripinfo_f_0_3.16" vType="type1" speedFactor="0.97" vaporized=""/>
    <tripinfo id="f_0_2.15" depart="123.00" departLane="np2_nt2_0" departPos="30.42" departSpeed="0.00" departDelay="0.27" arrival="446.00" arrivalLane="nt15_np10_0" arrivalPos="75.00" arrivalSpeed="9.37" duration="323.00" routeLength="920.66" waitingTime="137.00" waitingCount="14" stopTime="0.00" timeLoss="241.47" rerouteNo="0" devices="tripinfo_f_0_2.15" vType="type1" speedFactor="0.95" vaporized=""/>
    <tripinfo id="f_0_1.8" depart="110.00" departLane="np16_nt1_0" departPos="39.38" departSpeed="0.00" departDelay="0.91" arrival="457.00" arrivalLane="nt16_np8_0" arrivalPos="75.00" arrivalSpeed="17.69" duration="347.00" routeLength="1308.50" waitingTime="152.00" waitingCount="14" stopTime="0.00" timeLoss="255.68" rerouteNo="0" devices="tripinfo_f_0_1.8" vType="type1" speedFactor="1.00" vaporized=""/>
    <tripinfo id="f_0_1.13" depart="178.00" departLane="np16_nt1_0" departPos="11.99" departSpeed="0.00" departDelay="0.73" arrival="468.00" arrivalLane="nt16_np8_0" arrivalPos="75.00" arrivalSpeed="21.99" duration="290.00" routeLength="1335.89" waitingTime="103.00" waitingCount="12" stopTime="0.00" timeLoss="210.07" rerouteNo="0" devices="tripinfo_f_0_1.13" vType="type1" speedFactor="1.16" vaporized=""/>
    <tripinfo id="f_0_1.9" depart="123.00" departLane="np16_nt1_0" departPos="41.43" departSpeed="0.00" departDelay="0.28" arrival="469.00" arrivalLane="nt16_np8_0" arrivalPos="75.00" arrivalSpeed="21.19" duration="346.00" routeLength="1306.45" waitingTime="154.00" waitingCount="13" stopTime="0.00" timeLoss="262.38" rerouteNo="0" devices="tripinfo_f_0_1.9" vType="type1" speedFactor="1.08" vaporized=""/>
    <tripinfo id="f_0_1.14" depart="191.00" departLane="np16_nt1_0" departPos="32.49" departSpeed="0.00" departDelay="0.10" arrival="473.00" arrivalLane="nt16_np8_0" arrivalPos="75.00" arrivalSpeed="19.83" duration="282.00" routeLength="1315.39" waitingTime="141.00" waitingCount="9" stopTime="0.00" timeLoss="190.79" rerouteNo="0" devices="tripinfo_f_0_1.14" vType="type1" speedFactor="1.00" vaporized=""/>
    <tripinfo id="f_0_0.19" depart="260.00" departLane="np13_nt13_0" departPos="37.66" departSpeed="0.00" departDelay="0.92" arrival="478.00" arrivalLane="nt4_np5_0" arrivalPos="75.00" arrivalSpeed="19.01" duration="218.00" routeLength="1310.23" waitingTime="84.00" waitingCount="8" stopTime="0.00" timeLoss="127.90" rerouteNo="0" devices="tripinfo_f_0_0.19" vType="type1" speedFactor="1.02" vaporized=""/>
    <tripinfo id="f_0_0.20" depart="273.00" departLane="np13_nt13_0" departPos="30.53" departSpeed="0.00" departDelay="0.28" arrival="480.00" arrivalLane="nt4_np5_0" arrivalPos="75.00" arrivalSpeed="18.97" duration="207.00" routeLength="1317.36" waitingTime="68.00" waitingCount="7" stopTime="0.00" timeLoss="112.33" rerouteNo="0" devices="tripinfo_f_0_0.20" vType="type1" speedFactor="0.97" vaporized=""/>
    <tripinfo id="f_0_3.17" depart="140.00" departLane="np3_nt3_0" departPos="8.44" departSpeed="0.00" departDelay="0.91" arrival="486.00" arrivalLane="nt14_np11_0" arrivalPos="75.00" arrivalSpeed="11.14" duration="346.00" routeLength="942.65" waitingTime="212.00" waitingCount="8" stopTime="0.00" timeLoss="276.04" rerouteNo="0" devices="tripinfo_f_0_3.17" vType="type1" speedFactor="1.14" vaporized=""/>
    <tripinfo id="f_0_2.16" depart="131.00" departLane="np2_nt2_0" departPos="30.84" departSpeed="0.00" departDelay="0.09" arrival="493.00" arrivalLane="nt15_np10_0" arrivalPos="75.00" arrivalSpeed="7.80" duration="362.00" routeLength="920.24" waitingTime="177.00" waitingCount="13" stopTime="0.00" timeLoss="275.14" rerouteNo="0" devices="tripinfo_f_0_2.16" vType="type1" speedFactor="0.90" vaporized=""/>
    <tripinfo id="f_0_0.21" depart="287.00" departLane="np13_nt13_0" departPos="42.94" departSpeed="0.00" departDelay="0.64" arrival="493.00" arrivalLane="nt4_np5_0" arrivalPos="75.00" arrivalSpeed="20.42" duration="206.00" routeLength="1304.95" waitingTime="80.00" waitingCount="7" stopTime="0.00" timeLoss="117.79" rerouteNo="0" devices="tripinfo_f_0_0.21" vType="type1" speedFactor="1.03" vaporized=""/>
    <tripinfo id="f_0_2.17" depart="140.00" departLane="np2_nt2_0" departPos="42.11" departSpeed="0.00" departDelay="0.91" arrival="494.00" arrivalLane="nt15_np10_0" arrivalPos="75.00" arrivalSpeed="9.00" duration="354.00" routeLength="908.97" waitingTime="162.00" waitingCount="12" stopTime="0.00" timeLoss="280.81" rerouteNo="0" devices="tripinfo_f_0_2.17" vType="type1" speedFactor="1.04" vaporized=""/>
    <tripinfo id="f_0_0.22" depart="300.00" departLane="np13_nt13_0" departPos="28.28" departSpeed="0.00" departDelay="0.01" arrival="495.00" arrivalLane="nt4_np5_0" arrivalPos="75.00" arrivalSpeed="20.06" duration="195.00" routeLength="1319.61" waitingTime="55.00" waitingCount="8" stopTime="0.00" timeLoss="104.33" rerouteNo="0" devices="tripinfo_f_0_0.22" vType="type1" speedFactor="1.01" vaporized=""/>