<?xml version="1.0" encoding="UTF-8"?>

<!-- generated on 2023-08-30 19:48:28 by Eclipse SUMO libsumo Version 1.18.0
<configuration xmlns:xsi="http://www.w3.org/2001/XMLSchema-instance" xsi:noNamespaceSchemaLocation="http://sumo.dlr.de/xsd/libsumoConfiguration.xsd">

    <input>
        <net-file value="/home/stefan/RESCO/./environments/arterial4x4/arterial4x4.net.xml"/>
        <route-files value="/home/stefan/RESCO/./environments/arterial4x4/arterial4x4_98.rou.xml"/>
    </input>

    <output>
        <tripinfo-output value="/home/stefan/results/RAINBOW-tr0-arterial4x4-0-drq_norm-wait_norm/tripinfo_98.xml"/>
        <tripinfo-output.write-unfinished value="true"/>
    </output>

    <processing>
        <time-to-teleport value="-1"/>
    </processing>

    <report>
        <no-warnings value="True"/>
        <no-step-log value="True"/>
    </report>

    <random_number>
        <random value="true"/>
    </random_number>

</configuration>
-->

<tripinfos xmlns:xsi="http://www.w3.org/2001/XMLSchema-instance" xsi:noNamespaceSchemaLocation="http://sumo.dlr.de/xsd/tripinfo_file.xsd">
    <tripinfo id="f_3_6.0" depart="900.00" departLane="np10_nt15_0" departPos="7.74" departSpeed="0.00" departDelay="0.00" arrival="3118.00" arrivalLane="nt2_np2_0" arrivalPos="64.60" arrivalSpeed="9.41" duration="2218.00" routeLength="943.34" waitingTime="2113.00" waitingCount="4" stopTime="0.00" timeLoss="2134.93" rerouteNo="0" devices="tripinfo_f_3_6.0" vType="type1" speedFactor="0.95" vaporized=""/>
    <tripinfo id="f_3_6.1" depart="913.00" departLane="np10_nt15_0" departPos="9.90" departSpeed="0.00" departDelay="0.00" arrival="3120.00" arrivalLane="nt2_np2_0" arrivalPos="64.60" arrivalSpeed="10.07" duration="2207.00" routeLength="941.18" waitingTime="2102.00" waitingCount="4" stopTime="0.00" timeLoss="2132.24" rerouteNo="0" devices="tripinfo_f_3_6.1" vType="type1" speedFactor="1.06" vaporized=""/>
    <tripinfo id="f_3_6.2" depart="926.00" departLane="np10_nt15_0" departPos="3.97" departSpeed="0.00" departDelay="0.01" arrival="3122.00" arrivalLane="nt2_np2_0" arrivalPos="64.60" arrivalSpeed="8.99" duration="2196.00" routeLength="947.11" waitingTime="2085.00" waitingCount="4" stopTime="0.00" timeLoss="2117.07" rerouteNo="0" devices="tripinfo_f_3_6.2" vType="type1" speedFactor="1.01" vaporized=""/>
    <tripinfo id="f_3_6.3" depart="939.00" departLane="np10_nt15_0" departPos="31.04" departSpeed="0.00" departDelay="0.01" arrival="3124.00" arrivalLane="nt2_np2_0" arrivalPos="64.60" arrivalSpeed="9.05" duration="2185.00" routeLength="920.04" waitingTime="2072.00" waitingCount="4" stopTime="0.00" timeLoss="2107.39" rerouteNo="0" devices="tripinfo_f_3_6.3" vType="type1" speedFactor="1.00" vaporized=""/>
    <tripinfo id="f_0_0.0" depart="0.00" departLane="np13_nt13_0" departPos="27.31" departSpeed="0.00" departDelay="0.00" arrival="-1.00" arrivalLane="" arrivalPos="-1.00" arrivalSpeed="-1.00" duration="3600.00" routeLength="597.71" waitingTime="3547.00" waitingCount="3" stopTime="0.00" timeLoss="3560.53" rerouteNo="0" devices="tripinfo_f_0_0.0" vType="type1" speedFactor="0.96" vaporized="end"/>
    <tripinfo id="f_0_1.0" depart="0.00" departLane="np16_nt1_0" departPos="13.62" departSpeed="0.00" departDelay="0.00" arrival="-1.00" arrivalLane="" arrivalPos="-1.00" arrivalSpeed="-1.00" duration="3600.00" routeLength="258.15" waitingTime="3579.00" waitingCount="2" stopTime="0.00" timeLoss="3585.66" rerouteNo="0" devices="tripinfo_f_0_1.0" vType="type1" speedFactor="0.97" vaporized="end"/>
    <tripinfo id="f_0_2.0" depart="0.00" departLane="np2_nt2_0" departPos="11.96" departSpeed="0.00" departDelay="0.00" arrival="-1.00" arrivalLane="" arrivalPos="-1.00" arrivalSpeed="-1.00" duration="3600.00" routeLength="642.32" waitingTime="3545.00" waitingCount="1" stopTime="0.00" timeLoss="3554.03" rerouteNo="0" devices="tripinfo_f_0_2.0" vType="type1" speedFactor="1.15" vaporized="end"/>
    <tripinfo id="f_0_3.0" depart="0.00" departLane="np3_nt3_0" departPos="54.93" departSpeed="0.00" departDelay="0.00" arrival="-1.00" arrivalLane="" arrivalPos="-1.00" arrivalSpeed="-1.00" duration="3600.00" routeLength="8.67" waitingTime="3596.00" waitingCount="1" stopTime="0.00" timeLoss="3598.18" rerouteNo="0" devices="tripinfo_f_0_3.0" vType="type1" speedFactor="0.96" vaporized="end"/>
    <tripinfo id="f_0_2.1" depart="9.00" departLane="np2_nt2_0" departPos="50.02" departSpeed="0.00" departDelay="0.82" arrival="-1.00" arrivalLane="" arrivalPos="-1.00" arrivalSpeed="-1.00" duration="3591.00" routeLength="596.76" waitingTime="3531.00" waitingCount="1" stopTime="0.00" timeLoss="3541.76" rerouteNo="0" devices="tripinfo_f_0_2.1" vType="type1" speedFactor="0.98" vaporized="end"/>
    <tripinfo id="f_0_3.1" depart="9.00" departLane="np3_nt3_0" departPos="34.15" departSpeed="0.00" departDelay="0.82" arrival="-1.00" arrivalLane="" arrivalPos="-1.00" arrivalSpeed="-1.00" duration="3591.00" routeLength="21.95" waitingTime="3585.00" waitingCount="1" stopTime="0.00" timeLoss="3587.76" rerouteNo="0" devices="tripinfo_f_0_3.1" vType="type1" speedFactor="0.89" vaporized="end"/>
    <tripinfo id="f_0_0.1" depart="14.00" departLane="np13_nt13_0" departPos="17.51" departSpeed="0.00" departDelay="0.36" arrival="-1.00" arrivalLane="" arrivalPos="-1.00" arrivalSpeed="-1.00" duration="3586.00" routeLength="600.01" waitingTime="3528.00" waitingCount="3" stopTime="0.00" timeLoss="3547.92" rerouteNo="0" devices="tripinfo_f_0_0.1" vType="type1" speedFactor="0.98" vaporized="end"/>
    <tripinfo id="f_0_1.1" depart="14.00" departLane="np16_nt1_0" departPos="9.76" departSpeed="0.00" departDelay="0.36" arrival="-1.00" arrivalLane="" arrivalPos="-1.00" arrivalSpeed="-1.00" duration="3586.00" routeLength="254.51" waitingTime="3562.00" waitingCount="2" stopTime="0.00" timeLoss="3569.05" rerouteNo="0" devices="tripinfo_f_0_1.1" vType="type1" speedFactor="0.80" vaporized="end"/>
    <tripinfo id="f_0_2.2" depart="17.00" departLane="np2_nt2_0" departPos="18.77" departSpeed="0.00" departDelay="0.64" arrival="-1.00" arrivalLane="" arrivalPos="-1.00" arrivalSpeed="-1.00" duration="3583.00" routeLength="620.51" waitingTime="3530.00" waitingCount="1" stopTime="0.00" timeLoss="3541.23" rerouteNo="0" devices="tripinfo_f_0_2.2" vType="type1" speedFactor="1.22" vaporized="end"/>
    <tripinfo id="f_0_3.2" depart="17.00" departLane="np3_nt3_0" departPos="5.02" departSpeed="0.00" departDelay="0.64" arrival="-1.00" arrivalLane="" arrivalPos="-1.00" arrivalSpeed="-1.00" duration="3583.00" routeLength="43.57" waitingTime="3574.00" waitingCount="1" stopTime="0.00" timeLoss="3577.66" rerouteNo="0" devices="tripinfo_f_0_3.2" vType="type1" speedFactor="0.91" vaporized="end"/>
    <tripinfo id="f_0_2.3" depart="25.00" departLane="np2_nt2_0" departPos="16.19" departSpeed="0.00" departDelay="0.45" arrival="-1.00" arrivalLane="" arrivalPos="-1.00" arrivalSpeed="-1.00" duration="3575.00" routeLength="615.58" waitingTime="3510.00" waitingCount="1" stopTime="0.00" timeLoss="3522.02" rerouteNo="0" devices="tripinfo_f_0_2.3" vType="type1" speedFactor="0.95" vaporized="end"/>
    <tripinfo id="f_0_3.3" depart="25.00" departLane="np3_nt3_0" departPos="28.05" departSpeed="0.00" departDelay="0.45" arrival="-1.00" arrivalLane="" arrivalPos="-1.00" arrivalSpeed="-1.00" duration="3575.00" routeLength="13.05" waitingTime="3570.00" waitingCount="1" stopTime="0.00" timeLoss="3572.83" rerouteNo="0" devices="tripinfo_f_0_3.3" vType="type1" speedFactor="1.02" vaporized="end"/>
    <tripinfo id="f_0_0.2" depart="28.00" departLane="np13_nt13_0" departPos="8.54" departSpeed="0.00" departDelay="0.73" arrival="-1.00" arrivalLane="" arrivalPos="-1.00" arrivalSpeed="-1.00" duration="3572.00" routeLength="601.48" waitingTime="3506.00" waitingCount="3" stopTime="0.00" timeLoss="3529.68" rerouteNo="0" devices="tripinfo_f_0_0.2" vType="type1" speedFactor="0.88" vaporized="end"/>
    <tripinfo id="f_0_1.2" depart="28.00" departLane="np16_nt1_0" departPos="21.75" departSpeed="0.00" departDelay="0.73" arrival="-1.00" arrivalLane="" arrivalPos="-1.00" arrivalSpeed="-1.00" duration="3572.00" routeLength="235.02" waitingTime="3550.00" waitingCount="2" stopTime="0.00" timeLoss="3558.64" rerouteNo="0" devices="tripinfo_f_0_1.2" vType="type1" speedFactor="0.95" vaporized="end"/>
    <tripinfo id="f_0_2.4" depart="33.00" departLane="np2_nt2_0" departPos="32.84" departSpeed="0.00" departDelay="0.27" arrival="-1.00" arrivalLane="" arrivalPos="-1.00" arrivalSpeed="-1.00" duration="3567.00" routeLength="591.43" waitingTime="3492.00" waitingCount="1" stopTime="0.00" timeLoss="3505.59" rerouteNo="0" devices="tripinfo_f_0_2.4" vType="type1" speedFactor="0.78" vaporized="end"/>
    <tripinfo id="f_0_3.4" depart="33.00" departLane="np3_nt3_0" departPos="8.70" departSpeed="0.00" departDelay="0.27" arrival="-1.00" arrivalLane="" arrivalPos="-1.00" arrivalSpeed="-1.00" duration="3567.00" routeLength="24.90" waitingTime="3560.00" waitingCount="1" stopTime="0.00" timeLoss="3563.65" rerouteNo="0" devices="tripinfo_f_0_3.4" vType="type1" speedFactor="0.96" vaporized="end"/>
    <tripinfo id="f_0_0.3" depart="41.00" departLane="np13_nt13_0" departPos="44.52" departSpeed="0.00" departDelay="0.09" arrival="-1.00" arrivalLane="" arrivalPos="-1.00" arrivalSpeed="-1.00" duration="3559.00" routeLength="558.00" waitingTime="3493.00" waitingCount="3" stopTime="0.00" timeLoss="3523.10" rerouteNo="0" devices="tripinfo_f_0_0.3" vType="type1" speedFactor="0.97" vaporized="end"/>
    <tripinfo id="f_0_1.3" depart="41.00" departLane="np16_nt1_0" departPos="59.83" departSpeed="0.00" departDelay="0.09" arrival="-1.00" arrivalLane="" arrivalPos="-1.00" arrivalSpeed="-1.00" duration="3559.00" routeLength="189.43" waitingTime="3538.00" waitingCount="2" stopTime="0.00" timeLoss="3548.76" rerouteNo="0" devices="tripinfo_f_0_1.3" vType="type1" speedFactor="1.03" vaporized="end"/>
    <tripinfo id="f_0_2.5" depart="41.00" departLane="np2_nt2_0" departPos="53.89" departSpeed="0.00" departDelay="0.09" arrival="-1.00" arrivalLane="" arrivalPos="-1.00" arrivalSpeed="-1.00" duration="3559.00" routeLength="562.88" waitingTime="3490.00" waitingCount="1" stopTime="0.00" timeLoss="3518.67" rerouteNo="0" devices="tripinfo_f_0_2.5" vType="type1" speedFactor="1.13" vaporized="end"/>
    <tripinfo id="f_0_3.5" depart="41.00" departLane="np3_nt3_0" departPos="0.21" departSpeed="0.00" departDelay="0.09" arrival="-1.00" arrivalLane="" arrivalPos="-1.00" arrivalSpeed="-1.00" duration="3559.00" routeLength="25.89" waitingTime="3552.00" waitingCount="1" stopTime="0.00" timeLoss="3555.39" rerouteNo="0" devices="tripinfo_f_0_3.5" vType="type1" speedFactor="0.90" vaporized="end"/>
    <tripinfo id="f_0_2.6" depart="50.00" departLane="np2_nt2_0" departPos="62.97" departSpeed="0.00" departDelay="0.91" arrival="-1.00" arrivalLane="" arrivalPos="-1.00" arrivalSpeed="-1.00" duration="3550.00" routeLength="546.30" waitingTime="3486.00" waitingCount="1" stopTime="0.00" timeLoss="3496.73" rerouteNo="0" devices="tripinfo_f_0_2.6" vType="type1" speedFactor="0.83" vaporized="end"/>
    <tripinfo id="f_0_3.6" depart="50.00" departLane="np3_nt3_0" departPos="6.64" departSpeed="0.00" departDelay="0.91" arrival="-1.00" arrivalLane="" arrivalPos="-1.00" arrivalSpeed="-1.00" duration="3550.00" routeLength="11.96" waitingTime="3544.00" waitingCount="1" stopTime="0.00" timeLoss="3547.96" rerouteNo="0" devices="tripinfo_f_0_3.6" vType="type1" speedFactor="1.05" vaporized="end"/>
    <tripinfo id="f_0_0.4" depart="55.00" departLane="np13_nt13_0" departPos="49.56" departSpeed="0.00" departDelay="0.46" arrival="-1.00" arrivalLane="" arrivalPos="-1.00" arrivalSpeed="-1.00" duration="3545.00" routeLength="545.46" waitingTime="3482.00" waitingCount="4" stopTime="0.00" timeLoss="3513.82" rerouteNo="0" devices="tripinfo_f_0_0.4" vType="type1" speedFactor="1.09" vaporized="end"/>
    <tripinfo id="f_0_1.4" depart="55.00" departLane="np16_nt1_0" departPos="42.35" departSpeed="0.00" departDelay="0.46" arrival="-1.00" arrivalLane="" arrivalPos="-1.00" arrivalSpeed="-1.00" duration="3545.00" routeLength="199.41" waitingTime="3524.00" waitingCount="2" stopTime="0.00" timeLoss="3534.76" rerouteNo="0" devices="tripinfo_f_0_1.4" vType="type1" speedFactor="1.08" vaporized="end"/>
    <tripinfo id="f_0_2.7" depart="58.00" departLane="np2_nt2_0" departPos="3.72" departSpeed="0.00" departDelay="0.73" arrival="-1.00" arrivalLane="" arrivalPos="-1.00" arrivalSpeed="-1.00" duration="3542.00" routeLength="598.05" waitingTime="3480.00" waitingCount="1" stopTime="0.00" timeLoss="3493.60" rerouteNo="0" devices="tripinfo_f_0_2.7" vType="type1" speedFactor="1.00" vaporized="end"/>
    <tripinfo id="f_0_3.7" depart="58.00" departLane="np3_nt3_0" departPos="9.63" departSpeed="0.00" departDelay="0.73" arrival="-1.00" arrivalLane="" arrivalPos="-1.00" arrivalSpeed="-1.00" duration="3542.00" routeLength="1.46" waitingTime="3539.00" waitingCount="1" stopTime="0.00" timeLoss="3540.86" rerouteNo="0" devices="tripinfo_f_0_3.7" vType="type1" speedFactor="0.94" vaporized="end"/>
    <tripinfo id="f_0_2.8" depart="66.00" departLane="np2_nt2_0" departPos="52.58" departSpeed="0.00" departDelay="0.54" arrival="-1.00" arrivalLane="" arrivalPos="-1.00" arrivalSpeed="-1.00" duration="3534.00" routeLength="541.70" waitingTime="3479.00" waitingCount="1" stopTime="0.00" timeLoss="3493.45" rerouteNo="0" devices="tripinfo_f_0_2.8" vType="type1" speedFactor="1.09" vaporized="end"/>
    <tripinfo id="f_0_3.8" depart="66.00" departLane="np3_nt3_0" departPos="0.00" departSpeed="0.00" departDelay="0.54" arrival="-1.00" arrivalLane="" arrivalPos="-1.00" arrivalSpeed="-1.00" duration="3534.00" routeLength="3.59" waitingTime="3530.00" waitingCount="1" stopTime="0.00" timeLoss="3532.64" rerouteNo="0" devices="tripinfo_f_0_3.8" vType="type1" speedFactor="0.90" vaporized="end"/>
    <tripinfo id="f_0_0.5" depart="69.00" departLane="np13_nt13_0" departPos="66.44" departSpeed="0.00" departDelay="0.82" arrival="-1.00" arrivalLane="" arrivalPos="-1.00" arrivalSpeed="-1.00" duration="3531.00" routeLength="521.08" waitingTime="3463.00" waitingCount="4" stopTime="0.00" timeLoss="3498.84" rerouteNo="0" devices="tripinfo_f_0_0.5" vType="type1" speedFactor="1.00" vaporized="end"/>
    <tripinfo id="f_0_1.5" depart="69.00" departLane="np16_nt1_0" departPos="52.95" departSpeed="0.00" departDelay="0.82" arrival="-1.00" arrivalLane="" arrivalPos="-1.00" arrivalSpeed="-1.00" duration="3531.00" routeLength="181.32" waitingTime="3509.00" waitingCount="2" stopTime="0.00" timeLoss="3520.68" rerouteNo="0" devices="tripinfo_f_0_1.5" vType="type1" speedFactor="0.97" vaporized="end"/>
    <tripinfo id="f_0_2.9" depart="74.00" departLane="np2_nt2_0" departPos="46.60" departSpeed="0.00" departDelay="0.36" arrival="-1.00" arrivalLane="" arrivalPos="-1.00" arrivalSpeed="-1.00" duration="3526.00" routeLength="540.17" waitingTime="3478.00" waitingCount="1" stopTime="0.00" timeLoss="3490.03" rerouteNo="0" devices="tripinfo_f_0_2.9" vType="type1" speedFactor="1.21" vaporized="end"/>
    <tripinfo id="f_0_0.6" depart="82.00" departLane="np13_nt13_0" departPos="20.05" departSpeed="0.00" departDelay="0.18" arrival="-1.00" arrivalLane="" arrivalPos="-1.00" arrivalSpeed="-1.00" duration="3518.00" routeLength="559.96" waitingTime="3442.00" waitingCount="4" stopTime="0.00" timeLoss="3489.27" rerouteNo="0" devices="tripinfo_f_0_0.6" vType="type1" speedFactor="1.18" vaporized="end"/>
    <tripinfo id="f_0_1.6" depart="82.00" departLane="np16_nt1_0" departPos="15.98" departSpeed="0.00" departDelay="0.18" arrival="-1.00" arrivalLane="" arrivalPos="-1.00" arrivalSpeed="-1.00" duration="3518.00" routeLength="210.78" waitingTime="3497.00" waitingCount="2" stopTime="0.00" timeLoss="3506.53" rerouteNo="0" devices="tripinfo_f_0_1.6" vType="type1" speedFactor="1.01" vaporized="end"/>
    <tripinfo id="f_0_2.10" depart="82.00" departLane="np2_nt2_0" departPos="60.03" departSpeed="0.00" departDelay="0.18" arrival="-1.00" arrivalLane="" arrivalPos="-1.00" arrivalSpeed="-1.00" duration="3518.00" routeLength="519.24" waitingTime="3466.00" waitingCount="1" stopTime="0.00" timeLoss="3476.25" rerouteNo="0" devices="tripinfo_f_0_2.10" vType="type1" speedFactor="0.99" vaporized="end"/>
    <tripinfo id="f_0_2.11" depart="90.00" departLane="np2_nt2_0" departPos="17.41" departSpeed="0.00" departDelay="0.00" arrival="-1.00" arrivalLane="" arrivalPos="-1.00" arrivalSpeed="-1.00" duration="3510.00" routeLength="554.36" waitingTime="3458.00" waitingCount="1" stopTime="0.00" timeLoss="3466.70" rerouteNo="0" devices="tripinfo_f_0_2.11" vType="type1" speedFactor="1.04" vaporized="end"/>
    <tripinfo id="f_0_0.7" depart="96.00" departLane="np13_nt13_0" departPos="65.09" departSpeed="0.00" departDelay="0.55" arrival="-1.00" arrivalLane="" arrivalPos="-1.00" arrivalSpeed="-1.00" duration="3504.00" routeLength="507.43" waitingTime="3428.00" waitingCount="5" stopTime="0.00" timeLoss="3472.58" rerouteNo="0" devices="tripinfo_f_0_0.7" vType="type1" speedFactor="0.98" vaporized="end"/>
    <tripinfo id="f_0_1.7" depart="96.00" departLane="np16_nt1_0" departPos="39.56" departSpeed="0.00" departDelay="0.55" arrival="-1.00" arrivalLane="" arrivalPos="-1.00" arrivalSpeed="-1.00" duration="3504.00" routeLength="179.70" waitingTime="3481.00" waitingCount="2" stopTime="0.00" timeLoss="3492.68" rerouteNo="0" devices="tripinfo_f_0_1.7" vType="type1" speedFactor="0.87" vaporized="end"/>
    <tripinfo id="f_0_2.12" depart="99.00" departLane="np2_nt2_0" departPos="55.66" departSpeed="0.00" departDelay="0.82" arrival="-1.00" arrivalLane="" arrivalPos="-1.00" arrivalSpeed="-1.00" duration="3501.00" routeLength="508.61" waitingTime="3452.00" waitingCount="1" stopTime="0.00" timeLoss="3461.16" rerouteNo="0" devices="tripinfo_f_0_2.12" vType="type1" speedFactor="1.02" vaporized="end"/>
    <tripinfo id="f_0_2.13" depart="107.00" departLane="np2_nt2_0" departPos="8.86" departSpeed="0.00" departDelay="0.63" arrival="-1.00" arrivalLane="" arrivalPos="-1.00" arrivalSpeed="-1.00" duration="3493.00" routeLength="547.90" waitingTime="3444.00" waitingCount="1" stopTime="0.00" timeLoss="3453.98" rerouteNo="0" devices="tripinfo_f_0_2.13" vType="type1" speedFactor="1.13" vaporized="end"/>
    <tripinfo id="f_0_0.8" depart="110.00" departLane="np13_nt13_0" departPos="49.32" departSpeed="0.00" departDelay="0.91" arrival="-1.00" arrivalLane="" arrivalPos="-1.00" arrivalSpeed="-1.00" duration="3490.00" routeLength="515.70" waitingTime="3413.00" waitingCount="3" stopTime="0.00" timeLoss="3464.43" rerouteNo="0" devices="tripinfo_f_0_0.8" vType="type1" speedFactor="1.22" vaporized="end"/>
    <tripinfo id="f_0_1.8" depart="110.00" departLane="np16_nt1_0" departPos="47.23" departSpeed="0.00" departDelay="0.91" arrival="-1.00" arrivalLane="" arrivalPos="-1.00" arrivalSpeed="-1.00" duration="3490.00" routeLength="164.53" waitingTime="3469.00" waitingCount="2" stopTime="0.00" timeLoss="3480.75" rerouteNo="0" devices="tripinfo_f_0_1.8" vType="type1" speedFactor="1.00" vaporized="end"/>
    <tripinfo id="f_0_2.14" depart="115.00" departLane="np2_nt2_0" departPos="27.39" departSpeed="0.00" departDelay="0.45" arrival="-1.00" arrivalLane="" arrivalPos="-1.00" arrivalSpeed="-1.00" duration="3485.00" routeLength="521.88" waitingTime="3428.00" waitingCount="1" stopTime="0.00" timeLoss="3440.44" rerouteNo="0" devices="tripinfo_f_0_2.14" vType="type1" speedFactor="0.94" vaporized="end"/>
    <tripinfo id="f_0_0.9" depart="123.00" departLane="np13_nt13_0" departPos="19.82" departSpeed="0.00" departDelay="0.28" arrival="-1.00" arrivalLane="" arrivalPos="-1.00" arrivalSpeed="-1.00" duration="3477.00" routeLength="537.69" waitingTime="3396.00" waitingCount="3" stopTime="0.00" timeLoss="3447.40" rerouteNo="0" devices="tripinfo_f_0_0.9" vType="type1" speedFactor="1.08" vaporized="end"/>
    <tripinfo id="f_0_1.9" depart="123.00" departLane="np16_nt1_0" departPos="35.02" departSpeed="0.00" departDelay="0.28" arrival="-1.00" arrivalLane="" arrivalPos="-1.00" arrivalSpeed="-1.00" duration="3477.00" routeLength="169.25" waitingTime="3455.00" waitingCount="2" stopTime="0.00" timeLoss="3466.80" rerouteNo="0" devices="tripinfo_f_0_1.9" vType="type1" speedFactor="0.92" vaporized="end"/>
    <tripinfo id="f_0_2.15" depart="123.00" departLane="np2_nt2_0" departPos="58.47" departSpeed="0.00" departDelay="0.27" arrival="-1.00" arrivalLane="" arrivalPos="-1.00" arrivalSpeed="-1.00" duration="3477.00" routeLength="483.29" waitingTime="3426.00" waitingCount="1" stopTime="0.00" timeLoss="3440.98" rerouteNo="0" devices="tripinfo_f_0_2.15" vType="type1" speedFactor="1.07" vaporized="end"/>
    <tripinfo id="f_0_2.16" depart="131.00" departLane="np2_nt2_0" departPos="39.38" departSpeed="0.00" departDelay="0.09" arrival="-1.00" arrivalLane="" arrivalPos="-1.00" arrivalSpeed="-1.00" duration="3469.00" routeLength="494.89" waitingTime="3420.00" waitingCount="1" stopTime="0.00" timeLoss="3430.94" rerouteNo="0" devices="tripinfo_f_0_2.16" vType="type1" speedFactor="1.04" vaporized="end"/>
    <tripinfo id="f_0_0.10" depart="137.00" departLane="np13_nt13_0" departPos="36.32" departSpeed="0.00" departDelay="0.64" arrival="-1.00" arrivalLane="" arrivalPos="-1.00" arrivalSpeed="-1.00" duration="3463.00" routeLength="506.19" waitingTime="3378.00" waitingCount="4" stopTime="0.00" timeLoss="3432.98" rerouteNo="0" devices="tripinfo_f_0_0.10" vType="type1" speedFactor="0.99" vaporized="end"/>
    <tripinfo id="f_0_1.10" depart="137.00" departLane="np16_nt1_0" departPos="23.48" departSpeed="0.00" departDelay="0.64" arrival="-1.00" arrivalLane="" arrivalPos="-1.00" arrivalSpeed="-1.00" duration="3463.00" routeLength="173.28" waitingTime="3440.00" waitingCount="2" stopTime="0.00" timeLoss="3453.38" rerouteNo="0" devices="tripinfo_f_0_1.10" vType="type1" speedFactor="1.01" vaporized="end"/>
    <tripinfo id="f_0_2.17" depart="140.00" departLane="np2_nt2_0" departPos="62.09" departSpeed="0.00" departDelay="0.91" arrival="-1.00" arrivalLane="" arrivalPos="-1.00" arrivalSpeed="-1.00" duration="3460.00" routeLength="464.67" waitingTime="3415.00" waitingCount="1" stopTime="0.00" timeLoss="3422.91" rerouteNo="0" devices="tripinfo_f_0_2.17" vType="type1" speedFactor="0.99" vaporized="end"/>
    <tripinfo id="f_0_2.18" depart="148.00" departLane="np2_nt2_0" departPos="56.15" departSpeed="0.00" departDelay="0.72" arrival="-1.00" arrivalLane="" arrivalPos="-1.00" arrivalSpeed="-1.00" duration="3452.00" routeLength="463.11" waitingTime="3401.00" waitingCount="1" stopTime="0.00" timeLoss="3411.17" rerouteNo="0" devices="tripinfo_f_0_2.18" vType="type1" speedFactor="0.89" vaporized="end"/>
    <tripinfo id="f_0_0.11" depart="150.00" departLane="np13_nt13_0" departPos="10.17" departSpeed="0.00" departDelay="0.00" arrival="-1.00" arrivalLane="" arrivalPos="-1.00" arrivalSpeed="-1.00" duration="3450.00" routeLength="524.84" waitingTime="3358.00" waitingCount="4" stopTime="0.00" timeLoss="3416.15" rerouteNo="0" devices="tripinfo_f_0_0.11" vType="type1" speedFactor="0.89" vaporized="end"/>
    <tripinfo id="f_0_1.11" depart="150.00" departLane="np16_nt1_0" departPos="11.47" departSpeed="0.00" departDelay="0.00" arrival="-1.00" arrivalLane="" arrivalPos="-1.00" arrivalSpeed="-1.00" duration="3450.00" routeLength="177.79" waitingTime="3428.00" waitingCount="2" stopTime="0.00" timeLoss="3438.52" rerouteNo="0" devices="tripinfo_f_0_1.11" vType="type1" speedFactor="0.85" vaporized="end"/>
    <tripinfo id="f_0_2.19" depart="156.00" departLane="np2_nt2_0" departPos="56.00" departSpeed="0.00" departDelay="0.54" arrival="-1.00" arrivalLane="" arrivalPos="-1.00" arrivalSpeed="-1.00" duration="3444.00" routeLength="455.76" waitingTime="3399.00" waitingCount="1" stopTime="0.00" timeLoss="3410.46" rerouteNo="0" devices="tripinfo_f_0_2.19" vType="type1" speedFactor="1.07" vaporized="end"/>
    <tripinfo id="f_0_0.12" depart="164.00" departLane="np13_nt13_0" departPos="0.55" departSpeed="0.00" departDelay="0.37" arrival="-1.00" arrivalLane="" arrivalPos="-1.00" arrivalSpeed="-1.00" duration="3436.00" routeLength="526.97" waitingTime="3343.00" waitingCount="5" stopTime="0.00" timeLoss="3410.17" rerouteNo="0" devices="tripinfo_f_0_0.12" vType="type1" speedFactor="1.18" vaporized="end"/>
    <tripinfo id="f_0_1.12" depart="164.00" departLane="np16_nt1_0" departPos="32.05" departSpeed="0.00" departDelay="0.37" arrival="-1.00" arrivalLane="" arrivalPos="-1.00" arrivalSpeed="-1.00" duration="3436.00" routeLength="149.71" waitingTime="3413.00" waitingCount="2" stopTime="0.00" timeLoss="3427.47" rerouteNo="0" devices="tripinfo_f_0_1.12" vType="type1" speedFactor="0.99" vaporized="end"/>
    <tripinfo id="f_0_2.20" depart="164.00" departLane="np2_nt2_0" departPos="15.74" departSpeed="0.00" departDelay="0.36" arrival="-1.00" arrivalLane="" arrivalPos="-1.00" arrivalSpeed="-1.00" duration="3436.00" routeLength="488.52" waitingTime="3387.00" waitingCount="1" stopTime="0.00" timeLoss="3395.93" rerouteNo="0" devices="tripinfo_f_0_2.20" vType="type1" speedFactor="0.97" vaporized="end"/>
    <tripinfo id="f_0_2.21" depart="172.00" departLane="np2_nt2_0" departPos="5.82" departSpeed="0.00" departDelay="0.18" arrival="-1.00" arrivalLane="" arrivalPos="-1.00" arrivalSpeed="-1.00" duration="3428.00" routeLength="490.93" waitingTime="3378.00" waitingCount="1" stopTime="0.00" timeLoss="3388.76" rerouteNo="0" devices="tripinfo_f_0_2.21" vType="type1" speedFactor="0.99" vaporized="end"/>
    <tripinfo id="f_0_0.13" depart="178.00" departLane="np13_nt13_0" departPos="27.16" departSpeed="0.00" departDelay="0.73" arrival="-1.00" arrivalLane="" arrivalPos="-1.00" arrivalSpeed="-1.00" duration="3422.00" routeLength="492.86" waitingTime="3320.00" waitingCount="4" stopTime="0.00" timeLoss="3392.12" rerouteNo="0" devices="tripinfo_f_0_0.13" vType="type1" speedFactor="0.95" vaporized="end"/>
    <tripinfo id="f_0_1.13" depart="178.00" departLane="np16_nt1_0" departPos="23.61" departSpeed="0.00" departDelay="0.73" arrival="-1.00" arrivalLane="" arrivalPos="-1.00" arrivalSpeed="-1.00" duration="3422.00" routeLength="150.64" waitingTime="3402.00" waitingCount="2" stopTime="0.00" timeLoss="3413.97" rerouteNo="0" devices="tripinfo_f_0_1.13" vType="type1" speedFactor="1.07" vaporized="end"/>
    <tripinfo id="f_0_2.22" depart="180.00" departLane="np2_nt2_0" departPos="32.25" departSpeed="0.00" departDelay="0.00" arrival="-1.00" arrivalLane="" arrivalPos="-1.00" arrivalSpeed="-1.00" duration="3420.00" routeLength="457.01" waitingTime="3369.00" waitingCount="1" stopTime="0.00" timeLoss="3378.20" rerouteNo="0" devices="tripinfo_f_0_2.22" vType="type1" speedFactor="0.85" vaporized="end"/>
    <tripinfo id="f_0_2.23" depart="189.00" departLane="np2_nt2_0" departPos="54.76" departSpeed="0.00" departDelay="0.81" arrival="-1.00" arrivalLane="" arrivalPos="-1.00" arrivalSpeed="-1.00" duration="3411.00" routeLength="426.99" waitingTime="3367.00" waitingCount="1" stopTime="0.00" timeLoss="3380.57" rerouteNo="0" devices="tripinfo_f_0_2.23" vType="type1" speedFactor="1.10" vaporized="end"/>
    <tripinfo id="f_0_0.14" depart="191.00" departLane="np13_nt13_0" departPos="9.97" departSpeed="0.00" departDelay="0.10" arrival="-1.00" arrivalLane="" arrivalPos="-1.00" arrivalSpeed="-1.00" duration="3409.00" routeLength="502.54" waitingTime="3307.00" waitingCount="4" stopTime="0.00" timeLoss="3381.67" rerouteNo="0" devices="tripinfo_f_0_0.14" vType="type1" speedFactor="1.04" vaporized="end"/>
    <tripinfo id="f_0_1.14" depart="191.00" departLane="np16_nt1_0" departPos="47.65" departSpeed="0.00" departDelay="0.10" arrival="-1.00" arrivalLane="" arrivalPos="-1.00" arrivalSpeed="-1.00" duration="3409.00" routeLength="119.11" waitingTime="3389.00" waitingCount="2" stopTime="0.00" timeLoss="3402.66" rerouteNo="0" devices="tripinfo_f_0_1.14" vType="type1" speedFactor="1.11" vaporized="end"/>
    <tripinfo id="f_0_2.24" depart="197.00" departLane="np2_nt2_0" departPos="32.73" departSpeed="0.00" departDelay="0.63" arrival="-1.00" arrivalLane="" arrivalPos="-1.00" arrivalSpeed="-1.00" duration="3403.00" routeLength="421.55" waitingTime="3366.00" waitingCount="1" stopTime="0.00" timeLoss="3373.71" rerouteNo="0" devices="tripinfo_f_0_2.24" vType="type1" speedFactor="1.11" vaporized="end"/>
    <tripinfo id="f_0_0.15" depart="205.00" departLane="np13_nt13_0" departPos="50.10" departSpeed="0.00" departDelay="0.46" arrival="-1.00" arrivalLane="" arrivalPos="-1.00" arrivalSpeed="-1.00" duration="3395.00" routeLength="454.91" waitingTime="3289.00" waitingCount="4" stopTime="0.00" timeLoss="3365.26" rerouteNo="0" devices="tripinfo_f_0_0.15" vType="type1" speedFactor="0.85" vaporized="end"/>
    <tripinfo id="f_0_1.15" depart="205.00" departLane="np16_nt1_0" departPos="41.05" departSpeed="0.00" departDelay="0.46" arrival="-1.00" arrivalLane="" arrivalPos="-1.00" arrivalSpeed="-1.00" duration="3395.00" routeLength="118.21" waitingTime="3374.00" waitingCount="2" stopTime="0.00" timeLoss="3387.75" rerouteNo="0" devices="tripinfo_f_0_1.15" vType="type1" speedFactor="0.95" vaporized="end"/>
    <tripinfo id="f_0_2.25" depart="205.00" departLane="np2_nt2_0" departPos="24.21" departSpeed="0.00" departDelay="0.45" arrival="-1.00" arrivalLane="" arrivalPos="-1.00" arrivalSpeed="-1.00" duration="3395.00" routeLength="422.57" waitingTime="3356.00" waitingCount="1" stopTime="0.00" timeLoss="3364.64" rerouteNo="0" devices="tripinfo_f_0_2.25" vType="type1" speedFactor="1.08" vaporized="end"/>
    <tripinfo id="f_0_2.26" depart="213.00" departLane="np2_nt2_0" departPos="59.09" departSpeed="0.00" departDelay="0.27" arrival="-1.00" arrivalLane="" arrivalPos="-1.00" arrivalSpeed="-1.00" duration="3387.00" routeLength="380.19" waitingTime="3351.00" waitingCount="1" stopTime="0.00" timeLoss="3357.42" rerouteNo="0" devices="tripinfo_f_0_2.26" vType="type1" speedFactor="0.96" vaporized="end"/>