<?xml version="1.0" encoding="UTF-8"?>

<!-- generated on 2023-08-28 21:05:20 by Eclipse SUMO libsumo Version 1.18.0
<configuration xmlns:xsi="http://www.w3.org/2001/XMLSchema-instance" xsi:noNamespaceSchemaLocation="http://sumo.dlr.de/xsd/libsumoConfiguration.xsd">

    <input>
        <net-file value="/home/stefan/RESCO/./environments/cologne1/cologne1.net.xml"/>
        <route-files value="/home/stefan/RESCO/./environments/cologne1/cologne1.rou.xml"/>
    </input>

    <output>
        <tripinfo-output value="/home/stefan/results/ITRPO-tr0-cologne1-0-drq_norm-wait_norm/tripinfo_79.xml"/>
        <tripinfo-output.write-unfinished value="true"/>
    </output>

    <time>
        <begin value="25200"/>
        <end value="28800"/>
    </time>

    <processing>
        <time-to-teleport value="-1"/>
    </processing>

    <report>
        <no-warnings value="True"/>
        <no-step-log value="True"/>
    </report>

    <random_number>
        <random value="true"/>
    </random_number>

</configuration>
-->

<tripinfos xmlns:xsi="http://www.w3.org/2001/XMLSchema-instance" xsi:noNamespaceSchemaLocation="http://sumo.dlr.de/xsd/tripinfo_file.xsd">
    <tripinfo id="124779_406_0" depart="25205.00" departLane="28198821#3_0" departPos="4.40" departSpeed="0.00" departDelay="0.00" arrival="25234.00" arrivalLane="32038051#0_1" arrivalPos="89.25" arrivalSpeed="20.63" duration="29.00" routeLength="170.57" waitingTime="8.00" waitingCount="1" stopTime="0.00" timeLoss="19.40" rerouteNo="0" devices="tripinfo_124779_406_0 routing_124779_406_0" vType="pkw" speedFactor="1.08" vaporized=""/>
    <tripinfo id="98305_395_0" depart="25211.00" departLane="28198821#3_0" departPos="4.40" departSpeed="0.00" departDelay="0.00" arrival="25236.00" arrivalLane="32038051#0_1" arrivalPos="89.25" arrivalSpeed="17.62" duration="25.00" routeLength="170.57" waitingTime="4.00" waitingCount="1" stopTime="0.00" timeLoss="13.62" rerouteNo="0" devices="tripinfo_98305_395_0 routing_98305_395_0" vType="pkw" speedFactor="0.93" vaporized=""/>
    <tripinfo id="102535_396_0" depart="25218.00" departLane="28198821#3_0" departPos="4.40" departSpeed="0.00" departDelay="0.00" arrival="25237.00" arrivalLane="32038051#0_1" arrivalPos="89.25" arrivalSpeed="18.25" duration="19.00" routeLength="170.57" waitingTime="0.00" waitingCount="0" stopTime="0.00" timeLoss="8.37" rerouteNo="0" devices="tripinfo_102535_396_0 routing_102535_396_0" vType="pkw" speedFactor="0.96" vaporized=""/>
    <tripinfo id="151372_418_0" depart="25207.00" departLane="130165204_0" departPos="4.40" departSpeed="0.00" departDelay="0.00" arrival="25244.00" arrivalLane="32038051#0_1" arrivalPos="89.25" arrivalSpeed="18.07" duration="37.00" routeLength="410.03" waitingTime="0.00" waitingCount="0" stopTime="0.00" timeLoss="9.97" rerouteNo="1" devices="tripinfo_151372_418_0 routing_151372_418_0" vType="pkw" speedFactor="0.98" vaporized=""/>
    <tripinfo id="149029_417_0" depart="25236.00" departLane="27115123#2_0" departPos="4.40" departSpeed="0.00" departDelay="0.00" arrival="25251.00" arrivalLane="32038051#0_1" arrivalPos="89.25" arrivalSpeed="21.47" duration="15.00" routeLength="196.41" waitingTime="0.00" waitingCount="0" stopTime="0.00" timeLoss="5.90" rerouteNo="1" devices="tripinfo_149029_417_0 routing_149029_417_0" vType="pkw" speedFactor="1.17" vaporized=""/>
    <tripinfo id="91582_392_0" depart="25221.00" departLane="-32038056#3_0" departPos="4.40" departSpeed="0.00" departDelay="3.00" arrival="25258.00" arrivalLane="32324544#0_1" arrivalPos="90.48" arrivalSpeed="22.46" duration="37.00" routeLength="465.51" waitingTime="0.00" waitingCount="0" stopTime="0.00" timeLoss="9.07" rerouteNo="0" devices="tripinfo_91582_392_0 routing_91582_392_0" vType="pkw" speedFactor="1.16" vaporized=""/>
    <tripinfo id="147209_416_0" depart="25220.00" departLane="28198821#3_0" departPos="4.40" departSpeed="0.00" departDelay="0.00" arrival="25259.00" arrivalLane="32038051#0_1" arrivalPos="89.25" arrivalSpeed="17.76" duration="39.00" routeLength="170.57" waitingTime="15.00" waitingCount="1" stopTime="0.00" timeLoss="27.72" rerouteNo="0" devices="tripinfo_147209_416_0 routing_147209_416_0" vType="pkw" speedFactor="0.92" vaporized=""/>
    <tripinfo id="123965_406_0" depart="25218.00" departLane="-32038056#3_0" departPos="4.40" departSpeed="0.00" departDelay="0.00" arrival="25262.00" arrivalLane="-28198821#4_0" arrivalPos="57.10" arrivalSpeed="14.38" duration="44.00" routeLength="437.47" waitingTime="2.00" waitingCount="1" stopTime="0.00" timeLoss="13.83" rerouteNo="0" devices="tripinfo_123965_406_0 routing_123965_406_0" vType="pkw" speedFactor="1.06" vaporized=""/>
    <tripinfo id="121258_405_0" depart="25240.00" departLane="23429231#1_0" departPos="4.40" departSpeed="0.00" departDelay="0.00" arrival="25263.00" arrivalLane="32038051#0_0" arrivalPos="89.25" arrivalSpeed="17.35" duration="23.00" routeLength="203.79" waitingTime="1.00" waitingCount="1" stopTime="0.00" timeLoss="11.36" rerouteNo="0" devices="tripinfo_121258_405_0 routing_121258_405_0" vType="pkw" speedFactor="0.91" vaporized=""/>
    <tripinfo id="126742_407_0" depart="25243.00" departLane="23429231#1_0" departPos="4.40" departSpeed="0.00" departDelay="3.00" arrival="25263.00" arrivalLane="32038051#0_1" arrivalPos="89.25" arrivalSpeed="19.13" duration="20.00" routeLength="203.79" waitingTime="0.00" waitingCount="0" stopTime="0.00" timeLoss="9.43" rerouteNo="0" devices="tripinfo_126742_407_0 routing_126742_407_0" vType="pkw" speedFactor="1.00" vaporized=""/>
    <tripinfo id="102501_396_0" depart="25245.00" departLane="23429231#1_0" departPos="4.40" departSpeed="0.00" departDelay="1.00" arrival="25265.00" arrivalLane="32038051#0_0" arrivalPos="89.25" arrivalSpeed="19.55" duration="20.00" routeLength="203.79" waitingTime="0.00" waitingCount="0" stopTime="0.00" timeLoss="9.13" rerouteNo="0" devices="tripinfo_102501_396_0 routing_102501_396_0" vType="pkw" speedFactor="1.03" vaporized=""/>
    <tripinfo id="120663_405_0" depart="25248.00" departLane="23429231#1_0" departPos="4.40" departSpeed="0.00" departDelay="2.00" arrival="25266.00" arrivalLane="32038051#0_0" arrivalPos="89.25" arrivalSpeed="18.49" duration="18.00" routeLength="203.79" waitingTime="0.00" waitingCount="0" stopTime="0.00" timeLoss="7.29" rerouteNo="0" devices="tripinfo_120663_405_0 routing_120663_405_0" vType="pkw" speedFactor="1.00" vaporized=""/>
    <tripinfo id="113509_402_0" depart="25251.00" departLane="23429231#1_0" departPos="4.40" departSpeed="0.00" departDelay="3.00" arrival="25268.00" arrivalLane="-28198821#4_1" arrivalPos="57.10" arrivalSpeed="14.92" duration="17.00" routeLength="179.90" waitingTime="0.00" waitingCount="0" stopTime="0.00" timeLoss="7.01" rerouteNo="0" devices="tripinfo_113509_402_0 routing_113509_402_0" vType="pkw" speedFactor="1.10" vaporized=""/>
    <tripinfo id="130147_409_0" depart="25253.00" departLane="23429231#1_0" departPos="4.40" departSpeed="0.00" departDelay="2.00" arrival="25268.00" arrivalLane="32038051#0_0" arrivalPos="89.25" arrivalSpeed="21.38" duration="15.00" routeLength="203.79" waitingTime="0.00" waitingCount="0" stopTime="0.00" timeLoss="5.50" rerouteNo="0" devices="tripinfo_130147_409_0 routing_130147_409_0" vType="pkw" speedFactor="1.14" vaporized=""/>
    <tripinfo id="102630_396_0" depart="25256.00" departLane="23429231#1_0" departPos="4.40" departSpeed="0.00" departDelay="4.00" arrival="25273.00" arrivalLane="32038051#0_0" arrivalPos="89.25" arrivalSpeed="16.35" duration="17.00" routeLength="203.79" waitingTime="0.00" waitingCount="0" stopTime="0.00" timeLoss="4.36" rerouteNo="0" devices="tripinfo_102630_396_0 routing_102630_396_0" vType="pkw" speedFactor="0.88" vaporized=""/>
    <tripinfo id="122376_406_0" depart="25259.00" departLane="23429231#1_0" departPos="4.40" departSpeed="0.00" departDelay="5.00" arrival="25275.00" arrivalLane="32038051#0_0" arrivalPos="89.25" arrivalSpeed="19.98" duration="16.00" routeLength="203.79" waitingTime="0.00" waitingCount="0" stopTime="0.00" timeLoss="5.02" rerouteNo="0" devices="tripinfo_122376_406_0 routing_122376_406_0" vType="pkw" speedFactor="1.04" vaporized=""/>
    <tripinfo id="160150_421_0" depart="25223.00" departLane="-32038056#3_0" departPos="4.40" departSpeed="0.00" departDelay="4.00" arrival="25283.00" arrivalLane="32038051#0_0" arrivalPos="89.25" arrivalSpeed="16.56" duration="60.00" routeLength="446.95" waitingTime="14.00" waitingCount="1" stopTime="0.00" timeLoss="26.50" rerouteNo="0" devices="tripinfo_160150_421_0 routing_160150_421_0" vType="pkw" speedFactor="0.92" vaporized=""/>
    <tripinfo id="162814_422_0" depart="25233.00" departLane="-32038056#3_0" departPos="4.40" departSpeed="0.00" departDelay="0.00" arrival="25284.00" arrivalLane="32038051#0_0" arrivalPos="89.25" arrivalSpeed="18.73" duration="51.00" routeLength="446.95" waitingTime="10.00" waitingCount="1" stopTime="0.00" timeLoss="21.47" rerouteNo="0" devices="tripinfo_162814_422_0 routing_162814_422_0" vType="pkw" speedFactor="1.02" vaporized=""/>
    <tripinfo id="130602_409_0" depart="25268.00" departLane="-32038056#3_0" departPos="4.40" departSpeed="0.00" departDelay="0.00" arrival="25307.00" arrivalLane="-28198821#4_0" arrivalPos="57.10" arrivalSpeed="12.70" duration="39.00" routeLength="437.47" waitingTime="0.00" waitingCount="0" stopTime="0.00" timeLoss="6.27" rerouteNo="0" devices="tripinfo_130602_409_0 routing_130602_409_0" vType="pkw" speedFactor="0.98" vaporized=""/>
    <tripinfo id="135103_411_0" depart="25264.00" departLane="23429231#1_0" departPos="4.40" departSpeed="0.00" departDelay="8.00" arrival="25312.00" arrivalLane="32038051#0_0" arrivalPos="89.25" arrivalSpeed="19.04" duration="48.00" routeLength="203.79" waitingTime="24.00" waitingCount="1" stopTime="0.00" timeLoss="37.27" rerouteNo="0" devices="tripinfo_135103_411_0 routing_135103_411_0" vType="pkw" speedFactor="0.98" vaporized=""/>
    <tripinfo id="148629_417_0" depart="25284.00" departLane="27115123#2_0" departPos="4.40" departSpeed="0.00" departDelay="0.00" arrival="25313.00" arrivalLane="32324544#0_0" arrivalPos="90.48" arrivalSpeed="21.07" duration="29.00" routeLength="198.06" waitingTime="7.00" waitingCount="1" stopTime="0.00" timeLoss="20.38" rerouteNo="1" devices="tripinfo_148629_417_0 routing_148629_417_0" vType="pkw" speedFactor="1.19" vaporized=""/>
    <tripinfo id="122194_406_0" depart="25261.00" departLane="23429231#1_0" departPos="4.40" departSpeed="0.00" departDelay="6.00" arrival="25314.00" arrivalLane="32038051#0_0" arrivalPos="89.25" arrivalSpeed="19.63" duration="53.00" routeLength="203.79" waitingTime="28.00" waitingCount="1" stopTime="0.00" timeLoss="42.13" rerouteNo="0" devices="tripinfo_122194_406_0 routing_122194_406_0" vType="pkw" speedFactor="1.06" vaporized=""/>
    <tripinfo id="152958_419_0" depart="25267.00" departLane="23429231#1_0" departPos="4.40" departSpeed="0.00" departDelay="10.00" arrival="25315.00" arrivalLane="32038051#0_0" arrivalPos="89.25" arrivalSpeed="18.60" duration="48.00" routeLength="203.79" waitingTime="24.00" waitingCount="1" stopTime="0.00" timeLoss="36.95" rerouteNo="0" devices="tripinfo_152958_419_0 routing_152958_419_0" vType="pkw" speedFactor="0.99" vaporized=""/>
    <tripinfo id="125613_406_0" depart="25269.00" departLane="23429231#1_0" departPos="4.40" departSpeed="0.00" departDelay="11.00" arrival="25315.00" arrivalLane="32038051#0_1" arrivalPos="89.25" arrivalSpeed="20.58" duration="46.00" routeLength="203.79" waitingTime="22.00" waitingCount="1" stopTime="0.00" timeLoss="35.28" rerouteNo="0" devices="tripinfo_125613_406_0 routing_125613_406_0" vType="pkw" speedFactor="1.06" vaporized=""/>
    <tripinfo id="133955_411_0" depart="25272.00" departLane="23429231#1_0" departPos="4.40" departSpeed="0.00" departDelay="13.00" arrival="25316.00" arrivalLane="32038051#0_0" arrivalPos="89.25" arrivalSpeed="18.07" duration="44.00" routeLength="203.79" waitingTime="21.00" waitingCount="2" stopTime="0.00" timeLoss="33.13" rerouteNo="0" devices="tripinfo_133955_411_0 routing_133955_411_0" vType="pkw" speedFactor="0.97" vaporized=""/>
    <tripinfo id="129253_408_0" depart="25275.00" departLane="23429231#1_0" departPos="4.40" departSpeed="0.00" departDelay="15.00" arrival="25317.00" arrivalLane="32038051#0_1" arrivalPos="89.25" arrivalSpeed="14.94" duration="42.00" routeLength="203.79" waitingTime="16.00" waitingCount="1" stopTime="0.00" timeLoss="29.17" rerouteNo="0" devices="tripinfo_129253_408_0 routing_129253_408_0" vType="pkw" speedFactor="0.83" vaporized=""/>
    <tripinfo id="134807_411_0" depart="25281.00" departLane="23429231#1_0" departPos="4.40" departSpeed="0.00" departDelay="19.00" arrival="25320.00" arrivalLane="32324544#0_1" arrivalPos="90.48" arrivalSpeed="18.37" duration="39.00" routeLength="203.50" waitingTime="13.00" waitingCount="1" stopTime="0.00" timeLoss="27.99" rerouteNo="0" devices="tripinfo_134807_411_0 routing_134807_411_0" vType="pkw" speedFactor="1.01" vaporized=""/>
    <tripinfo id="136082_411_0" depart="25278.00" departLane="-32038056#3_0" departPos="4.40" departSpeed="0.00" departDelay="1.00" arrival="25328.00" arrivalLane="32038051#0_0" arrivalPos="89.25" arrivalSpeed="19.80" duration="50.00" routeLength="446.95" waitingTime="10.00" waitingCount="1" stopTime="0.00" timeLoss="21.47" rerouteNo="0" devices="tripinfo_136082_411_0 routing_136082_411_0" vType="pkw" speedFactor="1.08" vaporized=""/>
    <tripinfo id="128446_408_0" depart="25273.00" departLane="-32038056#3_0" departPos="4.40" departSpeed="0.00" departDelay="0.00" arrival="25329.00" arrivalLane="32324544#0_1" arrivalPos="90.48" arrivalSpeed="17.95" duration="56.00" routeLength="465.51" waitingTime="14.00" waitingCount="1" stopTime="0.00" timeLoss="23.52" rerouteNo="0" devices="tripinfo_128446_408_0 routing_128446_408_0" vType="pkw" speedFactor="0.97" vaporized=""/>
    <tripinfo id="115444_403_0" depart="25294.00" departLane="28198821#3_0" departPos="4.40" departSpeed="0.00" departDelay="0.00" arrival="25329.00" arrivalLane="32038051#0_1" arrivalPos="89.25" arrivalSpeed="16.91" duration="35.00" routeLength="170.57" waitingTime="15.00" waitingCount="1" stopTime="0.00" timeLoss="23.21" rerouteNo="0" devices="tripinfo_115444_403_0 routing_115444_403_0" vType="pkw" speedFactor="0.89" vaporized=""/>
    <tripinfo id="85818_390_0" depart="25281.00" departLane="-32038056#3_0" departPos="4.40" departSpeed="0.00" departDelay="1.00" arrival="25338.00" arrivalLane="32038051#0_0" arrivalPos="89.25" arrivalSpeed="16.53" duration="57.00" routeLength="446.95" waitingTime="11.00" waitingCount="2" stopTime="0.00" timeLoss="22.39" rerouteNo="0" devices="tripinfo_85818_390_0 routing_85818_390_0" vType="pkw" speedFactor="0.87" vaporized=""/>
    <tripinfo id="83516_390_0" depart="25276.00" departLane="-32038056#3_0" departPos="4.40" departSpeed="0.00" departDelay="1.00" arrival="25339.00" arrivalLane="32324544#0_1" arrivalPos="90.48" arrivalSpeed="15.25" duration="63.00" routeLength="465.51" waitingTime="12.00" waitingCount="2" stopTime="0.00" timeLoss="24.74" rerouteNo="0" devices="tripinfo_83516_390_0 routing_83516_390_0" vType="pkw" speedFactor="0.82" vaporized=""/>
    <tripinfo id="103540_397_0" depart="25300.00" departLane="28198821#3_0" departPos="4.40" departSpeed="0.00" departDelay="0.00" arrival="25340.00" arrivalLane="32038051#0_1" arrivalPos="89.25" arrivalSpeed="15.76" duration="40.00" routeLength="170.57" waitingTime="17.00" waitingCount="2" stopTime="0.00" timeLoss="27.93" rerouteNo="0" devices="tripinfo_103540_397_0 routing_103540_397_0" vType="pkw" speedFactor="0.88" vaporized=""/>
    <tripinfo id="86189_391_0" depart="25285.00" departLane="23429231#1_0" departPos="4.40" departSpeed="0.00" departDelay="20.00" arrival="25342.00" arrivalLane="32038051#0_1" arrivalPos="89.25" arrivalSpeed="17.13" duration="57.00" routeLength="203.79" waitingTime="27.00" waitingCount="2" stopTime="0.00" timeLoss="45.18" rerouteNo="0" devices="tripinfo_86189_391_0 routing_86189_391_0" vType="pkw" speedFactor="0.90" vaporized=""/>
    <tripinfo id="120275_405_0" depart="25278.00" departLane="23429231#1_0" departPos="4.40" departSpeed="0.00" departDelay="17.00" arrival="25343.00" arrivalLane="32038051#0_0" arrivalPos="89.25" arrivalSpeed="17.60" duration="65.00" routeLength="203.79" waitingTime="38.00" waitingCount="2" stopTime="0.00" timeLoss="53.82" rerouteNo="0" devices="tripinfo_120275_405_0 routing_120275_405_0" vType="pkw" speedFactor="0.96" vaporized=""/>
    <tripinfo id="135201_411_0" depart="25283.00" departLane="23429231#1_0" departPos="4.40" departSpeed="0.00" departDelay="19.00" arrival="25345.00" arrivalLane="32038051#0_0" arrivalPos="89.25" arrivalSpeed="16.11" duration="62.00" routeLength="203.79" waitingTime="33.00" waitingCount="2" stopTime="0.00" timeLoss="49.27" rerouteNo="0" devices="tripinfo_135201_411_0 routing_135201_411_0" vType="pkw" speedFactor="0.85" vaporized=""/>
    <tripinfo id="129519_408_0" depart="25290.00" departLane="23429231#1_0" departPos="4.40" departSpeed="0.00" departDelay="23.00" arrival="25345.00" arrivalLane="32038051#0_1" arrivalPos="89.25" arrivalSpeed="14.64" duration="55.00" routeLength="203.79" waitingTime="22.00" waitingCount="2" stopTime="0.00" timeLoss="41.13" rerouteNo="0" devices="tripinfo_129519_408_0 routing_129519_408_0" vType="pkw" speedFactor="0.80" vaporized=""/>
    <tripinfo id="136204_411_0" depart="25296.00" departLane="23429231#1_0" departPos="4.40" departSpeed="0.00" departDelay="27.00" arrival="25346.00" arrivalLane="32038051#0_1" arrivalPos="89.25" arrivalSpeed="17.28" duration="50.00" routeLength="203.79" waitingTime="18.00" waitingCount="2" stopTime="0.00" timeLoss="39.55" rerouteNo="0" devices="tripinfo_136204_411_0 routing_136204_411_0" vType="pkw" speedFactor="1.04" vaporized=""/>
    <tripinfo id="57065_374_0" depart="25288.00" departLane="23429231#1_0" departPos="4.40" departSpeed="0.00" departDelay="22.00" arrival="25347.00" arrivalLane="32038051#0_0" arrivalPos="89.25" arrivalSpeed="17.48" duration="59.00" routeLength="203.79" waitingTime="29.00" waitingCount="2" stopTime="0.00" timeLoss="47.34" rerouteNo="0" devices="tripinfo_57065_374_0 routing_57065_374_0" vType="pkw" speedFactor="0.92" vaporized=""/>
    <tripinfo id="146814_416_0" depart="25301.00" departLane="23429231#1_0" departPos="4.40" departSpeed="0.00" departDelay="30.00" arrival="25348.00" arrivalLane="32038051#0_1" arrivalPos="89.25" arrivalSpeed="17.76" duration="47.00" routeLength="203.79" waitingTime="16.00" waitingCount="1" stopTime="0.00" timeLoss="34.93" rerouteNo="0" devices="tripinfo_146814_416_0 routing_146814_416_0" vType="pkw" speedFactor="0.93" vaporized=""/>
    <tripinfo id="82015_389_0" depart="25293.00" departLane="23429231#1_0" departPos="4.40" departSpeed="0.00" departDelay="25.00" arrival="25349.00" arrivalLane="32038051#0_0" arrivalPos="89.25" arrivalSpeed="19.96" duration="56.00" routeLength="203.79" waitingTime="22.00" waitingCount="2" stopTime="0.00" timeLoss="45.18" rerouteNo="0" devices="tripinfo_82015_389_0 routing_82015_389_0" vType="pkw" speedFactor="1.05" vaporized=""/>
    <tripinfo id="118286_405_0" depart="25307.00" departLane="23429231#1_0" departPos="4.40" departSpeed="0.00" departDelay="34.00" arrival="25349.00" arrivalLane="32038051#0_1" arrivalPos="89.25" arrivalSpeed="15.86" duration="42.00" routeLength="203.79" waitingTime="15.00" waitingCount="1" stopTime="0.00" timeLoss="29.63" rerouteNo="0" devices="tripinfo_118286_405_0 routing_118286_405_0" vType="pkw" speedFactor="0.86" vaporized=""/>
    <tripinfo id="135431_411_0" depart="25299.00" departLane="23429231#1_0" departPos="4.40" departSpeed="0.00" departDelay="30.00" arrival="25350.00" arrivalLane="32038051#0_0" arrivalPos="89.25" arrivalSpeed="19.90" duration="51.00" routeLength="203.79" waitingTime="20.00" waitingCount="2" stopTime="0.00" timeLoss="40.40" rerouteNo="0" devices="tripinfo_135431_411_0 routing_135431_411_0" vType="pkw" speedFactor="1.02" vaporized=""/>
    <tripinfo id="108236_400_0" depart="25312.00" departLane="23429231#1_0" departPos="4.40" departSpeed="0.00" departDelay="38.00" arrival="25351.00" arrivalLane="32038051#0_1" arrivalPos="89.25" arrivalSpeed="20.10" duration="39.00" routeLength="203.79" waitingTime="14.00" waitingCount="1" stopTime="0.00" timeLoss="28.18" rerouteNo="0" devices="tripinfo_108236_400_0 routing_108236_400_0" vType="pkw" speedFactor="1.04" vaporized=""/>
    <tripinfo id="125316_406_0" depart="25304.00" departLane="23429231#1_0" departPos="4.40" departSpeed="0.00" departDelay="33.00" arrival="25352.00" arrivalLane="32038051#0_0" arrivalPos="89.25" arrivalSpeed="19.41" duration="48.00" routeLength="203.79" waitingTime="18.00" waitingCount="1" stopTime="0.00" timeLoss="36.65" rerouteNo="0" devices="tripinfo_125316_406_0 routing_125316_406_0" vType="pkw" speedFactor="1.00" vaporized=""/>
    <tripinfo id="134435_411_0" depart="25309.00" departLane="23429231#1_0" departPos="4.40" departSpeed="0.00" departDelay="36.00" arrival="25353.00" arrivalLane="32038051#0_0" arrivalPos="89.25" arrivalSpeed="18.36" duration="44.00" routeLength="203.79" waitingTime="17.00" waitingCount="1" stopTime="0.00" timeLoss="32.73" rerouteNo="0" devices="tripinfo_134435_411_0 routing_134435_411_0" vType="pkw" speedFactor="0.96" vaporized=""/>
    <tripinfo id="146536_416_0" depart="25315.00" departLane="23429231#1_0" departPos="4.40" departSpeed="0.00" departDelay="40.00" arrival="25353.00" arrivalLane="32038051#0_1" arrivalPos="89.25" arrivalSpeed="18.23" duration="38.00" routeLength="203.79" waitingTime="13.00" waitingCount="1" stopTime="0.00" timeLoss="26.36" rerouteNo="0" devices="tripinfo_146536_416_0 routing_146536_416_0" vType="pkw" speedFactor="0.96" vaporized=""/>
    <tripinfo id="118931_405_0" depart="25320.00" departLane="23429231#1_0" departPos="4.40" departSpeed="0.00" departDelay="43.00" arrival="25354.00" arrivalLane="32038051#0_1" arrivalPos="89.25" arrivalSpeed="20.22" duration="34.00" routeLength="203.79" waitingTime="8.00" waitingCount="1" stopTime="0.00" timeLoss="24.43" rerouteNo="0" devices="tripinfo_118931_405_0 routing_118931_405_0" vType="pkw" speedFactor="1.13" vaporized=""/>
    <tripinfo id="110905_401_0" depart="25318.00" departLane="23429231#1_0" departPos="4.40" departSpeed="0.00" departDelay="42.00" arrival="25355.00" arrivalLane="32038051#0_0" arrivalPos="89.25" arrivalSpeed="20.52" duration="37.00" routeLength="203.79" waitingTime="12.00" waitingCount="1" stopTime="0.00" timeLoss="26.20" rerouteNo="0" devices="tripinfo_110905_401_0 routing_110905_401_0" vType="pkw" speedFactor="1.06" vaporized=""/>
    <tripinfo id="94647_393_0" depart="25323.00" departLane="23429231#1_0" departPos="4.40" departSpeed="0.00" departDelay="45.00" arrival="25356.00" arrivalLane="32038051#0_0" arrivalPos="89.25" arrivalSpeed="18.57" duration="33.00" routeLength="203.79" waitingTime="8.00" waitingCount="1" stopTime="0.00" timeLoss="22.19" rerouteNo="0" devices="tripinfo_94647_393_0 routing_94647_393_0" vType="pkw" speedFactor="0.99" vaporized=""/>
    <tripinfo id="157203_421_0" depart="25325.00" departLane="23429231#1_0" departPos="4.40" departSpeed="0.00" departDelay="45.00" arrival="25356.00" arrivalLane="32038051#0_1" arrivalPos="89.25" arrivalSpeed="17.80" duration="31.00" routeLength="203.79" waitingTime="7.00" waitingCount="1" stopTime="0.00" timeLoss="19.41" rerouteNo="0" devices="tripinfo_157203_421_0 routing_157203_421_0" vType="pkw" speedFactor="0.96" vaporized=""/>
    <tripinfo id="162096_421_0" depart="25306.00" departLane="130165204_0" departPos="4.40" departSpeed="0.00" departDelay="0.00" arrival="25361.00" arrivalLane="32038051#0_1" arrivalPos="89.25" arrivalSpeed="19.12" duration="55.00" routeLength="410.03" waitingTime="13.00" waitingCount="1" stopTime="0.00" timeLoss="27.61" rerouteNo="1" devices="tripinfo_162096_421_0 routing_162096_421_0" vType="pkw" speedFactor="0.99" vaporized=""/>
    <tripinfo id="113303_402_0" depart="25284.00" departLane="-32038056#3_0" departPos="4.40" departSpeed="0.00" departDelay="1.00" arrival="25363.00" arrivalLane="32324544#0_1" arrivalPos="90.48" arrivalSpeed="21.77" duration="79.00" routeLength="465.51" waitingTime="30.00" waitingCount="3" stopTime="0.00" timeLoss="51.94" rerouteNo="0" devices="tripinfo_113303_402_0 routing_113303_402_0" vType="pkw" speedFactor="1.19" vaporized=""/>
    <tripinfo id="86583_391_0" depart="25289.00" departLane="-32038056#3_0" departPos="4.40" departSpeed="0.00" departDelay="0.00" arrival="25363.00" arrivalLane="32038051#0_0" arrivalPos="89.25" arrivalSpeed="17.57" duration="74.00" routeLength="446.95" waitingTime="22.00" waitingCount="2" stopTime="0.00" timeLoss="41.34" rerouteNo="0" devices="tripinfo_86583_391_0 routing_86583_391_0" vType="pkw" speedFactor="0.95" vaporized=""/>
    <tripinfo id="120878_405_0" depart="25291.00" departLane="-32038056#3_0" departPos="4.40" departSpeed="0.00" departDelay="0.00" arrival="25364.00" arrivalLane="32038051#0_0" arrivalPos="89.25" arrivalSpeed="18.22" duration="73.00" routeLength="446.95" waitingTime="22.00" waitingCount="2" stopTime="0.00" timeLoss="44.60" rerouteNo="0" devices="tripinfo_120878_405_0 routing_120878_405_0" vType="pkw" speedFactor="1.06" vaporized=""/>
    <tripinfo id="137244_412_0" depart="25298.00" departLane="-32038056#3_0" departPos="4.40" departSpeed="0.00" departDelay="4.00" arrival="25364.00" arrivalLane="-28198821#4_1" arrivalPos="57.10" arrivalSpeed="12.94" duration="66.00" routeLength="437.47" waitingTime="21.00" waitingCount="2" stopTime="0.00" timeLoss="33.75" rerouteNo="0" devices="tripinfo_137244_412_0 routing_137244_412_0" vType="pkw" speedFactor="1.00" vaporized=""/>
    <tripinfo id="142412_415_0" depart="25307.00" departLane="-32038056#3_0" departPos="4.40" departSpeed="0.00" departDelay="0.00" arrival="25365.00" arrivalLane="-28198821#4_1" arrivalPos="57.10" arrivalSpeed="12.14" duration="58.00" routeLength="437.47" waitingTime="16.00" waitingCount="1" stopTime="0.00" timeLoss="25.39" rerouteNo="0" devices="tripinfo_142412_415_0 routing_142412_415_0" vType="pkw" speedFactor="0.97" vaporized=""/>
    <tripinfo id="85922_391_0" depart="25295.00" departLane="-32038056#3_0" departPos="4.40" departSpeed="0.00" departDelay="2.00" arrival="25366.00" arrivalLane="32038051#0_0" arrivalPos="89.25" arrivalSpeed="20.91" duration="71.00" routeLength="446.95" waitingTime="22.00" waitingCount="2" stopTime="0.00" timeLoss="43.22" rerouteNo="0" devices="tripinfo_85922_391_0 routing_85922_391_0" vType="pkw" speedFactor="1.11" vaporized=""/>
    <tripinfo id="139731_413_0" depart="25328.00" departLane="23429231#1_0" departPos="4.40" departSpeed="0.00" departDelay="48.00" arrival="25373.00" arrivalLane="32038051#0_0" arrivalPos="89.25" arrivalSpeed="17.82" duration="45.00" routeLength="203.79" waitingTime="12.00" waitingCount="2" stopTime="0.00" timeLoss="33.24" rerouteNo="0" devices="tripinfo_139731_413_0 routing_139731_413_0" vType="pkw" speedFactor="0.92" vaporized=""/>
    <tripinfo id="137559_412_0" depart="25330.00" departLane="23429231#1_0" departPos="4.40" departSpeed="0.00" departDelay="48.00" arrival="25373.00" arrivalLane="32038051#0_1" arrivalPos="89.25" arrivalSpeed="17.76" duration="43.00" routeLength="203.79" waitingTime="13.00" waitingCount="2" stopTime="0.00" timeLoss="31.39" rerouteNo="0" devices="tripinfo_137559_412_0 routing_137559_412_0" vType="pkw" speedFactor="0.95" vaporized=""/>
    <tripinfo id="133688_411_0" depart="25336.00" departLane="23429231#1_0" departPos="4.40" departSpeed="0.00" departDelay="52.00" arrival="25374.00" arrivalLane="32038051#0_1" arrivalPos="89.25" arrivalSpeed="19.03" duration="38.00" routeLength="203.79" waitingTime="9.00" waitingCount="1" stopTime="0.00" timeLoss="27.73" rerouteNo="0" devices="tripinfo_133688_411_0 routing_133688_411_0" vType="pkw" speedFactor="1.02" vaporized=""/>
    <tripinfo id="106268_399_0" depart="25333.00" departLane="23429231#1_0" departPos="4.40" departSpeed="0.00" departDelay="51.00" arrival="25375.00" arrivalLane="32038051#0_0" arrivalPos="89.25" arrivalSpeed="18.62" duration="42.00" routeLength="203.79" waitingTime="7.00" waitingCount="1" stopTime="0.00" timeLoss="30.93" rerouteNo="0" devices="tripinfo_106268_399_0 routing_106268_399_0" vType="pkw" speedFactor="1.01" vaporized=""/>
    <tripinfo id="149973_417_0" depart="25344.00" departLane="23429231#1_0" departPos="4.40" departSpeed="0.00" departDelay="0.00" arrival="25376.00" arrivalLane="32038051#0_0" arrivalPos="89.25" arrivalSpeed="18.35" duration="32.00" routeLength="203.79" waitingTime="7.00" waitingCount="1" stopTime="0.00" timeLoss="21.22" rerouteNo="0" devices="tripinfo_149973_417_0 routing_149973_417_0" vType="pkw" speedFactor="0.99" vaporized=""/>
    <tripinfo id="127662_407_0" depart="25346.00" departLane="23429231#1_0" departPos="4.40" departSpeed="0.00" departDelay="2.00" arrival="25377.00" arrivalLane="32324544#0_1" arrivalPos="90.48" arrivalSpeed="17.89" duration="31.00" routeLength="203.50" waitingTime="7.00" waitingCount="1" stopTime="0.00" timeLoss="20.04" rerouteNo="0" devices="tripinfo_127662_407_0 routing_127662_407_0" vType="pkw" speedFactor="0.96" vaporized=""/>
    <tripinfo id="175147_428_0" depart="25324.00" departLane="130165204_0" departPos="4.40" departSpeed="0.00" departDelay="0.00" arrival="25379.00" arrivalLane="32038051#0_1" arrivalPos="89.25" arrivalSpeed="18.44" duration="55.00" routeLength="410.03" waitingTime="8.00" waitingCount="1" stopTime="0.00" timeLoss="27.69" rerouteNo="1" devices="tripinfo_175147_428_0 routing_175147_428_0" vType="pkw" speedFactor="0.97" vaporized=""/>