<?xml version="1.0" encoding="UTF-8"?>

<!-- generated on 2023-08-28 21:05:44 by Eclipse SUMO libsumo Version 1.18.0
<configuration xmlns:xsi="http://www.w3.org/2001/XMLSchema-instance" xsi:noNamespaceSchemaLocation="http://sumo.dlr.de/xsd/libsumoConfiguration.xsd">

    <input>
        <net-file value="/home/stefan/RESCO/./environments/cologne1/cologne1.net.xml"/>
        <route-files value="/home/stefan/RESCO/./environments/cologne1/cologne1.rou.xml"/>
    </input>

    <output>
        <tripinfo-output value="/home/stefan/results/ITRPO-tr0-cologne1-0-drq_norm-wait_norm/tripinfo_96.xml"/>
        <tripinfo-output.write-unfinished value="true"/>
    </output>

    <time>
        <begin value="25200"/>
        <end value="28800"/>
    </time>

    <processing>
        <time-to-teleport value="-1"/>
    </processing>

    <report>
        <no-warnings value="True"/>
        <no-step-log value="True"/>
    </report>

    <random_number>
        <random value="true"/>
    </random_number>

</configuration>
-->

<tripinfos xmlns:xsi="http://www.w3.org/2001/XMLSchema-instance" xsi:noNamespaceSchemaLocation="http://sumo.dlr.de/xsd/tripinfo_file.xsd">
    <tripinfo id="151372_418_0" depart="25207.00" departLane="130165204_0" departPos="4.40" departSpeed="0.00" departDelay="0.00" arrival="25238.00" arrivalLane="32038051#0_1" arrivalPos="89.25" arrivalSpeed="19.84" duration="31.00" routeLength="410.03" waitingTime="0.00" waitingCount="0" stopTime="0.00" timeLoss="6.31" rerouteNo="1" devices="tripinfo_151372_418_0 routing_151372_418_0" vType="pkw" speedFactor="1.07" vaporized=""/>
    <tripinfo id="124779_406_0" depart="25205.00" departLane="28198821#3_0" departPos="4.40" departSpeed="0.00" departDelay="0.00" arrival="25250.00" arrivalLane="32038051#0_1" arrivalPos="89.25" arrivalSpeed="14.89" duration="45.00" routeLength="170.57" waitingTime="24.00" waitingCount="1" stopTime="0.00" timeLoss="32.30" rerouteNo="0" devices="tripinfo_124779_406_0 routing_124779_406_0" vType="pkw" speedFactor="0.79" vaporized=""/>
    <tripinfo id="98305_395_0" depart="25211.00" departLane="28198821#3_0" departPos="4.40" departSpeed="0.00" departDelay="0.00" arrival="25252.00" arrivalLane="32038051#0_1" arrivalPos="89.25" arrivalSpeed="14.34" duration="41.00" routeLength="170.57" waitingTime="20.00" waitingCount="1" stopTime="0.00" timeLoss="28.34" rerouteNo="0" devices="tripinfo_98305_395_0 routing_98305_395_0" vType="pkw" speedFactor="0.80" vaporized=""/>
    <tripinfo id="102535_396_0" depart="25218.00" departLane="28198821#3_0" departPos="4.40" departSpeed="0.00" departDelay="0.00" arrival="25254.00" arrivalLane="32038051#0_1" arrivalPos="89.25" arrivalSpeed="19.19" duration="36.00" routeLength="170.57" waitingTime="14.00" waitingCount="1" stopTime="0.00" timeLoss="25.75" rerouteNo="0" devices="tripinfo_102535_396_0 routing_102535_396_0" vType="pkw" speedFactor="1.06" vaporized=""/>
    <tripinfo id="123965_406_0" depart="25218.00" departLane="-32038056#3_0" departPos="4.40" departSpeed="0.00" departDelay="0.00" arrival="25258.00" arrivalLane="-28198821#4_0" arrivalPos="57.10" arrivalSpeed="12.06" duration="40.00" routeLength="437.47" waitingTime="0.00" waitingCount="0" stopTime="0.00" timeLoss="4.43" rerouteNo="0" devices="tripinfo_123965_406_0 routing_123965_406_0" vType="pkw" speedFactor="0.90" vaporized=""/>
    <tripinfo id="147209_416_0" depart="25220.00" departLane="28198821#3_0" departPos="4.40" departSpeed="0.00" departDelay="0.00" arrival="25262.00" arrivalLane="32038051#0_1" arrivalPos="89.25" arrivalSpeed="19.91" duration="42.00" routeLength="170.57" waitingTime="15.00" waitingCount="2" stopTime="0.00" timeLoss="32.93" rerouteNo="0" devices="tripinfo_147209_416_0 routing_147209_416_0" vType="pkw" speedFactor="1.12" vaporized=""/>
    <tripinfo id="91582_392_0" depart="25220.00" departLane="-32038056#3_0" departPos="4.40" departSpeed="0.00" departDelay="2.00" arrival="25264.00" arrivalLane="32324544#0_1" arrivalPos="90.48" arrivalSpeed="16.18" duration="44.00" routeLength="465.51" waitingTime="0.00" waitingCount="0" stopTime="0.00" timeLoss="7.23" rerouteNo="0" devices="tripinfo_91582_392_0 routing_91582_392_0" vType="pkw" speedFactor="0.86" vaporized=""/>
    <tripinfo id="160150_421_0" depart="25223.00" departLane="-32038056#3_0" departPos="4.40" departSpeed="0.00" departDelay="4.00" arrival="25264.00" arrivalLane="32038051#0_0" arrivalPos="89.25" arrivalSpeed="16.46" duration="41.00" routeLength="446.95" waitingTime="0.00" waitingCount="0" stopTime="0.00" timeLoss="5.29" rerouteNo="0" devices="tripinfo_160150_421_0 routing_160150_421_0" vType="pkw" speedFactor="0.87" vaporized=""/>
    <tripinfo id="162814_422_0" depart="25233.00" departLane="-32038056#3_0" departPos="4.40" departSpeed="0.00" departDelay="0.00" arrival="25265.00" arrivalLane="32038051#0_0" arrivalPos="89.25" arrivalSpeed="19.05" duration="32.00" routeLength="446.95" waitingTime="0.00" waitingCount="0" stopTime="0.00" timeLoss="5.77" rerouteNo="0" devices="tripinfo_162814_422_0 routing_162814_422_0" vType="pkw" speedFactor="1.16" vaporized=""/>
    <tripinfo id="149029_417_0" depart="25236.00" departLane="27115123#2_0" departPos="4.40" departSpeed="0.00" departDelay="0.00" arrival="25303.00" arrivalLane="32038051#0_1" arrivalPos="89.25" arrivalSpeed="20.89" duration="67.00" routeLength="196.41" waitingTime="44.00" waitingCount="1" stopTime="0.00" timeLoss="56.99" rerouteNo="1" devices="tripinfo_149029_417_0 routing_149029_417_0" vType="pkw" speedFactor="1.10" vaporized=""/>
    <tripinfo id="130602_409_0" depart="25268.00" departLane="-32038056#3_0" departPos="4.40" departSpeed="0.00" departDelay="0.00" arrival="25308.00" arrivalLane="-28198821#4_0" arrivalPos="57.10" arrivalSpeed="14.32" duration="40.00" routeLength="437.47" waitingTime="0.00" waitingCount="0" stopTime="0.00" timeLoss="9.48" rerouteNo="0" devices="tripinfo_130602_409_0 routing_130602_409_0" vType="pkw" speedFactor="1.06" vaporized=""/>
    <tripinfo id="121258_405_0" depart="25240.00" departLane="23429231#1_0" departPos="4.40" departSpeed="0.00" departDelay="0.00" arrival="25313.00" arrivalLane="32038051#0_0" arrivalPos="89.25" arrivalSpeed="16.99" duration="73.00" routeLength="203.79" waitingTime="50.00" waitingCount="1" stopTime="0.00" timeLoss="60.88" rerouteNo="0" devices="tripinfo_121258_405_0 routing_121258_405_0" vType="pkw" speedFactor="0.92" vaporized=""/>
    <tripinfo id="126742_407_0" depart="25242.00" departLane="23429231#1_0" departPos="4.40" departSpeed="0.00" departDelay="2.00" arrival="25313.00" arrivalLane="32038051#0_1" arrivalPos="89.25" arrivalSpeed="20.49" duration="71.00" routeLength="203.79" waitingTime="45.00" waitingCount="1" stopTime="0.00" timeLoss="61.11" rerouteNo="0" devices="tripinfo_126742_407_0 routing_126742_407_0" vType="pkw" speedFactor="1.12" vaporized=""/>
    <tripinfo id="102501_396_0" depart="25245.00" departLane="23429231#1_0" departPos="4.40" departSpeed="0.00" departDelay="1.00" arrival="25314.00" arrivalLane="32038051#0_0" arrivalPos="89.25" arrivalSpeed="19.96" duration="69.00" routeLength="203.79" waitingTime="46.00" waitingCount="1" stopTime="0.00" timeLoss="59.37" rerouteNo="0" devices="tripinfo_102501_396_0 routing_102501_396_0" vType="pkw" speedFactor="1.12" vaporized=""/>
    <tripinfo id="120663_405_0" depart="25248.00" departLane="23429231#1_0" departPos="4.40" departSpeed="0.00" departDelay="2.00" arrival="25314.00" arrivalLane="32038051#0_1" arrivalPos="89.25" arrivalSpeed="17.39" duration="66.00" routeLength="203.79" waitingTime="43.00" waitingCount="1" stopTime="0.00" timeLoss="54.42" rerouteNo="0" devices="tripinfo_120663_405_0 routing_120663_405_0" vType="pkw" speedFactor="0.91" vaporized=""/>
    <tripinfo id="148629_417_0" depart="25284.00" departLane="27115123#2_0" departPos="4.40" departSpeed="0.00" departDelay="0.00" arrival="25314.00" arrivalLane="32324544#0_0" arrivalPos="90.48" arrivalSpeed="17.98" duration="30.00" routeLength="198.06" waitingTime="6.00" waitingCount="1" stopTime="0.00" timeLoss="19.22" rerouteNo="1" devices="tripinfo_148629_417_0 routing_148629_417_0" vType="pkw" speedFactor="0.96" vaporized=""/>
    <tripinfo id="113509_402_0" depart="25251.00" departLane="23429231#1_0" departPos="4.40" departSpeed="0.00" departDelay="3.00" arrival="25316.00" arrivalLane="-28198821#4_1" arrivalPos="57.10" arrivalSpeed="14.24" duration="65.00" routeLength="179.90" waitingTime="41.00" waitingCount="1" stopTime="0.00" timeLoss="54.83" rerouteNo="0" devices="tripinfo_113509_402_0 routing_113509_402_0" vType="pkw" speedFactor="1.09" vaporized=""/>
    <tripinfo id="130147_409_0" depart="25254.00" departLane="23429231#1_0" departPos="4.40" departSpeed="0.00" departDelay="3.00" arrival="25316.00" arrivalLane="32038051#0_0" arrivalPos="89.25" arrivalSpeed="20.57" duration="62.00" routeLength="203.79" waitingTime="39.00" waitingCount="1" stopTime="0.00" timeLoss="52.14" rerouteNo="0" devices="tripinfo_130147_409_0 routing_130147_409_0" vType="pkw" speedFactor="1.10" vaporized=""/>
    <tripinfo id="128446_408_0" depart="25273.00" departLane="-32038056#3_0" departPos="4.40" departSpeed="0.00" departDelay="0.00" arrival="25329.00" arrivalLane="32324544#0_1" arrivalPos="90.48" arrivalSpeed="19.91" duration="56.00" routeLength="465.51" waitingTime="15.00" waitingCount="1" stopTime="0.00" timeLoss="25.57" rerouteNo="0" devices="tripinfo_128446_408_0 routing_128446_408_0" vType="pkw" speedFactor="1.03" vaporized=""/>
    <tripinfo id="136082_411_0" depart="25278.00" departLane="-32038056#3_0" departPos="4.40" departSpeed="0.00" departDelay="1.00" arrival="25329.00" arrivalLane="32038051#0_0" arrivalPos="89.25" arrivalSpeed="15.83" duration="51.00" routeLength="446.95" waitingTime="4.00" waitingCount="1" stopTime="0.00" timeLoss="15.56" rerouteNo="0" devices="tripinfo_136082_411_0 routing_136082_411_0" vType="pkw" speedFactor="0.87" vaporized=""/>
    <tripinfo id="115444_403_0" depart="25294.00" departLane="28198821#3_0" departPos="4.40" departSpeed="0.00" departDelay="0.00" arrival="25329.00" arrivalLane="32038051#0_1" arrivalPos="89.25" arrivalSpeed="16.21" duration="35.00" routeLength="170.57" waitingTime="15.00" waitingCount="1" stopTime="0.00" timeLoss="23.59" rerouteNo="0" devices="tripinfo_115444_403_0 routing_115444_403_0" vType="pkw" speedFactor="0.90" vaporized=""/>
    <tripinfo id="122376_406_0" depart="25259.00" departLane="23429231#1_0" departPos="4.40" departSpeed="0.00" departDelay="5.00" arrival="25332.00" arrivalLane="32038051#0_1" arrivalPos="89.25" arrivalSpeed="18.70" duration="73.00" routeLength="203.79" waitingTime="42.00" waitingCount="2" stopTime="0.00" timeLoss="62.52" rerouteNo="0" devices="tripinfo_122376_406_0 routing_122376_406_0" vType="pkw" speedFactor="1.00" vaporized=""/>
    <tripinfo id="102630_396_0" depart="25256.00" departLane="23429231#1_0" departPos="4.40" departSpeed="0.00" departDelay="4.00" arrival="25333.00" arrivalLane="32038051#0_0" arrivalPos="89.25" arrivalSpeed="19.49" duration="77.00" routeLength="203.79" waitingTime="46.00" waitingCount="2" stopTime="0.00" timeLoss="66.09" rerouteNo="0" devices="tripinfo_102630_396_0 routing_102630_396_0" vType="pkw" speedFactor="1.04" vaporized=""/>
    <tripinfo id="122194_406_0" depart="25262.00" departLane="23429231#1_0" departPos="4.40" departSpeed="0.00" departDelay="7.00" arrival="25334.00" arrivalLane="32038051#0_0" arrivalPos="89.25" arrivalSpeed="22.17" duration="72.00" routeLength="203.79" waitingTime="41.00" waitingCount="2" stopTime="0.00" timeLoss="63.76" rerouteNo="0" devices="tripinfo_122194_406_0 routing_122194_406_0" vType="pkw" speedFactor="1.29" vaporized=""/>
    <tripinfo id="135103_411_0" depart="25265.00" departLane="23429231#1_0" departPos="4.40" departSpeed="0.00" departDelay="9.00" arrival="25335.00" arrivalLane="32038051#0_1" arrivalPos="89.25" arrivalSpeed="16.96" duration="70.00" routeLength="203.79" waitingTime="37.00" waitingCount="2" stopTime="0.00" timeLoss="57.56" rerouteNo="0" devices="tripinfo_135103_411_0 routing_135103_411_0" vType="pkw" speedFactor="0.87" vaporized=""/>
    <tripinfo id="152958_419_0" depart="25267.00" departLane="23429231#1_0" departPos="4.40" departSpeed="0.00" departDelay="10.00" arrival="25337.00" arrivalLane="32038051#0_0" arrivalPos="89.25" arrivalSpeed="17.16" duration="70.00" routeLength="203.79" waitingTime="36.00" waitingCount="2" stopTime="0.00" timeLoss="58.46" rerouteNo="0" devices="tripinfo_152958_419_0 routing_152958_419_0" vType="pkw" speedFactor="0.95" vaporized=""/>
    <tripinfo id="125613_406_0" depart="25270.00" departLane="23429231#1_0" departPos="4.40" departSpeed="0.00" departDelay="12.00" arrival="25337.00" arrivalLane="32038051#0_1" arrivalPos="89.25" arrivalSpeed="18.74" duration="67.00" routeLength="203.79" waitingTime="33.00" waitingCount="2" stopTime="0.00" timeLoss="55.97" rerouteNo="0" devices="tripinfo_125613_406_0 routing_125613_406_0" vType="pkw" speedFactor="1.02" vaporized=""/>
    <tripinfo id="162096_421_0" depart="25306.00" departLane="130165204_0" departPos="4.40" departSpeed="0.00" departDelay="0.00" arrival="25342.00" arrivalLane="32038051#0_1" arrivalPos="89.25" arrivalSpeed="17.84" duration="36.00" routeLength="410.03" waitingTime="0.00" waitingCount="0" stopTime="0.00" timeLoss="6.84" rerouteNo="1" devices="tripinfo_162096_421_0 routing_162096_421_0" vType="pkw" speedFactor="0.92" vaporized=""/>
    <tripinfo id="83516_390_0" depart="25276.00" departLane="-32038056#3_0" departPos="4.40" departSpeed="0.00" departDelay="1.00" arrival="25349.00" arrivalLane="32324544#0_1" arrivalPos="90.48" arrivalSpeed="19.12" duration="73.00" routeLength="465.51" waitingTime="30.00" waitingCount="2" stopTime="0.00" timeLoss="42.09" rerouteNo="0" devices="tripinfo_83516_390_0 routing_83516_390_0" vType="pkw" speedFactor="1.03" vaporized=""/>
    <tripinfo id="85818_390_0" depart="25281.00" departLane="-32038056#3_0" departPos="4.40" departSpeed="0.00" departDelay="1.00" arrival="25349.00" arrivalLane="32038051#0_0" arrivalPos="89.25" arrivalSpeed="16.30" duration="68.00" routeLength="446.95" waitingTime="17.00" waitingCount="2" stopTime="0.00" timeLoss="33.18" rerouteNo="0" devices="tripinfo_85818_390_0 routing_85818_390_0" vType="pkw" speedFactor="0.89" vaporized=""/>
    <tripinfo id="103540_397_0" depart="25300.00" departLane="28198821#3_0" departPos="4.40" departSpeed="0.00" departDelay="0.00" arrival="25349.00" arrivalLane="32038051#0_1" arrivalPos="89.25" arrivalSpeed="18.59" duration="49.00" routeLength="170.57" waitingTime="26.00" waitingCount="2" stopTime="0.00" timeLoss="38.51" rerouteNo="0" devices="tripinfo_103540_397_0 routing_103540_397_0" vType="pkw" speedFactor="1.00" vaporized=""/>
    <tripinfo id="133955_411_0" depart="25273.00" departLane="23429231#1_0" departPos="4.40" departSpeed="0.00" departDelay="14.00" arrival="25353.00" arrivalLane="32038051#0_0" arrivalPos="89.25" arrivalSpeed="20.55" duration="80.00" routeLength="203.79" waitingTime="43.00" waitingCount="3" stopTime="0.00" timeLoss="69.34" rerouteNo="0" devices="tripinfo_133955_411_0 routing_133955_411_0" vType="pkw" speedFactor="1.07" vaporized=""/>
    <tripinfo id="129253_408_0" depart="25276.00" departLane="23429231#1_0" departPos="4.40" departSpeed="0.00" departDelay="16.00" arrival="25353.00" arrivalLane="32038051#0_1" arrivalPos="89.25" arrivalSpeed="21.67" duration="77.00" routeLength="203.79" waitingTime="38.00" waitingCount="3" stopTime="0.00" timeLoss="67.07" rerouteNo="0" devices="tripinfo_129253_408_0 routing_129253_408_0" vType="pkw" speedFactor="1.16" vaporized=""/>
    <tripinfo id="120275_405_0" depart="25279.00" departLane="23429231#1_0" departPos="4.40" departSpeed="0.00" departDelay="18.00" arrival="25354.00" arrivalLane="32038051#0_0" arrivalPos="89.25" arrivalSpeed="18.85" duration="75.00" routeLength="203.79" waitingTime="37.00" waitingCount="3" stopTime="0.00" timeLoss="63.96" rerouteNo="0" devices="tripinfo_120275_405_0 routing_120275_405_0" vType="pkw" speedFactor="0.97" vaporized=""/>
    <tripinfo id="134807_411_0" depart="25281.00" departLane="23429231#1_0" departPos="4.40" departSpeed="0.00" departDelay="19.00" arrival="25356.00" arrivalLane="32324544#0_1" arrivalPos="90.48" arrivalSpeed="20.39" duration="75.00" routeLength="203.50" waitingTime="35.00" waitingCount="3" stopTime="0.00" timeLoss="65.05" rerouteNo="0" devices="tripinfo_134807_411_0 routing_134807_411_0" vType="pkw" speedFactor="1.13" vaporized=""/>
    <tripinfo id="135201_411_0" depart="25283.00" departLane="23429231#1_0" departPos="4.40" departSpeed="0.00" departDelay="19.00" arrival="25356.00" arrivalLane="32038051#0_0" arrivalPos="89.25" arrivalSpeed="17.08" duration="73.00" routeLength="203.79" waitingTime="33.00" waitingCount="3" stopTime="0.00" timeLoss="61.52" rerouteNo="0" devices="tripinfo_135201_411_0 routing_135201_411_0" vType="pkw" speedFactor="0.93" vaporized=""/>
    <tripinfo id="86189_391_0" depart="25285.00" departLane="23429231#1_0" departPos="4.40" departSpeed="0.00" departDelay="20.00" arrival="25356.00" arrivalLane="32038051#0_1" arrivalPos="89.25" arrivalSpeed="17.40" duration="71.00" routeLength="203.79" waitingTime="30.00" waitingCount="3" stopTime="0.00" timeLoss="59.51" rerouteNo="0" devices="tripinfo_86189_391_0 routing_86189_391_0" vType="pkw" speedFactor="0.93" vaporized=""/>
    <tripinfo id="86583_391_0" depart="25289.00" departLane="-32038056#3_0" departPos="4.40" departSpeed="0.00" departDelay="0.00" arrival="25362.00" arrivalLane="32038051#0_0" arrivalPos="89.25" arrivalSpeed="16.83" duration="73.00" routeLength="446.95" waitingTime="22.00" waitingCount="2" stopTime="0.00" timeLoss="39.81" rerouteNo="0" devices="tripinfo_86583_391_0 routing_86583_391_0" vType="pkw" speedFactor="0.92" vaporized=""/>
    <tripinfo id="113303_402_0" depart="25283.00" departLane="-32038056#3_0" departPos="4.40" departSpeed="0.00" departDelay="0.00" arrival="25364.00" arrivalLane="32324544#0_1" arrivalPos="90.48" arrivalSpeed="13.83" duration="81.00" routeLength="465.51" waitingTime="25.00" waitingCount="2" stopTime="0.00" timeLoss="38.88" rerouteNo="0" devices="tripinfo_113303_402_0 routing_113303_402_0" vType="pkw" speedFactor="0.75" vaporized=""/>
    <tripinfo id="120878_405_0" depart="25292.00" departLane="-32038056#3_0" departPos="4.40" departSpeed="0.00" departDelay="1.00" arrival="25364.00" arrivalLane="32038051#0_0" arrivalPos="89.25" arrivalSpeed="15.50" duration="72.00" routeLength="446.95" waitingTime="19.00" waitingCount="2" stopTime="0.00" timeLoss="36.00" rerouteNo="0" devices="tripinfo_120878_405_0 routing_120878_405_0" vType="pkw" speedFactor="0.85" vaporized=""/>
    <tripinfo id="137244_412_0" depart="25297.00" departLane="-32038056#3_0" departPos="4.40" departSpeed="0.00" departDelay="3.00" arrival="25365.00" arrivalLane="-28198821#4_1" arrivalPos="57.10" arrivalSpeed="12.35" duration="68.00" routeLength="437.47" waitingTime="17.00" waitingCount="2" stopTime="0.00" timeLoss="32.16" rerouteNo="0" devices="tripinfo_137244_412_0 routing_137244_412_0" vType="pkw" speedFactor="0.90" vaporized=""/>
    <tripinfo id="85922_391_0" depart="25295.00" departLane="-32038056#3_0" departPos="4.40" departSpeed="0.00" departDelay="2.00" arrival="25366.00" arrivalLane="32038051#0_0" arrivalPos="89.25" arrivalSpeed="15.78" duration="71.00" routeLength="446.95" waitingTime="16.00" waitingCount="3" stopTime="0.00" timeLoss="35.67" rerouteNo="0" devices="tripinfo_85922_391_0 routing_85922_391_0" vType="pkw" speedFactor="0.87" vaporized=""/>
    <tripinfo id="142412_415_0" depart="25307.00" departLane="-32038056#3_0" departPos="4.40" departSpeed="0.00" departDelay="0.00" arrival="25366.00" arrivalLane="-28198821#4_1" arrivalPos="57.10" arrivalSpeed="13.49" duration="59.00" routeLength="437.47" waitingTime="12.00" waitingCount="2" stopTime="0.00" timeLoss="29.48" rerouteNo="0" devices="tripinfo_142412_415_0 routing_142412_415_0" vType="pkw" speedFactor="1.08" vaporized=""/>
    <tripinfo id="57065_374_0" depart="25288.00" departLane="23429231#1_0" departPos="4.40" departSpeed="0.00" departDelay="22.00" arrival="25373.00" arrivalLane="32038051#0_0" arrivalPos="89.25" arrivalSpeed="16.41" duration="85.00" routeLength="203.79" waitingTime="38.00" waitingCount="4" stopTime="0.00" timeLoss="74.54" rerouteNo="0" devices="tripinfo_57065_374_0 routing_57065_374_0" vType="pkw" speedFactor="1.05" vaporized=""/>
    <tripinfo id="129519_408_0" depart="25291.00" departLane="23429231#1_0" departPos="4.40" departSpeed="0.00" departDelay="24.00" arrival="25373.00" arrivalLane="32038051#0_1" arrivalPos="89.25" arrivalSpeed="16.27" duration="82.00" routeLength="203.79" waitingTime="35.00" waitingCount="4" stopTime="0.00" timeLoss="69.64" rerouteNo="0" devices="tripinfo_129519_408_0 routing_129519_408_0" vType="pkw" speedFactor="0.89" vaporized=""/>
    <tripinfo id="136204_411_0" depart="25298.00" departLane="23429231#1_0" departPos="4.40" departSpeed="0.00" departDelay="29.00" arrival="25374.00" arrivalLane="32038051#0_1" arrivalPos="89.25" arrivalSpeed="19.50" duration="76.00" routeLength="203.79" waitingTime="28.00" waitingCount="5" stopTime="0.00" timeLoss="65.59" rerouteNo="0" devices="tripinfo_136204_411_0 routing_136204_411_0" vType="pkw" speedFactor="1.02" vaporized=""/>
    <tripinfo id="82015_389_0" depart="25294.00" departLane="23429231#1_0" departPos="4.40" departSpeed="0.00" departDelay="26.00" arrival="25375.00" arrivalLane="32038051#0_0" arrivalPos="89.25" arrivalSpeed="17.54" duration="81.00" routeLength="203.79" waitingTime="33.00" waitingCount="4" stopTime="0.00" timeLoss="69.68" rerouteNo="0" devices="tripinfo_82015_389_0 routing_82015_389_0" vType="pkw" speedFactor="0.97" vaporized=""/>
    <tripinfo id="135431_411_0" depart="25301.00" departLane="23429231#1_0" departPos="4.40" departSpeed="0.00" departDelay="32.00" arrival="25376.00" arrivalLane="32038051#0_0" arrivalPos="89.25" arrivalSpeed="18.47" duration="75.00" routeLength="203.79" waitingTime="27.00" waitingCount="4" stopTime="0.00" timeLoss="65.70" rerouteNo="0" devices="tripinfo_135431_411_0 routing_135431_411_0" vType="pkw" speedFactor="1.13" vaporized=""/>
    <tripinfo id="146814_416_0" depart="25303.00" departLane="23429231#1_0" departPos="4.40" departSpeed="0.00" departDelay="32.00" arrival="25376.00" arrivalLane="32038051#0_1" arrivalPos="89.25" arrivalSpeed="17.95" duration="73.00" routeLength="203.79" waitingTime="21.00" waitingCount="4" stopTime="0.00" timeLoss="61.48" rerouteNo="0" devices="tripinfo_146814_416_0 routing_146814_416_0" vType="pkw" speedFactor="0.96" vaporized=""/>
    <tripinfo id="175147_428_0" depart="25324.00" departLane="130165204_0" departPos="4.40" departSpeed="0.00" departDelay="0.00" arrival="25380.00" arrivalLane="32038051#0_1" arrivalPos="89.25" arrivalSpeed="18.06" duration="56.00" routeLength="410.03" waitingTime="10.00" waitingCount="2" stopTime="0.00" timeLoss="27.04" rerouteNo="1" devices="tripinfo_175147_428_0 routing_175147_428_0" vType="pkw" speedFactor="0.93" vaporized=""/>
    <tripinfo id="161721_421_0" depart="25337.00" departLane="130165204_0" departPos="4.40" departSpeed="0.00" departDelay="0.00" arrival="25381.00" arrivalLane="32038051#0_1" arrivalPos="89.25" arrivalSpeed="19.83" duration="44.00" routeLength="410.03" waitingTime="1.00" waitingCount="1" stopTime="0.00" timeLoss="20.90" rerouteNo="1" devices="tripinfo_161721_421_0 routing_161721_421_0" vType="pkw" speedFactor="1.15" vaporized=""/>
    <tripinfo id="118963_405_0" depart="25304.00" departLane="-32038056#3_0" departPos="4.40" departSpeed="0.00" departDelay="0.00" arrival="25388.00" arrivalLane="32038051#0_0" arrivalPos="89.25" arrivalSpeed="20.98" duration="84.00" routeLength="446.95" waitingTime="33.00" waitingCount="3" stopTime="0.00" timeLoss="55.56" rerouteNo="0" devices="tripinfo_118963_405_0 routing_118963_405_0" vType="pkw" speedFactor="1.08" vaporized=""/>
    <tripinfo id="138220_412_0" depart="25310.00" departLane="-32038056#3_0" departPos="4.40" departSpeed="0.00" departDelay="1.00" arrival="25389.00" arrivalLane="-28198821#4_1" arrivalPos="57.10" arrivalSpeed="12.00" duration="79.00" routeLength="437.47" waitingTime="23.00" waitingCount="2" stopTime="0.00" timeLoss="44.93" rerouteNo="0" devices="tripinfo_138220_412_0 routing_138220_412_0" vType="pkw" speedFactor="0.95" vaporized=""/>
    <tripinfo id="167799_425_0" depart="25327.00" departLane="-32038056#3_0" departPos="4.40" departSpeed="0.00" departDelay="0.00" arrival="25418.00" arrivalLane="-28198821#4_0" arrivalPos="57.10" arrivalSpeed="13.39" duration="91.00" routeLength="437.47" waitingTime="40.00" waitingCount="2" stopTime="0.00" timeLoss="59.47" rerouteNo="0" devices="tripinfo_167799_425_0 routing_167799_425_0" vType="pkw" speedFactor="1.01" vaporized=""/>
    <tripinfo id="136152_411_0" depart="25313.00" departLane="-32038056#3_0" departPos="4.40" departSpeed="0.00" departDelay="0.00" arrival="25419.00" arrivalLane="32038051#0_0" arrivalPos="89.25" arrivalSpeed="15.86" duration="106.00" routeLength="446.95" waitingTime="46.00" waitingCount="3" stopTime="0.00" timeLoss="70.05" rerouteNo="0" devices="tripinfo_136152_411_0 routing_136152_411_0" vType="pkw" speedFactor="0.86" vaporized=""/>
    <tripinfo id="125316_406_0" depart="25306.00" departLane="23429231#1_0" departPos="4.40" departSpeed="0.00" departDelay="35.00" arrival="25423.00" arrivalLane="32038051#0_0" arrivalPos="89.25" arrivalSpeed="20.43" duration="117.00" routeLength="203.79" waitingTime="62.00" waitingCount="5" stopTime="0.00" timeLoss="106.71" rerouteNo="0" devices="tripinfo_125316_406_0 routing_125316_406_0" vType="pkw" speedFactor="1.06" vaporized=""/>
    <tripinfo id="118286_405_0" depart="25309.00" departLane="23429231#1_0" departPos="4.40" departSpeed="0.00" departDelay="36.00" arrival="25423.00" arrivalLane="32038051#0_1" arrivalPos="89.25" arrivalSpeed="20.31" duration="114.00" routeLength="203.79" waitingTime="59.00" waitingCount="4" stopTime="0.00" timeLoss="103.65" rerouteNo="0" devices="tripinfo_118286_405_0 routing_118286_405_0" vType="pkw" speedFactor="1.08" vaporized=""/>
    <tripinfo id="134435_411_0" depart="25312.00" departLane="23429231#1_0" departPos="4.40" departSpeed="0.00" departDelay="39.00" arrival="25425.00" arrivalLane="32038051#0_0" arrivalPos="89.25" arrivalSpeed="18.79" duration="113.00" routeLength="203.79" waitingTime="59.00" waitingCount="5" stopTime="0.00" timeLoss="101.53" rerouteNo="0" devices="tripinfo_134435_411_0 routing_134435_411_0" vType="pkw" speedFactor="0.99" vaporized=""/>
    <tripinfo id="108236_400_0" depart="25314.00" departLane="23429231#1_0" departPos="4.40" departSpeed="0.00" departDelay="40.00" arrival="25425.00" arrivalLane="32038051#0_1" arrivalPos="89.25" arrivalSpeed="15.01" duration="111.00" routeLength="203.79" waitingTime="53.00" waitingCount="4" stopTime="0.00" timeLoss="97.91" rerouteNo="0" devices="tripinfo_108236_400_0 routing_108236_400_0" vType="pkw" speedFactor="0.83" vaporized=""/>
    <tripinfo id="146536_416_0" depart="25316.00" departLane="23429231#1_0" departPos="4.40" departSpeed="0.00" departDelay="41.00" arrival="25426.00" arrivalLane="32038051#0_0" arrivalPos="89.25" arrivalSpeed="18.30" duration="110.00" routeLength="203.79" waitingTime="56.00" waitingCount="4" stopTime="0.00" timeLoss="99.71" rerouteNo="0" devices="tripinfo_146536_416_0 routing_146536_416_0" vType="pkw" speedFactor="1.04" vaporized=""/>
    <tripinfo id="110905_401_0" depart="25318.00" departLane="23429231#1_0" departPos="4.40" departSpeed="0.00" departDelay="42.00" arrival="25426.00" arrivalLane="32038051#0_1" arrivalPos="89.25" arrivalSpeed="17.74" duration="108.00" routeLength="203.79" waitingTime="52.00" waitingCount="4" stopTime="0.00" timeLoss="97.37" rerouteNo="0" devices="tripinfo_110905_401_0 routing_110905_401_0" vType="pkw" speedFactor="1.00" vaporized=""/>
    <tripinfo id="118931_405_0" depart="25319.00" departLane="23429231#1_0" departPos="4.40" departSpeed="0.00" departDelay="42.00" arrival="25428.00" arrivalLane="32038051#0_0" arrivalPos="89.25" arrivalSpeed="15.74" duration="109.00" routeLength="203.79" waitingTime="55.00" waitingCount="4" stopTime="0.00" timeLoss="96.38" rerouteNo="0" devices="tripinfo_118931_405_0 routing_118931_405_0" vType="pkw" speedFactor="0.87" vaporized=""/>
    <tripinfo id="94647_393_0" depart="25322.00" departLane="23429231#1_0" departPos="4.40" departSpeed="0.00" departDelay="44.00" arrival="25428.00" arrivalLane="32038051#0_1" arrivalPos="89.25" arrivalSpeed="18.17" duration="106.00" routeLength="203.79" waitingTime="52.00" waitingCount="4" stopTime="0.00" timeLoss="94.34" rerouteNo="0" devices="tripinfo_94647_393_0 routing_94647_393_0" vType="pkw" speedFactor="0.96" vaporized=""/>
    <tripinfo id="139731_413_0" depart="25327.00" departLane="23429231#1_0" departPos="4.40" departSpeed="0.00" departDelay="47.00" arrival="25429.00" arrivalLane="32038051#0_1" arrivalPos="89.25" arrivalSpeed="19.05" duration="102.00" routeLength="203.79" waitingTime="49.00" waitingCount="4" stopTime="0.00" timeLoss="92.47" rerouteNo="0" devices="tripinfo_139731_413_0 routing_139731_413_0" vType="pkw" speedFactor="1.13" vaporized=""/>
    <tripinfo id="157203_421_0" depart="25325.00" departLane="23429231#1_0" departPos="4.40" departSpeed="0.00" departDelay="45.00" arrival="25430.00" arrivalLane="32038051#0_0" arrivalPos="89.25" arrivalSpeed="19.38" duration="105.00" routeLength="203.79" waitingTime="51.00" waitingCount="4" stopTime="0.00" timeLoss="94.97" rerouteNo="0" devices="tripinfo_157203_421_0 routing_157203_421_0" vType="pkw" speedFactor="1.11" vaporized=""/>