<?xml version="1.0" encoding="UTF-8"?>

<!-- generated on 2023-08-28 21:05:50 by Eclipse SUMO libsumo Version 1.18.0
<configuration xmlns:xsi="http://www.w3.org/2001/XMLSchema-instance" xsi:noNamespaceSchemaLocation="http://sumo.dlr.de/xsd/libsumoConfiguration.xsd">

    <input>
        <net-file value="/home/stefan/RESCO/./environments/cologne1/cologne1.net.xml"/>
        <route-files value="/home/stefan/RESCO/./environments/cologne1/cologne1.rou.xml"/>
    </input>

    <output>
        <tripinfo-output value="/home/stefan/results/ITRPO-tr0-cologne1-0-drq_norm-wait_norm/tripinfo_100.xml"/>
        <tripinfo-output.write-unfinished value="true"/>
    </output>

    <time>
        <begin value="25200"/>
        <end value="28800"/>
    </time>

    <processing>
        <time-to-teleport value="-1"/>
    </processing>

    <report>
        <no-warnings value="True"/>
        <no-step-log value="True"/>
    </report>

    <random_number>
        <random value="true"/>
    </random_number>

</configuration>
-->

<tripinfos xmlns:xsi="http://www.w3.org/2001/XMLSchema-instance" xsi:noNamespaceSchemaLocation="http://sumo.dlr.de/xsd/tripinfo_file.xsd">
    <tripinfo id="151372_418_0" depart="25207.00" departLane="130165204_0" departPos="4.40" departSpeed="0.00" departDelay="0.00" arrival="25242.00" arrivalLane="32038051#0_1" arrivalPos="89.25" arrivalSpeed="18.64" duration="35.00" routeLength="410.03" waitingTime="0.00" waitingCount="0" stopTime="0.00" timeLoss="8.13" rerouteNo="1" devices="tripinfo_151372_418_0 routing_151372_418_0" vType="pkw" speedFactor="0.99" vaporized=""/>
    <tripinfo id="124779_406_0" depart="25205.00" departLane="28198821#3_0" departPos="4.40" departSpeed="0.00" departDelay="0.00" arrival="25253.00" arrivalLane="32038051#0_1" arrivalPos="89.25" arrivalSpeed="16.63" duration="48.00" routeLength="170.57" waitingTime="29.00" waitingCount="1" stopTime="0.00" timeLoss="36.70" rerouteNo="0" devices="tripinfo_124779_406_0 routing_124779_406_0" vType="pkw" speedFactor="0.90" vaporized=""/>
    <tripinfo id="123965_406_0" depart="25218.00" departLane="-32038056#3_0" departPos="4.40" departSpeed="0.00" departDelay="0.00" arrival="25257.00" arrivalLane="-28198821#4_0" arrivalPos="57.10" arrivalSpeed="12.24" duration="39.00" routeLength="437.47" waitingTime="0.00" waitingCount="0" stopTime="0.00" timeLoss="4.33" rerouteNo="0" devices="tripinfo_123965_406_0 routing_123965_406_0" vType="pkw" speedFactor="0.92" vaporized=""/>
    <tripinfo id="91582_392_0" depart="25220.00" departLane="-32038056#3_0" departPos="4.40" departSpeed="0.00" departDelay="2.00" arrival="25257.00" arrivalLane="32324544#0_1" arrivalPos="90.48" arrivalSpeed="20.02" duration="37.00" routeLength="465.51" waitingTime="0.00" waitingCount="0" stopTime="0.00" timeLoss="6.64" rerouteNo="0" devices="tripinfo_91582_392_0 routing_91582_392_0" vType="pkw" speedFactor="1.06" vaporized=""/>
    <tripinfo id="98305_395_0" depart="25211.00" departLane="28198821#3_0" departPos="4.40" departSpeed="0.00" departDelay="0.00" arrival="25262.00" arrivalLane="32038051#0_1" arrivalPos="89.25" arrivalSpeed="14.83" duration="51.00" routeLength="170.57" waitingTime="25.00" waitingCount="2" stopTime="0.00" timeLoss="38.11" rerouteNo="0" devices="tripinfo_98305_395_0 routing_98305_395_0" vType="pkw" speedFactor="0.80" vaporized=""/>
    <tripinfo id="121258_405_0" depart="25240.00" departLane="23429231#1_0" departPos="4.40" departSpeed="0.00" departDelay="0.00" arrival="25263.00" arrivalLane="32038051#0_0" arrivalPos="89.25" arrivalSpeed="17.24" duration="23.00" routeLength="203.79" waitingTime="1.00" waitingCount="1" stopTime="0.00" timeLoss="13.37" rerouteNo="0" devices="tripinfo_121258_405_0 routing_121258_405_0" vType="pkw" speedFactor="1.14" vaporized=""/>
    <tripinfo id="102535_396_0" depart="25218.00" departLane="28198821#3_0" departPos="4.40" departSpeed="0.00" departDelay="0.00" arrival="25264.00" arrivalLane="32038051#0_1" arrivalPos="89.25" arrivalSpeed="20.08" duration="46.00" routeLength="170.57" waitingTime="18.00" waitingCount="2" stopTime="0.00" timeLoss="36.18" rerouteNo="0" devices="tripinfo_102535_396_0 routing_102535_396_0" vType="pkw" speedFactor="1.12" vaporized=""/>
    <tripinfo id="102501_396_0" depart="25245.00" departLane="23429231#1_0" departPos="4.40" departSpeed="0.00" departDelay="1.00" arrival="25264.00" arrivalLane="32038051#0_0" arrivalPos="89.25" arrivalSpeed="17.07" duration="19.00" routeLength="203.79" waitingTime="0.00" waitingCount="0" stopTime="0.00" timeLoss="7.62" rerouteNo="0" devices="tripinfo_102501_396_0 routing_102501_396_0" vType="pkw" speedFactor="0.92" vaporized=""/>
    <tripinfo id="126742_407_0" depart="25242.00" departLane="23429231#1_0" departPos="4.40" departSpeed="0.00" departDelay="2.00" arrival="25266.00" arrivalLane="32038051#0_1" arrivalPos="89.25" arrivalSpeed="18.71" duration="24.00" routeLength="203.79" waitingTime="0.00" waitingCount="0" stopTime="0.00" timeLoss="12.98" rerouteNo="0" devices="tripinfo_126742_407_0 routing_126742_407_0" vType="pkw" speedFactor="0.98" vaporized=""/>
    <tripinfo id="120663_405_0" depart="25248.00" departLane="23429231#1_0" departPos="4.40" departSpeed="0.00" departDelay="2.00" arrival="25266.00" arrivalLane="32038051#0_0" arrivalPos="89.25" arrivalSpeed="19.08" duration="18.00" routeLength="203.79" waitingTime="0.00" waitingCount="0" stopTime="0.00" timeLoss="6.95" rerouteNo="0" devices="tripinfo_120663_405_0 routing_120663_405_0" vType="pkw" speedFactor="1.01" vaporized=""/>
    <tripinfo id="149029_417_0" depart="25236.00" departLane="27115123#2_0" departPos="4.40" departSpeed="0.00" departDelay="0.00" arrival="25269.00" arrivalLane="32038051#0_1" arrivalPos="89.25" arrivalSpeed="19.16" duration="33.00" routeLength="196.41" waitingTime="5.00" waitingCount="1" stopTime="0.00" timeLoss="24.55" rerouteNo="1" devices="tripinfo_149029_417_0 routing_149029_417_0" vType="pkw" speedFactor="1.26" vaporized=""/>
    <tripinfo id="113509_402_0" depart="25251.00" departLane="23429231#1_0" departPos="4.40" departSpeed="0.00" departDelay="3.00" arrival="25269.00" arrivalLane="-28198821#4_1" arrivalPos="57.10" arrivalSpeed="14.49" duration="18.00" routeLength="179.90" waitingTime="0.00" waitingCount="0" stopTime="0.00" timeLoss="8.05" rerouteNo="0" devices="tripinfo_113509_402_0 routing_113509_402_0" vType="pkw" speedFactor="1.10" vaporized=""/>
    <tripinfo id="130147_409_0" depart="25254.00" departLane="23429231#1_0" departPos="4.40" departSpeed="0.00" departDelay="3.00" arrival="25270.00" arrivalLane="32038051#0_0" arrivalPos="89.25" arrivalSpeed="18.03" duration="16.00" routeLength="203.79" waitingTime="0.00" waitingCount="0" stopTime="0.00" timeLoss="5.16" rerouteNo="0" devices="tripinfo_130147_409_0 routing_130147_409_0" vType="pkw" speedFactor="0.98" vaporized=""/>
    <tripinfo id="102630_396_0" depart="25257.00" departLane="23429231#1_0" departPos="4.40" departSpeed="0.00" departDelay="5.00" arrival="25273.00" arrivalLane="32038051#0_0" arrivalPos="89.25" arrivalSpeed="17.44" duration="16.00" routeLength="203.79" waitingTime="0.00" waitingCount="0" stopTime="0.00" timeLoss="4.38" rerouteNo="0" devices="tripinfo_102630_396_0 routing_102630_396_0" vType="pkw" speedFactor="0.92" vaporized=""/>
    <tripinfo id="122376_406_0" depart="25260.00" departLane="23429231#1_0" departPos="4.40" departSpeed="0.00" departDelay="6.00" arrival="25275.00" arrivalLane="32038051#0_0" arrivalPos="89.25" arrivalSpeed="19.18" duration="15.00" routeLength="203.79" waitingTime="0.00" waitingCount="0" stopTime="0.00" timeLoss="4.83" rerouteNo="0" devices="tripinfo_122376_406_0 routing_122376_406_0" vType="pkw" speedFactor="1.03" vaporized=""/>
    <tripinfo id="160150_421_0" depart="25223.00" departLane="-32038056#3_0" departPos="4.40" departSpeed="0.00" departDelay="4.00" arrival="25283.00" arrivalLane="32038051#0_0" arrivalPos="89.25" arrivalSpeed="17.01" duration="60.00" routeLength="446.95" waitingTime="13.00" waitingCount="1" stopTime="0.00" timeLoss="25.48" rerouteNo="0" devices="tripinfo_160150_421_0 routing_160150_421_0" vType="pkw" speedFactor="0.90" vaporized=""/>
    <tripinfo id="147209_416_0" depart="25220.00" departLane="28198821#3_0" departPos="4.40" departSpeed="0.00" departDelay="0.00" arrival="25283.00" arrivalLane="32038051#0_1" arrivalPos="89.25" arrivalSpeed="16.10" duration="63.00" routeLength="170.57" waitingTime="33.00" waitingCount="3" stopTime="0.00" timeLoss="51.71" rerouteNo="0" devices="tripinfo_147209_416_0 routing_147209_416_0" vType="pkw" speedFactor="0.89" vaporized=""/>
    <tripinfo id="162814_422_0" depart="25233.00" departLane="-32038056#3_0" departPos="4.40" departSpeed="0.00" departDelay="0.00" arrival="25284.00" arrivalLane="32038051#0_0" arrivalPos="89.25" arrivalSpeed="18.68" duration="51.00" routeLength="446.95" waitingTime="9.00" waitingCount="1" stopTime="0.00" timeLoss="21.05" rerouteNo="0" devices="tripinfo_162814_422_0 routing_162814_422_0" vType="pkw" speedFactor="1.02" vaporized=""/>
    <tripinfo id="122194_406_0" depart="25263.00" departLane="23429231#1_0" departPos="4.40" departSpeed="0.00" departDelay="8.00" arrival="25313.00" arrivalLane="32038051#0_0" arrivalPos="89.25" arrivalSpeed="17.81" duration="50.00" routeLength="203.79" waitingTime="25.00" waitingCount="1" stopTime="0.00" timeLoss="39.06" rerouteNo="0" devices="tripinfo_122194_406_0 routing_122194_406_0" vType="pkw" speedFactor="0.99" vaporized=""/>
    <tripinfo id="135103_411_0" depart="25265.00" departLane="23429231#1_0" departPos="4.40" departSpeed="0.00" departDelay="9.00" arrival="25313.00" arrivalLane="32038051#0_1" arrivalPos="89.25" arrivalSpeed="16.52" duration="48.00" routeLength="203.79" waitingTime="23.00" waitingCount="1" stopTime="0.00" timeLoss="35.63" rerouteNo="0" devices="tripinfo_135103_411_0 routing_135103_411_0" vType="pkw" speedFactor="0.88" vaporized=""/>
    <tripinfo id="148629_417_0" depart="25284.00" departLane="27115123#2_0" departPos="4.40" departSpeed="0.00" departDelay="0.00" arrival="25313.00" arrivalLane="32324544#0_0" arrivalPos="90.48" arrivalSpeed="20.94" duration="29.00" routeLength="198.06" waitingTime="6.00" waitingCount="1" stopTime="0.00" timeLoss="19.96" rerouteNo="1" devices="tripinfo_148629_417_0 routing_148629_417_0" vType="pkw" speedFactor="1.18" vaporized=""/>
    <tripinfo id="152958_419_0" depart="25268.00" departLane="23429231#1_0" departPos="4.40" departSpeed="0.00" departDelay="11.00" arrival="25315.00" arrivalLane="32038051#0_0" arrivalPos="89.25" arrivalSpeed="15.26" duration="47.00" routeLength="203.79" waitingTime="22.00" waitingCount="1" stopTime="0.00" timeLoss="34.39" rerouteNo="0" devices="tripinfo_152958_419_0 routing_152958_419_0" vType="pkw" speedFactor="0.84" vaporized=""/>
    <tripinfo id="125613_406_0" depart="25271.00" departLane="23429231#1_0" departPos="4.40" departSpeed="0.00" departDelay="13.00" arrival="25315.00" arrivalLane="32038051#0_1" arrivalPos="89.25" arrivalSpeed="21.01" duration="44.00" routeLength="203.79" waitingTime="21.00" waitingCount="1" stopTime="0.00" timeLoss="34.44" rerouteNo="0" devices="tripinfo_125613_406_0 routing_125613_406_0" vType="pkw" speedFactor="1.19" vaporized=""/>
    <tripinfo id="133955_411_0" depart="25273.00" departLane="23429231#1_0" departPos="4.40" departSpeed="0.00" departDelay="14.00" arrival="25317.00" arrivalLane="32038051#0_0" arrivalPos="89.25" arrivalSpeed="18.14" duration="44.00" routeLength="203.79" waitingTime="19.00" waitingCount="1" stopTime="0.00" timeLoss="32.41" rerouteNo="0" devices="tripinfo_133955_411_0 routing_133955_411_0" vType="pkw" speedFactor="0.96" vaporized=""/>
    <tripinfo id="129253_408_0" depart="25277.00" departLane="23429231#1_0" departPos="4.40" departSpeed="0.00" departDelay="17.00" arrival="25317.00" arrivalLane="32038051#0_1" arrivalPos="89.25" arrivalSpeed="18.82" duration="40.00" routeLength="203.79" waitingTime="16.00" waitingCount="1" stopTime="0.00" timeLoss="29.06" rerouteNo="0" devices="tripinfo_129253_408_0 routing_129253_408_0" vType="pkw" speedFactor="1.03" vaporized=""/>
    <tripinfo id="130602_409_0" depart="25268.00" departLane="-32038056#3_0" departPos="4.40" departSpeed="0.00" departDelay="0.00" arrival="25323.00" arrivalLane="-28198821#4_0" arrivalPos="57.10" arrivalSpeed="11.74" duration="55.00" routeLength="437.47" waitingTime="10.00" waitingCount="1" stopTime="0.00" timeLoss="18.04" rerouteNo="0" devices="tripinfo_130602_409_0 routing_130602_409_0" vType="pkw" speedFactor="0.86" vaporized=""/>
    <tripinfo id="128446_408_0" depart="25273.00" departLane="-32038056#3_0" departPos="4.40" departSpeed="0.00" departDelay="0.00" arrival="25324.00" arrivalLane="32324544#0_1" arrivalPos="90.48" arrivalSpeed="20.59" duration="51.00" routeLength="465.51" waitingTime="9.00" waitingCount="1" stopTime="0.00" timeLoss="21.39" rerouteNo="0" devices="tripinfo_128446_408_0 routing_128446_408_0" vType="pkw" speedFactor="1.08" vaporized=""/>
    <tripinfo id="136082_411_0" depart="25278.00" departLane="-32038056#3_0" departPos="4.40" departSpeed="0.00" departDelay="1.00" arrival="25324.00" arrivalLane="32038051#0_0" arrivalPos="89.25" arrivalSpeed="18.98" duration="46.00" routeLength="446.95" waitingTime="5.00" waitingCount="2" stopTime="0.00" timeLoss="15.87" rerouteNo="0" devices="tripinfo_136082_411_0 routing_136082_411_0" vType="pkw" speedFactor="1.01" vaporized=""/>
    <tripinfo id="83516_390_0" depart="25276.00" departLane="-32038056#3_0" departPos="4.40" departSpeed="0.00" departDelay="1.00" arrival="25326.00" arrivalLane="32324544#0_1" arrivalPos="90.48" arrivalSpeed="21.83" duration="50.00" routeLength="465.51" waitingTime="8.00" waitingCount="1" stopTime="0.00" timeLoss="21.63" rerouteNo="0" devices="tripinfo_83516_390_0 routing_83516_390_0" vType="pkw" speedFactor="1.14" vaporized=""/>
    <tripinfo id="85818_390_0" depart="25281.00" departLane="-32038056#3_0" departPos="4.40" departSpeed="0.00" departDelay="1.00" arrival="25326.00" arrivalLane="32038051#0_0" arrivalPos="89.25" arrivalSpeed="20.77" duration="45.00" routeLength="446.95" waitingTime="3.00" waitingCount="1" stopTime="0.00" timeLoss="16.81" rerouteNo="0" devices="tripinfo_85818_390_0 routing_85818_390_0" vType="pkw" speedFactor="1.10" vaporized=""/>
    <tripinfo id="113303_402_0" depart="25284.00" departLane="-32038056#3_0" departPos="4.40" departSpeed="0.00" departDelay="1.00" arrival="25327.00" arrivalLane="32324544#0_1" arrivalPos="90.48" arrivalSpeed="18.05" duration="43.00" routeLength="465.51" waitingTime="0.00" waitingCount="0" stopTime="0.00" timeLoss="10.22" rerouteNo="0" devices="tripinfo_113303_402_0 routing_113303_402_0" vType="pkw" speedFactor="0.96" vaporized=""/>
    <tripinfo id="115444_403_0" depart="25294.00" departLane="28198821#3_0" departPos="4.40" departSpeed="0.00" departDelay="0.00" arrival="25328.00" arrivalLane="32038051#0_1" arrivalPos="89.25" arrivalSpeed="18.89" duration="34.00" routeLength="170.57" waitingTime="9.00" waitingCount="1" stopTime="0.00" timeLoss="23.41" rerouteNo="0" devices="tripinfo_115444_403_0 routing_115444_403_0" vType="pkw" speedFactor="1.04" vaporized=""/>
    <tripinfo id="103540_397_0" depart="25300.00" departLane="28198821#3_0" departPos="4.40" departSpeed="0.00" departDelay="0.00" arrival="25329.00" arrivalLane="32038051#0_1" arrivalPos="89.25" arrivalSpeed="16.52" duration="29.00" routeLength="170.57" waitingTime="4.00" waitingCount="1" stopTime="0.00" timeLoss="17.66" rerouteNo="0" devices="tripinfo_103540_397_0 routing_103540_397_0" vType="pkw" speedFactor="0.89" vaporized=""/>
    <tripinfo id="120275_405_0" depart="25279.00" departLane="23429231#1_0" departPos="4.40" departSpeed="0.00" departDelay="18.00" arrival="25333.00" arrivalLane="32038051#0_0" arrivalPos="89.25" arrivalSpeed="19.46" duration="54.00" routeLength="203.79" waitingTime="22.00" waitingCount="2" stopTime="0.00" timeLoss="43.33" rerouteNo="0" devices="tripinfo_120275_405_0 routing_120275_405_0" vType="pkw" speedFactor="1.01" vaporized=""/>
    <tripinfo id="134807_411_0" depart="25282.00" departLane="23429231#1_0" departPos="4.40" departSpeed="0.00" departDelay="20.00" arrival="25334.00" arrivalLane="32324544#0_1" arrivalPos="90.48" arrivalSpeed="16.61" duration="52.00" routeLength="203.50" waitingTime="21.00" waitingCount="2" stopTime="0.00" timeLoss="39.80" rerouteNo="0" devices="tripinfo_134807_411_0 routing_134807_411_0" vType="pkw" speedFactor="0.89" vaporized=""/>
    <tripinfo id="135201_411_0" depart="25285.00" departLane="23429231#1_0" departPos="4.40" departSpeed="0.00" departDelay="21.00" arrival="25335.00" arrivalLane="32038051#0_0" arrivalPos="89.25" arrivalSpeed="18.18" duration="50.00" routeLength="203.79" waitingTime="19.00" waitingCount="2" stopTime="0.00" timeLoss="39.32" rerouteNo="0" devices="tripinfo_135201_411_0 routing_135201_411_0" vType="pkw" speedFactor="1.04" vaporized=""/>
    <tripinfo id="86189_391_0" depart="25287.00" departLane="23429231#1_0" departPos="4.40" departSpeed="0.00" departDelay="22.00" arrival="25335.00" arrivalLane="32038051#0_1" arrivalPos="89.25" arrivalSpeed="14.96" duration="48.00" routeLength="203.79" waitingTime="14.00" waitingCount="2" stopTime="0.00" timeLoss="34.56" rerouteNo="0" devices="tripinfo_86189_391_0 routing_86189_391_0" vType="pkw" speedFactor="0.83" vaporized=""/>
    <tripinfo id="129519_408_0" depart="25293.00" departLane="23429231#1_0" departPos="4.40" departSpeed="0.00" departDelay="26.00" arrival="25336.00" arrivalLane="32038051#0_1" arrivalPos="89.25" arrivalSpeed="16.33" duration="43.00" routeLength="203.79" waitingTime="10.00" waitingCount="2" stopTime="0.00" timeLoss="30.54" rerouteNo="0" devices="tripinfo_129519_408_0 routing_129519_408_0" vType="pkw" speedFactor="0.87" vaporized=""/>
    <tripinfo id="57065_374_0" depart="25290.00" departLane="23429231#1_0" departPos="4.40" departSpeed="0.00" departDelay="24.00" arrival="25337.00" arrivalLane="32038051#0_0" arrivalPos="89.25" arrivalSpeed="18.48" duration="47.00" routeLength="203.79" waitingTime="14.00" waitingCount="2" stopTime="0.00" timeLoss="35.89" rerouteNo="0" devices="tripinfo_57065_374_0 routing_57065_374_0" vType="pkw" speedFactor="1.00" vaporized=""/>
    <tripinfo id="86583_391_0" depart="25289.00" departLane="-32038056#3_0" departPos="4.40" departSpeed="0.00" departDelay="0.00" arrival="25342.00" arrivalLane="32038051#0_0" arrivalPos="89.25" arrivalSpeed="17.89" duration="53.00" routeLength="446.95" waitingTime="10.00" waitingCount="1" stopTime="0.00" timeLoss="22.15" rerouteNo="0" devices="tripinfo_86583_391_0 routing_86583_391_0" vType="pkw" speedFactor="0.98" vaporized=""/>
    <tripinfo id="137244_412_0" depart="25297.00" departLane="-32038056#3_0" departPos="4.40" departSpeed="0.00" departDelay="3.00" arrival="25342.00" arrivalLane="-28198821#4_1" arrivalPos="57.10" arrivalSpeed="10.48" duration="45.00" routeLength="437.47" waitingTime="0.00" waitingCount="0" stopTime="0.00" timeLoss="5.86" rerouteNo="0" devices="tripinfo_137244_412_0 routing_137244_412_0" vType="pkw" speedFactor="0.82" vaporized=""/>
    <tripinfo id="142412_415_0" depart="25307.00" departLane="-32038056#3_0" departPos="4.40" departSpeed="0.00" departDelay="0.00" arrival="25343.00" arrivalLane="-28198821#4_1" arrivalPos="57.10" arrivalSpeed="13.25" duration="36.00" routeLength="437.47" waitingTime="0.00" waitingCount="0" stopTime="0.00" timeLoss="5.76" rerouteNo="0" devices="tripinfo_142412_415_0 routing_142412_415_0" vType="pkw" speedFactor="1.04" vaporized=""/>
    <tripinfo id="120878_405_0" depart="25291.00" departLane="-32038056#3_0" departPos="4.40" departSpeed="0.00" departDelay="0.00" arrival="25344.00" arrivalLane="32038051#0_0" arrivalPos="89.25" arrivalSpeed="19.04" duration="53.00" routeLength="446.95" waitingTime="8.00" waitingCount="1" stopTime="0.00" timeLoss="22.86" rerouteNo="0" devices="tripinfo_120878_405_0 routing_120878_405_0" vType="pkw" speedFactor="1.02" vaporized=""/>
    <tripinfo id="85922_391_0" depart="25294.00" departLane="-32038056#3_0" departPos="4.40" departSpeed="0.00" departDelay="1.00" arrival="25346.00" arrivalLane="32038051#0_0" arrivalPos="89.25" arrivalSpeed="18.69" duration="52.00" routeLength="446.95" waitingTime="8.00" waitingCount="1" stopTime="0.00" timeLoss="21.18" rerouteNo="0" devices="tripinfo_85922_391_0 routing_85922_391_0" vType="pkw" speedFactor="1.01" vaporized=""/>
    <tripinfo id="118963_405_0" depart="25304.00" departLane="-32038056#3_0" departPos="4.40" departSpeed="0.00" departDelay="0.00" arrival="25347.00" arrivalLane="32038051#0_0" arrivalPos="89.25" arrivalSpeed="19.39" duration="43.00" routeLength="446.95" waitingTime="2.00" waitingCount="1" stopTime="0.00" timeLoss="13.43" rerouteNo="0" devices="tripinfo_118963_405_0 routing_118963_405_0" vType="pkw" speedFactor="1.03" vaporized=""/>
    <tripinfo id="138220_412_0" depart="25309.00" departLane="-32038056#3_0" departPos="4.40" departSpeed="0.00" departDelay="0.00" arrival="25348.00" arrivalLane="-28198821#4_1" arrivalPos="57.10" arrivalSpeed="12.97" duration="39.00" routeLength="437.47" waitingTime="0.00" waitingCount="0" stopTime="0.00" timeLoss="5.21" rerouteNo="0" devices="tripinfo_138220_412_0 routing_138220_412_0" vType="pkw" speedFactor="0.93" vaporized=""/>
    <tripinfo id="136152_411_0" depart="25313.00" departLane="-32038056#3_0" departPos="4.40" departSpeed="0.00" departDelay="0.00" arrival="25349.00" arrivalLane="32038051#0_0" arrivalPos="89.25" arrivalSpeed="17.81" duration="36.00" routeLength="446.95" waitingTime="0.00" waitingCount="0" stopTime="0.00" timeLoss="4.56" rerouteNo="0" devices="tripinfo_136152_411_0 routing_136152_411_0" vType="pkw" speedFactor="0.97" vaporized=""/>
    <tripinfo id="167799_425_0" depart="25327.00" departLane="-32038056#3_0" departPos="4.40" departSpeed="0.00" departDelay="0.00" arrival="25362.00" arrivalLane="-28198821#4_0" arrivalPos="57.10" arrivalSpeed="13.62" duration="35.00" routeLength="437.47" waitingTime="0.00" waitingCount="0" stopTime="0.00" timeLoss="4.11" rerouteNo="0" devices="tripinfo_167799_425_0 routing_167799_425_0" vType="pkw" speedFactor="1.04" vaporized=""/>
    <tripinfo id="130372_409_0" depart="25330.00" departLane="-32038056#3_0" departPos="4.40" departSpeed="0.00" departDelay="3.00" arrival="25367.00" arrivalLane="32324544#0_1" arrivalPos="90.48" arrivalSpeed="18.99" duration="37.00" routeLength="465.51" waitingTime="0.00" waitingCount="0" stopTime="0.00" timeLoss="5.98" rerouteNo="0" devices="tripinfo_130372_409_0 routing_130372_409_0" vType="pkw" speedFactor="1.03" vaporized=""/>
    <tripinfo id="162096_421_0" depart="25306.00" departLane="130165204_0" departPos="4.40" departSpeed="0.00" departDelay="0.00" arrival="25373.00" arrivalLane="32038051#0_1" arrivalPos="89.25" arrivalSpeed="16.92" duration="67.00" routeLength="410.03" waitingTime="27.00" waitingCount="1" stopTime="0.00" timeLoss="37.92" rerouteNo="1" devices="tripinfo_162096_421_0 routing_162096_421_0" vType="pkw" speedFactor="0.92" vaporized=""/>
    <tripinfo id="175147_428_0" depart="25324.00" departLane="130165204_0" departPos="4.40" departSpeed="0.00" departDelay="0.00" arrival="25375.00" arrivalLane="32038051#0_1" arrivalPos="89.25" arrivalSpeed="17.02" duration="51.00" routeLength="410.03" waitingTime="8.00" waitingCount="1" stopTime="0.00" timeLoss="21.11" rerouteNo="1" devices="tripinfo_175147_428_0 routing_175147_428_0" vType="pkw" speedFactor="0.90" vaporized=""/>
    <tripinfo id="122154_406_0" depart="25337.00" departLane="-32038056#3_0" departPos="4.40" departSpeed="0.00" departDelay="0.00" arrival="25377.00" arrivalLane="-28198821#4_0" arrivalPos="57.10" arrivalSpeed="11.29" duration="40.00" routeLength="437.47" waitingTime="0.00" waitingCount="0" stopTime="0.00" timeLoss="4.35" rerouteNo="0" devices="tripinfo_122154_406_0 routing_122154_406_0" vType="pkw" speedFactor="0.90" vaporized=""/>
    <tripinfo id="161721_421_0" depart="25337.00" departLane="130165204_0" departPos="4.40" departSpeed="0.00" departDelay="0.00" arrival="25377.00" arrivalLane="32038051#0_1" arrivalPos="89.25" arrivalSpeed="20.26" duration="40.00" routeLength="410.03" waitingTime="0.00" waitingCount="0" stopTime="0.00" timeLoss="18.43" rerouteNo="1" devices="tripinfo_161721_421_0 routing_161721_421_0" vType="pkw" speedFactor="1.23" vaporized=""/>
    <tripinfo id="104806_398_0" depart="25332.00" departLane="-32038056#3_0" departPos="4.40" departSpeed="0.00" departDelay="3.00" arrival="25379.00" arrivalLane="32324544#0_1" arrivalPos="90.48" arrivalSpeed="18.29" duration="47.00" routeLength="465.51" waitingTime="3.00" waitingCount="1" stopTime="0.00" timeLoss="14.16" rerouteNo="0" devices="tripinfo_104806_398_0 routing_104806_398_0" vType="pkw" speedFactor="0.96" vaporized=""/>
    <tripinfo id="82015_389_0" depart="25296.00" departLane="23429231#1_0" departPos="4.40" departSpeed="0.00" departDelay="28.00" arrival="25383.00" arrivalLane="32038051#0_0" arrivalPos="89.25" arrivalSpeed="20.56" duration="87.00" routeLength="203.79" waitingTime="49.00" waitingCount="3" stopTime="0.00" timeLoss="76.35" rerouteNo="0" devices="tripinfo_82015_389_0 routing_82015_389_0" vType="pkw" speedFactor="1.06" vaporized=""/>
    <tripinfo id="136204_411_0" depart="25299.00" departLane="23429231#1_0" departPos="4.40" departSpeed="0.00" departDelay="30.00" arrival="25383.00" arrivalLane="32038051#0_1" arrivalPos="89.25" arrivalSpeed="19.92" duration="84.00" routeLength="203.79" waitingTime="49.00" waitingCount="2" stopTime="0.00" timeLoss="74.72" rerouteNo="0" devices="tripinfo_136204_411_0 routing_136204_411_0" vType="pkw" speedFactor="1.18" vaporized=""/>
    <tripinfo id="135431_411_0" depart="25301.00" departLane="23429231#1_0" departPos="4.40" departSpeed="0.00" departDelay="32.00" arrival="25385.00" arrivalLane="32038051#0_0" arrivalPos="89.25" arrivalSpeed="18.85" duration="84.00" routeLength="203.79" waitingTime="46.00" waitingCount="3" stopTime="0.00" timeLoss="72.52" rerouteNo="0" devices="tripinfo_135431_411_0 routing_135431_411_0" vType="pkw" speedFactor="0.98" vaporized=""/>
    <tripinfo id="146814_416_0" depart="25304.00" departLane="23429231#1_0" departPos="4.40" departSpeed="0.00" departDelay="33.00" arrival="25385.00" arrivalLane="32038051#0_1" arrivalPos="89.25" arrivalSpeed="15.16" duration="81.00" routeLength="203.79" waitingTime="47.00" waitingCount="2" stopTime="0.00" timeLoss="68.02" rerouteNo="0" devices="tripinfo_146814_416_0 routing_146814_416_0" vType="pkw" speedFactor="0.84" vaporized=""/>
    <tripinfo id="118286_405_0" depart="25309.00" departLane="23429231#1_0" departPos="4.40" departSpeed="0.00" departDelay="36.00" arrival="25386.00" arrivalLane="32038051#0_1" arrivalPos="89.25" arrivalSpeed="17.66" duration="77.00" routeLength="203.79" waitingTime="44.00" waitingCount="2" stopTime="0.00" timeLoss="66.06" rerouteNo="0" devices="tripinfo_118286_405_0 routing_118286_405_0" vType="pkw" speedFactor="0.96" vaporized=""/>
    <tripinfo id="125316_406_0" depart="25306.00" departLane="23429231#1_0" departPos="4.40" departSpeed="0.00" departDelay="35.00" arrival="25387.00" arrivalLane="32038051#0_0" arrivalPos="89.25" arrivalSpeed="16.84" duration="81.00" routeLength="203.79" waitingTime="46.00" waitingCount="3" stopTime="0.00" timeLoss="68.86" rerouteNo="0" devices="tripinfo_125316_406_0 routing_125316_406_0" vType="pkw" speedFactor="0.92" vaporized=""/>
    <tripinfo id="121091_405_0" depart="25345.00" departLane="-32038056#3_0" departPos="4.40" departSpeed="0.00" departDelay="0.00" arrival="25392.00" arrivalLane="32038051#0_0" arrivalPos="89.25" arrivalSpeed="18.27" duration="47.00" routeLength="446.95" waitingTime="4.00" waitingCount="1" stopTime="0.00" timeLoss="15.81" rerouteNo="0" devices="tripinfo_121091_405_0 routing_121091_405_0" vType="pkw" speedFactor="0.98" vaporized=""/>
    <tripinfo id="135138_411_0" depart="25350.00" departLane="-32038056#3_0" departPos="4.40" departSpeed="0.00" departDelay="1.00" arrival="25393.00" arrivalLane="-28198821#4_1" arrivalPos="57.10" arrivalSpeed="12.47" duration="43.00" routeLength="437.47" waitingTime="0.00" waitingCount="0" stopTime="0.00" timeLoss="9.50" rerouteNo="0" devices="tripinfo_135138_411_0 routing_135138_411_0" vType="pkw" speedFactor="0.97" vaporized=""/>
    <tripinfo id="169772_426_0" depart="25347.00" departLane="-32038056#3_0" departPos="4.40" departSpeed="0.00" departDelay="0.00" arrival="25394.00" arrivalLane="32038051#0_0" arrivalPos="89.25" arrivalSpeed="19.44" duration="47.00" routeLength="446.95" waitingTime="4.00" waitingCount="1" stopTime="0.00" timeLoss="20.92" rerouteNo="0" devices="tripinfo_169772_426_0 routing_169772_426_0" vType="pkw" speedFactor="1.17" vaporized=""/>
    <tripinfo id="150753_418_0" depart="25352.00" departLane="-32038056#3_0" departPos="4.40" departSpeed="0.00" departDelay="1.00" arrival="25396.00" arrivalLane="32324544#0_1" arrivalPos="90.48" arrivalSpeed="18.20" duration="44.00" routeLength="465.51" waitingTime="0.00" waitingCount="0" stopTime="0.00" timeLoss="11.25" rerouteNo="0" devices="tripinfo_150753_418_0 routing_150753_418_0" vType="pkw" speedFactor="0.96" vaporized=""/>
    <tripinfo id="114183_402_0" depart="25359.00" departLane="-32038056#3_0" departPos="4.40" departSpeed="0.00" departDelay="0.00" arrival="25396.00" arrivalLane="32038051#0_0" arrivalPos="89.25" arrivalSpeed="20.91" duration="37.00" routeLength="446.95" waitingTime="0.00" waitingCount="0" stopTime="0.00" timeLoss="9.80" rerouteNo="0" devices="tripinfo_114183_402_0 routing_114183_402_0" vType="pkw" speedFactor="1.14" vaporized=""/>