<?xml version="1.0" encoding="UTF-8"?>

<!-- generated on 2023-08-31 12:16:38 by Eclipse SUMO libsumo Version 1.18.0
<configuration xmlns:xsi="http://www.w3.org/2001/XMLSchema-instance" xsi:noNamespaceSchemaLocation="http://sumo.dlr.de/xsd/libsumoConfiguration.xsd">

    <input>
        <net-file value="/home/stefan/RESCO/./environments/ingolstadt1/ingolstadt1.net.xml"/>
        <route-files value="/home/stefan/RESCO/./environments/ingolstadt1/ingolstadt1.rou.xml"/>
    </input>

    <output>
        <tripinfo-output value="/home/stefan/results/RAINBOW-tr0-ingolstadt1-0-drq_norm-wait_norm/tripinfo_71.xml"/>
        <tripinfo-output.write-unfinished value="true"/>
    </output>

    <time>
        <begin value="57600"/>
        <end value="61200"/>
    </time>

    <processing>
        <time-to-teleport value="-1"/>
    </processing>

    <report>
        <no-warnings value="True"/>
        <no-step-log value="True"/>
    </report>

    <random_number>
        <random value="true"/>
    </random_number>

</configuration>
-->

<tripinfos xmlns:xsi="http://www.w3.org/2001/XMLSchema-instance" xsi:noNamespaceSchemaLocation="http://sumo.dlr.de/xsd/tripinfo_file.xsd">
    <tripinfo id="carIn105842:1" depart="57601.00" departLane="653473569#5_1" departPos="5.10" departSpeed="0.00" departDelay="0.80" arrival="57629.00" arrivalLane="124812857#0_1" arrivalPos="143.49" arrivalSpeed="10.64" duration="28.00" routeLength="239.18" waitingTime="0.00" waitingCount="0" stopTime="0.00" timeLoss="5.19" rerouteNo="1" devices="tripinfo_carIn105842:1 routing_carIn105842:1" vType="default_016" speedFactor="0.82" vaporized=""/>
    <tripinfo id="carIn28488:1" depart="57611.00" departLane="653473569#5_1" departPos="5.10" departSpeed="0.00" departDelay="0.80" arrival="57635.00" arrivalLane="124812857#0_1" arrivalPos="143.49" arrivalSpeed="12.98" duration="24.00" routeLength="239.18" waitingTime="0.00" waitingCount="0" stopTime="0.00" timeLoss="5.67" rerouteNo="1" devices="tripinfo_carIn28488:1 routing_carIn28488:1" vType="default_016" speedFactor="1.00" vaporized=""/>
    <tripinfo id="carIn106322:1" depart="57614.00" departLane="653473569#5_1" departPos="5.10" departSpeed="0.00" departDelay="2.20" arrival="57640.00" arrivalLane="124812857#0_1" arrivalPos="143.49" arrivalSpeed="11.64" duration="26.00" routeLength="239.18" waitingTime="0.00" waitingCount="0" stopTime="0.00" timeLoss="5.87" rerouteNo="1" devices="tripinfo_carIn106322:1 routing_carIn106322:1" vType="default_016" speedFactor="0.89" vaporized=""/>
    <tripinfo id="carIn5482:1" depart="57617.00" departLane="653473569#5_1" departPos="5.10" departSpeed="0.00" departDelay="3.60" arrival="57642.00" arrivalLane="124812857#0_1" arrivalPos="143.49" arrivalSpeed="15.38" duration="25.00" routeLength="239.18" waitingTime="0.00" waitingCount="0" stopTime="0.00" timeLoss="8.58" rerouteNo="1" devices="tripinfo_carIn5482:1 routing_carIn5482:1" vType="default_016" speedFactor="1.15" vaporized=""/>
    <tripinfo id="carIn36103:1" depart="57620.00" departLane="653473569#5_1" departPos="5.10" departSpeed="0.00" departDelay="4.00" arrival="57645.00" arrivalLane="124812857#0_1" arrivalPos="143.49" arrivalSpeed="12.74" duration="25.00" routeLength="239.18" waitingTime="0.00" waitingCount="0" stopTime="0.00" timeLoss="7.07" rerouteNo="1" devices="tripinfo_carIn36103:1 routing_carIn36103:1" vType="default_016" speedFactor="1.00" vaporized=""/>
    <tripinfo id="carIn102997:1" depart="57623.00" departLane="653473569#5_1" departPos="5.10" departSpeed="0.00" departDelay="4.80" arrival="57647.00" arrivalLane="124812857#0_1" arrivalPos="143.49" arrivalSpeed="15.73" duration="24.00" routeLength="239.18" waitingTime="0.00" waitingCount="0" stopTime="0.00" timeLoss="8.16" rerouteNo="1" devices="tripinfo_carIn102997:1 routing_carIn102997:1" vType="default_016" speedFactor="1.16" vaporized=""/>
    <tripinfo id="carIn75554:1" depart="57626.00" departLane="653473569#5_1" departPos="5.10" departSpeed="0.00" departDelay="5.20" arrival="57652.00" arrivalLane="124812857#0_1" arrivalPos="143.49" arrivalSpeed="13.67" duration="26.00" routeLength="239.18" waitingTime="0.00" waitingCount="0" stopTime="0.00" timeLoss="8.05" rerouteNo="1" devices="tripinfo_carIn75554:1 routing_carIn75554:1" vType="default_016" speedFactor="1.01" vaporized=""/>
    <tripinfo id="randUni20090:1" depart="57629.00" departLane="653473569#5_1" departPos="5.10" departSpeed="0.00" departDelay="1.00" arrival="57656.00" arrivalLane="124812857#0_1" arrivalPos="143.49" arrivalSpeed="10.83" duration="27.00" routeLength="239.18" waitingTime="0.00" waitingCount="0" stopTime="0.00" timeLoss="6.00" rerouteNo="1" devices="tripinfo_randUni20090:1 routing_randUni20090:1" vType="random_016" speedFactor="0.87" vaporized=""/>
    <tripinfo id="carIn37268:1" depart="57636.00" departLane="653473569#5_1" departPos="5.10" departSpeed="0.00" departDelay="0.90" arrival="57660.00" arrivalLane="124812857#0_1" arrivalPos="143.49" arrivalSpeed="12.48" duration="24.00" routeLength="239.18" waitingTime="0.00" waitingCount="0" stopTime="0.00" timeLoss="5.68" rerouteNo="1" devices="tripinfo_carIn37268:1 routing_carIn37268:1" vType="default_016" speedFactor="0.98" vaporized=""/>
    <tripinfo id="carIn129760:1" depart="57661.00" departLane="653473569#5_1" departPos="5.10" departSpeed="0.00" departDelay="0.80" arrival="57685.00" arrivalLane="124812857#0_1" arrivalPos="143.49" arrivalSpeed="12.71" duration="24.00" routeLength="239.18" waitingTime="0.00" waitingCount="0" stopTime="0.00" timeLoss="5.73" rerouteNo="1" devices="tripinfo_carIn129760:1 routing_carIn129760:1" vType="default_016" speedFactor="1.00" vaporized=""/>
    <tripinfo id="carIn129626:1" depart="57664.00" departLane="653473569#5_1" departPos="5.10" departSpeed="0.00" departDelay="1.60" arrival="57689.00" arrivalLane="124812857#0_1" arrivalPos="143.49" arrivalSpeed="13.42" duration="25.00" routeLength="239.18" waitingTime="0.00" waitingCount="0" stopTime="0.00" timeLoss="5.86" rerouteNo="1" devices="tripinfo_carIn129626:1 routing_carIn129626:1" vType="default_016" speedFactor="0.97" vaporized=""/>
    <tripinfo id="h20539c1:3" depart="57667.00" departLane="653473569#5_1" departPos="5.10" departSpeed="0.00" departDelay="2.20" arrival="57694.00" arrivalLane="124812857#0_1" arrivalPos="143.49" arrivalSpeed="11.66" duration="27.00" routeLength="239.18" waitingTime="0.00" waitingCount="0" stopTime="0.00" timeLoss="5.61" rerouteNo="1" devices="tripinfo_h20539c1:3 routing_h20539c1:3" vType="default_016" speedFactor="0.87" vaporized=""/>
    <tripinfo id="carIn115534:1" depart="57624.00" departLane="201963537#1_1" departPos="5.10" departSpeed="0.00" departDelay="2.60" arrival="57707.00" arrivalLane="104012170_2" arrivalPos="109.94" arrivalSpeed="12.59" duration="83.00" routeLength="293.69" waitingTime="50.00" waitingCount="1" stopTime="0.00" timeLoss="61.21" rerouteNo="1" devices="tripinfo_carIn115534:1 routing_carIn115534:1" vType="default_015" speedFactor="1.00" vaporized=""/>
    <tripinfo id="carIn26332:1" depart="57621.00" departLane="201963537#1_1" departPos="5.10" departSpeed="0.00" departDelay="0.00" arrival="57708.00" arrivalLane="104012170_1" arrivalPos="109.94" arrivalSpeed="11.81" duration="87.00" routeLength="293.69" waitingTime="53.00" waitingCount="1" stopTime="0.00" timeLoss="63.82" rerouteNo="1" devices="tripinfo_carIn26332:1 routing_carIn26332:1" vType="default_015" speedFactor="0.94" vaporized=""/>
    <tripinfo id="h8750c1:1" depart="57609.00" departLane="104010354_1" departPos="5.10" departSpeed="0.00" departDelay="0.50" arrival="57709.00" arrivalLane="124812857#0_2" arrivalPos="143.49" arrivalSpeed="12.11" duration="100.00" routeLength="211.78" waitingTime="72.00" waitingCount="1" stopTime="0.00" timeLoss="82.45" rerouteNo="0" devices="tripinfo_h8750c1:1 routing_h8750c1:1" vType="default_016" speedFactor="0.92" vaporized=""/>
    <tripinfo id="h15808c1:1" depart="57627.00" departLane="201963537#1_1" departPos="5.10" departSpeed="0.00" departDelay="5.40" arrival="57709.00" arrivalLane="104012170_1" arrivalPos="109.94" arrivalSpeed="13.40" duration="82.00" routeLength="293.69" waitingTime="49.00" waitingCount="1" stopTime="0.00" timeLoss="61.31" rerouteNo="1" devices="tripinfo_h15808c1:1 routing_h15808c1:1" vType="default_016" speedFactor="1.02" vaporized=""/>
    <tripinfo id="carIn119141:1" depart="57632.00" departLane="201963537#1_1" departPos="5.10" departSpeed="0.00" departDelay="8.70" arrival="57709.00" arrivalLane="104012170_2" arrivalPos="109.94" arrivalSpeed="13.09" duration="77.00" routeLength="293.69" waitingTime="45.00" waitingCount="1" stopTime="0.00" timeLoss="55.20" rerouteNo="1" devices="tripinfo_carIn119141:1 routing_carIn119141:1" vType="default_015" speedFactor="1.00" vaporized=""/>
    <tripinfo id="carIn13117:1" depart="57638.00" departLane="104010354_1" departPos="5.10" departSpeed="0.00" departDelay="1.40" arrival="57710.00" arrivalLane="124812857#0_2" arrivalPos="143.49" arrivalSpeed="13.45" duration="72.00" routeLength="211.78" waitingTime="45.00" waitingCount="1" stopTime="0.00" timeLoss="57.90" rerouteNo="0" devices="tripinfo_carIn13117:1 routing_carIn13117:1" vType="default_016" speedFactor="1.09" vaporized=""/>
    <tripinfo id="carIn119185:1" depart="57637.00" departLane="201963537#1_1" departPos="5.10" departSpeed="0.00" departDelay="11.80" arrival="57711.00" arrivalLane="104012170_1" arrivalPos="109.94" arrivalSpeed="14.37" duration="74.00" routeLength="293.69" waitingTime="43.00" waitingCount="1" stopTime="0.00" timeLoss="54.95" rerouteNo="1" devices="tripinfo_carIn119185:1 routing_carIn119185:1" vType="default_015" speedFactor="1.13" vaporized=""/>
    <tripinfo id="carIn79970:1" depart="57641.00" departLane="201963537#1_1" departPos="5.10" departSpeed="0.00" departDelay="14.20" arrival="57711.00" arrivalLane="104012170_2" arrivalPos="109.94" arrivalSpeed="12.33" duration="70.00" routeLength="293.69" waitingTime="38.00" waitingCount="1" stopTime="0.00" timeLoss="48.02" rerouteNo="1" devices="tripinfo_carIn79970:1 routing_carIn79970:1" vType="default_016" speedFactor="0.98" vaporized=""/>
    <tripinfo id="60R.41" depart="57634.00" departLane="104010354_1" departPos="12.10" departSpeed="0.00" departDelay="0.50" arrival="57711.00" arrivalLane="124812857#0_3" arrivalPos="143.49" arrivalSpeed="13.52" duration="77.00" routeLength="204.78" waitingTime="47.00" waitingCount="1" stopTime="0.00" timeLoss="62.07" rerouteNo="0" devices="tripinfo_60R.41 routing_60R.41" vType="bus" speedFactor="1.00" vaporized=""/>
    <tripinfo id="randUni27349:1" depart="57646.00" departLane="104010354_1" departPos="5.10" departSpeed="0.00" departDelay="0.90" arrival="57712.00" arrivalLane="124812857#0_2" arrivalPos="143.49" arrivalSpeed="14.53" duration="66.00" routeLength="211.78" waitingTime="38.00" waitingCount="1" stopTime="0.00" timeLoss="51.61" rerouteNo="0" devices="tripinfo_randUni27349:1 routing_randUni27349:1" vType="random_016" speedFactor="1.09" vaporized=""/>
    <tripinfo id="carIn21562:1" depart="57611.00" departLane="201963537#1_1" departPos="5.10" departSpeed="0.00" departDelay="0.20" arrival="57713.00" arrivalLane="-653473569#5_1" arrivalPos="73.05" arrivalSpeed="12.88" duration="102.00" routeLength="256.07" waitingTime="70.00" waitingCount="2" stopTime="0.00" timeLoss="82.80" rerouteNo="1" devices="tripinfo_carIn21562:1 routing_carIn21562:1" vType="default_016" speedFactor="1.02" vaporized=""/>
    <tripinfo id="carIn20106:1" depart="57641.00" departLane="104010354_1" departPos="5.10" departSpeed="0.00" departDelay="1.50" arrival="57714.00" arrivalLane="124812857#0_3" arrivalPos="143.49" arrivalSpeed="14.75" duration="73.00" routeLength="211.78" waitingTime="43.00" waitingCount="1" stopTime="0.00" timeLoss="57.83" rerouteNo="0" devices="tripinfo_carIn20106:1 routing_carIn20106:1" vType="default_016" speedFactor="1.07" vaporized=""/>
    <tripinfo id="carIn28951:1" depart="57613.00" departLane="201963537#1_1" departPos="5.10" departSpeed="0.00" departDelay="0.30" arrival="57716.00" arrivalLane="-653473569#5_1" arrivalPos="73.05" arrivalSpeed="11.97" duration="103.00" routeLength="256.07" waitingTime="65.00" waitingCount="2" stopTime="0.00" timeLoss="80.95" rerouteNo="1" devices="tripinfo_carIn28951:1 routing_carIn28951:1" vType="default_016" speedFactor="0.87" vaporized=""/>
    <tripinfo id="carIn91254:1" depart="57696.00" departLane="653473569#5_1" departPos="5.10" departSpeed="0.00" departDelay="0.10" arrival="57720.00" arrivalLane="124812857#0_1" arrivalPos="143.49" arrivalSpeed="13.49" duration="24.00" routeLength="239.18" waitingTime="0.00" waitingCount="0" stopTime="0.00" timeLoss="5.68" rerouteNo="1" devices="tripinfo_carIn91254:1 routing_carIn91254:1" vType="default_016" speedFactor="0.98" vaporized=""/>
    <tripinfo id="carIn106797:1" depart="57726.00" departLane="653473569#5_1" departPos="5.10" departSpeed="0.00" departDelay="1.00" arrival="57748.00" arrivalLane="124812857#0_1" arrivalPos="143.49" arrivalSpeed="15.09" duration="22.00" routeLength="239.18" waitingTime="0.00" waitingCount="0" stopTime="0.00" timeLoss="5.45" rerouteNo="1" devices="tripinfo_carIn106797:1 routing_carIn106797:1" vType="default_016" speedFactor="1.10" vaporized=""/>
    <tripinfo id="carIn70484:1" depart="57724.00" departLane="653473569#5_1" departPos="5.10" departSpeed="0.00" departDelay="0.60" arrival="57749.00" arrivalLane="104012170_2" arrivalPos="109.94" arrivalSpeed="11.83" duration="25.00" routeLength="250.58" waitingTime="0.00" waitingCount="0" stopTime="0.00" timeLoss="4.26" rerouteNo="1" devices="tripinfo_carIn70484:1 routing_carIn70484:1" vType="default_016" speedFactor="0.90" vaporized=""/>
    <tripinfo id="carIn26708:1" depart="57729.00" departLane="653473569#5_1" departPos="5.10" departSpeed="0.00" departDelay="2.40" arrival="57753.00" arrivalLane="124812857#0_1" arrivalPos="143.49" arrivalSpeed="12.75" duration="24.00" routeLength="239.18" waitingTime="0.00" waitingCount="0" stopTime="0.00" timeLoss="5.47" rerouteNo="1" devices="tripinfo_carIn26708:1 routing_carIn26708:1" vType="default_016" speedFactor="0.98" vaporized=""/>
    <tripinfo id="carIn48988:1" depart="57732.00" departLane="653473569#5_1" departPos="5.10" departSpeed="0.00" departDelay="3.90" arrival="57756.00" arrivalLane="104012170_2" arrivalPos="109.94" arrivalSpeed="13.02" duration="24.00" routeLength="250.58" waitingTime="0.00" waitingCount="0" stopTime="0.00" timeLoss="4.41" rerouteNo="1" devices="tripinfo_carIn48988:1 routing_carIn48988:1" vType="default_016" speedFactor="0.94" vaporized=""/>
    <tripinfo id="carIn34550:1" depart="57734.00" departLane="653473569#5_1" departPos="5.10" departSpeed="0.00" departDelay="3.60" arrival="57758.00" arrivalLane="124812857#0_1" arrivalPos="143.49" arrivalSpeed="13.55" duration="24.00" routeLength="239.18" waitingTime="0.00" waitingCount="0" stopTime="0.00" timeLoss="5.72" rerouteNo="1" devices="tripinfo_carIn34550:1 routing_carIn34550:1" vType="default_016" speedFactor="0.98" vaporized=""/>
    <tripinfo id="carIn41791:1" depart="57737.00" departLane="653473569#5_1" departPos="5.10" departSpeed="0.00" departDelay="4.80" arrival="57762.00" arrivalLane="124812857#0_1" arrivalPos="143.49" arrivalSpeed="12.81" duration="25.00" routeLength="239.18" waitingTime="0.00" waitingCount="0" stopTime="0.00" timeLoss="6.17" rerouteNo="1" devices="tripinfo_carIn41791:1 routing_carIn41791:1" vType="default_016" speedFactor="0.99" vaporized=""/>
    <tripinfo id="carIn13016:1" depart="57740.00" departLane="653473569#5_1" departPos="5.10" departSpeed="0.00" departDelay="4.50" arrival="57767.00" arrivalLane="124812857#0_1" arrivalPos="143.49" arrivalSpeed="11.13" duration="27.00" routeLength="239.18" waitingTime="0.00" waitingCount="0" stopTime="0.00" timeLoss="4.85" rerouteNo="1" devices="tripinfo_carIn13016:1 routing_carIn13016:1" vType="default_016" speedFactor="0.83" vaporized=""/>
    <tripinfo id="carIn70477:1" depart="57743.00" departLane="653473569#5_1" departPos="5.10" departSpeed="0.00" departDelay="5.20" arrival="57769.00" arrivalLane="124812857#0_1" arrivalPos="143.49" arrivalSpeed="12.29" duration="26.00" routeLength="239.18" waitingTime="0.00" waitingCount="0" stopTime="0.00" timeLoss="6.85" rerouteNo="1" devices="tripinfo_carIn70477:1 routing_carIn70477:1" vType="default_016" speedFactor="0.94" vaporized=""/>
    <tripinfo id="randUni26227:1" depart="57746.00" departLane="653473569#5_1" departPos="5.10" departSpeed="0.00" departDelay="5.50" arrival="57771.00" arrivalLane="124812857#0_1" arrivalPos="143.49" arrivalSpeed="13.65" duration="25.00" routeLength="239.18" waitingTime="0.00" waitingCount="0" stopTime="0.00" timeLoss="6.86" rerouteNo="1" devices="tripinfo_randUni26227:1 routing_randUni26227:1" vType="random_016" speedFactor="1.00" vaporized=""/>
    <tripinfo id="carIn86816:1" depart="57769.00" departLane="653473569#5_1" departPos="5.10" departSpeed="0.00" departDelay="0.70" arrival="57794.00" arrivalLane="124812857#0_1" arrivalPos="143.49" arrivalSpeed="13.68" duration="25.00" routeLength="239.18" waitingTime="0.00" waitingCount="0" stopTime="0.00" timeLoss="6.21" rerouteNo="1" devices="tripinfo_carIn86816:1 routing_carIn86816:1" vType="default_016" speedFactor="0.99" vaporized=""/>
    <tripinfo id="carIn102915:1" depart="57811.00" departLane="653473569#5_1" departPos="5.10" departSpeed="0.00" departDelay="0.90" arrival="57837.00" arrivalLane="124812857#0_1" arrivalPos="143.49" arrivalSpeed="12.13" duration="26.00" routeLength="239.18" waitingTime="0.00" waitingCount="0" stopTime="0.00" timeLoss="5.93" rerouteNo="1" devices="tripinfo_carIn102915:1 routing_carIn102915:1" vType="default_016" speedFactor="0.94" vaporized=""/>
    <tripinfo id="randUni33724:1" depart="57814.00" departLane="653473569#5_1" departPos="5.10" departSpeed="0.00" departDelay="2.20" arrival="57838.00" arrivalLane="124812857#0_1" arrivalPos="143.49" arrivalSpeed="13.58" duration="24.00" routeLength="239.18" waitingTime="0.00" waitingCount="0" stopTime="0.00" timeLoss="8.17" rerouteNo="1" devices="tripinfo_randUni33724:1 routing_randUni33724:1" vType="random_016" speedFactor="1.13" vaporized=""/>
    <tripinfo id="carIn46350:1" depart="57630.00" departLane="201963537#1_1" departPos="5.10" departSpeed="0.00" departDelay="6.80" arrival="57874.00" arrivalLane="-653473569#5_1" arrivalPos="73.05" arrivalSpeed="12.60" duration="244.00" routeLength="256.07" waitingTime="209.00" waitingCount="2" stopTime="0.00" timeLoss="224.90" rerouteNo="1" devices="tripinfo_carIn46350:1 routing_carIn46350:1" vType="default_016" speedFactor="1.00" vaporized=""/>
    <tripinfo id="carIn75667:1" depart="57635.00" departLane="201963537#1_1" departPos="5.10" departSpeed="0.00" departDelay="10.40" arrival="57876.00" arrivalLane="-653473569#5_1" arrivalPos="73.05" arrivalSpeed="14.38" duration="241.00" routeLength="256.07" waitingTime="207.00" waitingCount="2" stopTime="0.00" timeLoss="223.18" rerouteNo="1" devices="tripinfo_carIn75667:1 routing_carIn75667:1" vType="default_016" speedFactor="1.09" vaporized=""/>
    <tripinfo id="carIn96537:1" depart="57650.00" departLane="201963537#1_1" departPos="5.10" departSpeed="0.00" departDelay="19.30" arrival="57877.00" arrivalLane="104012170_2" arrivalPos="109.94" arrivalSpeed="14.78" duration="227.00" routeLength="293.69" waitingTime="191.00" waitingCount="2" stopTime="0.00" timeLoss="206.58" rerouteNo="1" devices="tripinfo_carIn96537:1 routing_carIn96537:1" vType="default_016" speedFactor="1.07" vaporized=""/>
    <tripinfo id="carIn51024:1" depart="57658.00" departLane="201963537#1_1" departPos="5.10" departSpeed="0.00" departDelay="24.00" arrival="57879.00" arrivalLane="104012170_2" arrivalPos="109.94" arrivalSpeed="12.08" duration="221.00" routeLength="293.69" waitingTime="182.00" waitingCount="2" stopTime="0.00" timeLoss="198.77" rerouteNo="1" devices="tripinfo_carIn51024:1 routing_carIn51024:1" vType="default_016" speedFactor="0.96" vaporized=""/>
    <tripinfo id="carIn27195:1" depart="57645.00" departLane="201963537#1_1" departPos="5.10" departSpeed="0.00" departDelay="16.90" arrival="57880.00" arrivalLane="104012170_1" arrivalPos="109.94" arrivalSpeed="11.18" duration="235.00" routeLength="293.69" waitingTime="193.00" waitingCount="2" stopTime="0.00" timeLoss="208.59" rerouteNo="1" devices="tripinfo_carIn27195:1 routing_carIn27195:1" vType="default_016" speedFactor="0.83" vaporized=""/>
    <tripinfo id="carIn26410:1" depart="57654.00" departLane="201963537#1_1" departPos="5.10" departSpeed="0.00" departDelay="21.70" arrival="57881.00" arrivalLane="104012170_1" arrivalPos="109.94" arrivalSpeed="12.28" duration="227.00" routeLength="293.69" waitingTime="187.00" waitingCount="2" stopTime="0.00" timeLoss="206.73" rerouteNo="1" devices="tripinfo_carIn26410:1 routing_carIn26410:1" vType="default_016" speedFactor="1.05" vaporized=""/>
    <tripinfo id="carIn128705:1" depart="57662.00" departLane="201963537#1_1" departPos="5.10" departSpeed="0.00" departDelay="26.30" arrival="57883.00" arrivalLane="104012170_1" arrivalPos="109.94" arrivalSpeed="14.28" duration="221.00" routeLength="293.69" waitingTime="180.00" waitingCount="2" stopTime="0.00" timeLoss="200.22" rerouteNo="1" devices="tripinfo_carIn128705:1 routing_carIn128705:1" vType="default_016" speedFactor="1.04" vaporized=""/>
    <tripinfo id="50R_frequency3.17" depart="57861.00" departLane="653473569#5_1" departPos="12.10" departSpeed="0.00" departDelay="0.10" arrival="57890.00" arrivalLane="124812857#0_1" arrivalPos="143.49" arrivalSpeed="13.30" duration="29.00" routeLength="232.18" waitingTime="0.00" waitingCount="0" stopTime="0.00" timeLoss="10.70" rerouteNo="1" devices="tripinfo_50R_frequency3.17 routing_50R_frequency3.17" vType="bus" speedFactor="1.00" vaporized=""/>
    <tripinfo id="h18601c1:3" depart="57866.00" departLane="653473569#5_1" departPos="5.10" departSpeed="0.00" departDelay="2.90" arrival="57892.00" arrivalLane="124812857#0_1" arrivalPos="143.49" arrivalSpeed="15.23" duration="26.00" routeLength="239.18" waitingTime="0.00" waitingCount="0" stopTime="0.00" timeLoss="9.51" rerouteNo="1" devices="tripinfo_h18601c1:3 routing_h18601c1:3" vType="default_016" speedFactor="1.11" vaporized=""/>
    <tripinfo id="h6245c2:1" depart="57869.00" departLane="653473569#5_1" departPos="5.10" departSpeed="0.00" departDelay="4.50" arrival="57892.00" arrivalLane="104012170_2" arrivalPos="109.94" arrivalSpeed="13.27" duration="23.00" routeLength="250.58" waitingTime="0.00" waitingCount="0" stopTime="0.00" timeLoss="3.97" rerouteNo="1" devices="tripinfo_h6245c2:1 routing_h6245c2:1" vType="default_016" speedFactor="0.97" vaporized=""/>
    <tripinfo id="carIn75793:1" depart="57884.00" departLane="653473569#5_1" departPos="5.10" departSpeed="0.00" departDelay="0.80" arrival="57910.00" arrivalLane="104012170_2" arrivalPos="109.94" arrivalSpeed="11.04" duration="26.00" routeLength="250.58" waitingTime="0.00" waitingCount="0" stopTime="0.00" timeLoss="4.39" rerouteNo="1" devices="tripinfo_carIn75793:1 routing_carIn75793:1" vType="default_016" speedFactor="0.88" vaporized=""/>
    <tripinfo id="carIn76112:1" depart="57640.00" departLane="201963537#1_1" departPos="5.10" departSpeed="0.00" departDelay="14.00" arrival="57916.00" arrivalLane="-653473569#5_1" arrivalPos="73.05" arrivalSpeed="11.49" duration="276.00" routeLength="256.07" waitingTime="236.00" waitingCount="3" stopTime="0.00" timeLoss="254.20" rerouteNo="1" devices="tripinfo_carIn76112:1 routing_carIn76112:1" vType="default_016" speedFactor="0.91" vaporized=""/>
    <tripinfo id="carIn27521:1" depart="57644.00" departLane="201963537#1_1" departPos="5.10" departSpeed="0.00" departDelay="16.50" arrival="57917.00" arrivalLane="-653473569#5_1" arrivalPos="73.05" arrivalSpeed="13.54" duration="273.00" routeLength="256.07" waitingTime="232.00" waitingCount="3" stopTime="0.00" timeLoss="254.16" rerouteNo="1" devices="tripinfo_carIn27521:1 routing_carIn27521:1" vType="default_015" speedFactor="1.02" vaporized=""/>
    <tripinfo id="h21989c1:1" depart="57666.00" departLane="201963537#1_1" departPos="5.10" departSpeed="0.00" departDelay="28.70" arrival="57917.00" arrivalLane="104012170_2" arrivalPos="109.94" arrivalSpeed="13.05" duration="251.00" routeLength="293.69" waitingTime="210.00" waitingCount="3" stopTime="0.00" timeLoss="228.93" rerouteNo="1" devices="tripinfo_h21989c1:1 routing_h21989c1:1" vType="default_016" speedFactor="0.98" vaporized=""/>
    <tripinfo id="h21130c2:1" depart="57697.00" departLane="201963537#1_1" departPos="5.10" departSpeed="0.00" departDelay="33.60" arrival="57918.00" arrivalLane="104012170_1" arrivalPos="109.94" arrivalSpeed="13.74" duration="221.00" routeLength="293.69" waitingTime="184.00" waitingCount="2" stopTime="0.00" timeLoss="199.05" rerouteNo="1" devices="tripinfo_h21130c2:1 routing_h21130c2:1" vType="default_016" speedFactor="1.01" vaporized=""/>
    <tripinfo id="60.39" depart="57703.00" departLane="201963537#1_1" departPos="12.10" departSpeed="0.00" departDelay="34.50" arrival="57923.00" arrivalLane="104012170_1" arrivalPos="109.94" arrivalSpeed="13.32" duration="220.00" routeLength="286.69" waitingTime="175.00" waitingCount="2" stopTime="0.00" timeLoss="198.93" rerouteNo="1" devices="tripinfo_60.39 routing_60.39" vType="bus" speedFactor="1.00" vaporized=""/>
    <tripinfo id="h19571c2:3" depart="57890.00" departLane="25149219#1_1" departPos="5.10" departSpeed="0.00" departDelay="0.60" arrival="57930.00" arrivalLane="-653473569#5_1" arrivalPos="73.05" arrivalSpeed="14.11" duration="40.00" routeLength="246.10" waitingTime="0.00" waitingCount="0" stopTime="0.00" timeLoss="6.46" rerouteNo="1" devices="tripinfo_h19571c2:3 routing_h19571c2:3" vType="default_016" speedFactor="1.07" vaporized=""/>
    <tripinfo id="h8072c1:3" depart="57926.00" departLane="653473569#5_1" departPos="5.10" departSpeed="0.00" departDelay="0.10" arrival="57952.00" arrivalLane="104012170_2" arrivalPos="109.94" arrivalSpeed="11.91" duration="26.00" routeLength="250.58" waitingTime="0.00" waitingCount="0" stopTime="0.00" timeLoss="4.20" rerouteNo="1" devices="tripinfo_h8072c1:3 routing_h8072c1:3" vType="default_016" speedFactor="0.88" vaporized=""/>
    <tripinfo id="h15937c1:3" depart="57963.00" departLane="653473569#5_1" departPos="5.10" departSpeed="0.00" departDelay="0.20" arrival="57986.00" arrivalLane="124812857#0_1" arrivalPos="143.49" arrivalSpeed="15.33" duration="23.00" routeLength="239.18" waitingTime="0.00" waitingCount="0" stopTime="0.00" timeLoss="6.77" rerouteNo="1" devices="tripinfo_h15937c1:3 routing_h15937c1:3" vType="default_016" speedFactor="1.13" vaporized=""/>
    <tripinfo id="carIn85069:1" depart="57966.00" departLane="653473569#5_1" departPos="5.10" departSpeed="0.00" departDelay="1.70" arrival="57991.00" arrivalLane="104012170_2" arrivalPos="109.94" arrivalSpeed="12.48" duration="25.00" routeLength="250.58" waitingTime="0.00" waitingCount="0" stopTime="0.00" timeLoss="4.94" rerouteNo="1" devices="tripinfo_carIn85069:1 routing_carIn85069:1" vType="default_016" speedFactor="0.96" vaporized=""/>
    <tripinfo id="carIn84877:1" depart="57969.00" departLane="653473569#5_1" departPos="5.10" departSpeed="0.00" departDelay="0.40" arrival="57993.00" arrivalLane="124812857#0_1" arrivalPos="143.49" arrivalSpeed="13.58" duration="24.00" routeLength="239.18" waitingTime="0.00" waitingCount="0" stopTime="0.00" timeLoss="5.68" rerouteNo="1" devices="tripinfo_carIn84877:1 routing_carIn84877:1" vType="default_016" speedFactor="1.00" vaporized=""/>
    <tripinfo id="carIn9903:1" depart="57972.00" departLane="653473569#5_1" departPos="5.10" departSpeed="0.00" departDelay="0.90" arrival="57996.00" arrivalLane="104012170_2" arrivalPos="109.94" arrivalSpeed="11.82" duration="24.00" routeLength="250.58" waitingTime="0.00" waitingCount="0" stopTime="0.00" timeLoss="3.90" rerouteNo="1" devices="tripinfo_carIn9903:1 routing_carIn9903:1" vType="default_016" speedFactor="0.93" vaporized=""/>
    <tripinfo id="randUni5976:1" depart="57947.00" departLane="25149219#1_1" departPos="5.10" departSpeed="0.00" departDelay="0.40" arrival="58003.00" arrivalLane="-653473569#5_1" arrivalPos="73.05" arrivalSpeed="10.76" duration="56.00" routeLength="246.10" waitingTime="3.00" waitingCount="1" stopTime="0.00" timeLoss="13.24" rerouteNo="1" devices="tripinfo_randUni5976:1 routing_randUni5976:1" vType="random_016" speedFactor="0.84" vaporized=""/>
    <tripinfo id="carIn56192:1" depart="57981.00" departLane="653473569#5_1" departPos="5.10" departSpeed="0.00" departDelay="0.60" arrival="58005.00" arrivalLane="104012170_2" arrivalPos="109.94" arrivalSpeed="13.34" duration="24.00" routeLength="250.58" waitingTime="0.00" waitingCount="0" stopTime="0.00" timeLoss="4.17" rerouteNo="1" devices="tripinfo_carIn56192:1 routing_carIn56192:1" vType="default_016" speedFactor="0.97" vaporized=""/>
    <tripinfo id="carIn114414:1" depart="57983.00" departLane="653473569#5_1" departPos="5.10" departSpeed="0.00" departDelay="1.00" arrival="58007.00" arrivalLane="104012170_2" arrivalPos="109.94" arrivalSpeed="13.01" duration="24.00" routeLength="250.58" waitingTime="0.00" waitingCount="0" stopTime="0.00" timeLoss="4.44" rerouteNo="1" devices="tripinfo_carIn114414:1 routing_carIn114414:1" vType="default_016" speedFactor="0.96" vaporized=""/>
    <tripinfo id="h14212c1:3" depart="57970.00" departLane="25149219#1_1" departPos="5.10" departSpeed="0.00" departDelay="0.00" arrival="58011.00" arrivalLane="-653473569#5_1" arrivalPos="73.05" arrivalSpeed="13.03" duration="41.00" routeLength="246.10" waitingTime="0.00" waitingCount="0" stopTime="0.00" timeLoss="6.13" rerouteNo="1" devices="tripinfo_h14212c1:3 routing_h14212c1:3" vType="default_016" speedFactor="1.01" vaporized=""/>