<?xml version="1.0" encoding="UTF-8"?>

<!-- generated on 2023-08-31 12:16:35 by Eclipse SUMO libsumo Version 1.18.0
<configuration xmlns:xsi="http://www.w3.org/2001/XMLSchema-instance" xsi:noNamespaceSchemaLocation="http://sumo.dlr.de/xsd/libsumoConfiguration.xsd">

    <input>
        <net-file value="/home/stefan/RESCO/./environments/ingolstadt1/ingolstadt1.net.xml"/>
        <route-files value="/home/stefan/RESCO/./environments/ingolstadt1/ingolstadt1.rou.xml"/>
    </input>

    <output>
        <tripinfo-output value="/home/stefan/results/RAINBOW-tr0-ingolstadt1-0-drq_norm-wait_norm/tripinfo_70.xml"/>
        <tripinfo-output.write-unfinished value="true"/>
    </output>

    <time>
        <begin value="57600"/>
        <end value="61200"/>
    </time>

    <processing>
        <time-to-teleport value="-1"/>
    </processing>

    <report>
        <no-warnings value="True"/>
        <no-step-log value="True"/>
    </report>

    <random_number>
        <random value="true"/>
    </random_number>

</configuration>
-->

<tripinfos xmlns:xsi="http://www.w3.org/2001/XMLSchema-instance" xsi:noNamespaceSchemaLocation="http://sumo.dlr.de/xsd/tripinfo_file.xsd">
    <tripinfo id="carIn105842:1" depart="57601.00" departLane="653473569#5_1" departPos="5.10" departSpeed="0.00" departDelay="0.80" arrival="57624.00" arrivalLane="124812857#0_1" arrivalPos="143.49" arrivalSpeed="15.43" duration="23.00" routeLength="239.18" waitingTime="0.00" waitingCount="0" stopTime="0.00" timeLoss="5.97" rerouteNo="1" devices="tripinfo_carIn105842:1 routing_carIn105842:1" vType="default_016" speedFactor="1.12" vaporized=""/>
    <tripinfo id="carIn28488:1" depart="57611.00" departLane="653473569#5_1" departPos="5.10" departSpeed="0.00" departDelay="0.80" arrival="57635.00" arrivalLane="124812857#0_1" arrivalPos="143.49" arrivalSpeed="13.81" duration="24.00" routeLength="239.18" waitingTime="0.00" waitingCount="0" stopTime="0.00" timeLoss="5.79" rerouteNo="1" devices="tripinfo_carIn28488:1 routing_carIn28488:1" vType="default_016" speedFactor="1.02" vaporized=""/>
    <tripinfo id="carIn106322:1" depart="57614.00" departLane="653473569#5_1" departPos="5.10" departSpeed="0.00" departDelay="2.20" arrival="57637.00" arrivalLane="124812857#0_1" arrivalPos="143.49" arrivalSpeed="15.39" duration="23.00" routeLength="239.18" waitingTime="0.00" waitingCount="0" stopTime="0.00" timeLoss="6.80" rerouteNo="1" devices="tripinfo_carIn106322:1 routing_carIn106322:1" vType="default_016" speedFactor="1.16" vaporized=""/>
    <tripinfo id="carIn5482:1" depart="57617.00" departLane="653473569#5_1" departPos="5.10" departSpeed="0.00" departDelay="3.60" arrival="57644.00" arrivalLane="124812857#0_1" arrivalPos="143.49" arrivalSpeed="11.47" duration="27.00" routeLength="239.18" waitingTime="0.00" waitingCount="0" stopTime="0.00" timeLoss="5.07" rerouteNo="1" devices="tripinfo_carIn5482:1 routing_carIn5482:1" vType="default_016" speedFactor="0.83" vaporized=""/>
    <tripinfo id="carIn36103:1" depart="57620.00" departLane="653473569#5_1" departPos="5.10" departSpeed="0.00" departDelay="4.00" arrival="57648.00" arrivalLane="124812857#0_1" arrivalPos="143.49" arrivalSpeed="10.43" duration="28.00" routeLength="239.18" waitingTime="0.00" waitingCount="0" stopTime="0.00" timeLoss="5.09" rerouteNo="1" devices="tripinfo_carIn36103:1 routing_carIn36103:1" vType="default_016" speedFactor="0.79" vaporized=""/>
    <tripinfo id="carIn102997:1" depart="57623.00" departLane="653473569#5_1" departPos="5.10" departSpeed="0.00" departDelay="4.80" arrival="57649.00" arrivalLane="124812857#0_1" arrivalPos="143.49" arrivalSpeed="13.10" duration="26.00" routeLength="239.18" waitingTime="0.00" waitingCount="0" stopTime="0.00" timeLoss="7.15" rerouteNo="1" devices="tripinfo_carIn102997:1 routing_carIn102997:1" vType="default_016" speedFactor="0.97" vaporized=""/>
    <tripinfo id="carIn75554:1" depart="57626.00" departLane="653473569#5_1" departPos="5.10" departSpeed="0.00" departDelay="5.20" arrival="57651.00" arrivalLane="124812857#0_1" arrivalPos="143.49" arrivalSpeed="14.48" duration="25.00" routeLength="239.18" waitingTime="0.00" waitingCount="0" stopTime="0.00" timeLoss="8.40" rerouteNo="1" devices="tripinfo_carIn75554:1 routing_carIn75554:1" vType="default_016" speedFactor="1.09" vaporized=""/>
    <tripinfo id="randUni20090:1" depart="57629.00" departLane="653473569#5_1" departPos="5.10" departSpeed="0.00" departDelay="1.00" arrival="57654.00" arrivalLane="124812857#0_1" arrivalPos="143.49" arrivalSpeed="14.61" duration="25.00" routeLength="239.18" waitingTime="0.00" waitingCount="0" stopTime="0.00" timeLoss="7.95" rerouteNo="1" devices="tripinfo_randUni20090:1 routing_randUni20090:1" vType="random_016" speedFactor="1.10" vaporized=""/>
    <tripinfo id="carIn37268:1" depart="57636.00" departLane="653473569#5_1" departPos="5.10" departSpeed="0.00" departDelay="0.90" arrival="57659.00" arrivalLane="124812857#0_1" arrivalPos="143.49" arrivalSpeed="14.45" duration="23.00" routeLength="239.18" waitingTime="0.00" waitingCount="0" stopTime="0.00" timeLoss="6.65" rerouteNo="1" devices="tripinfo_carIn37268:1 routing_carIn37268:1" vType="default_016" speedFactor="1.11" vaporized=""/>
    <tripinfo id="carIn129760:1" depart="57661.00" departLane="653473569#5_1" departPos="5.10" departSpeed="0.00" departDelay="0.80" arrival="57684.00" arrivalLane="124812857#0_1" arrivalPos="143.49" arrivalSpeed="13.80" duration="23.00" routeLength="239.18" waitingTime="0.00" waitingCount="0" stopTime="0.00" timeLoss="5.92" rerouteNo="1" devices="tripinfo_carIn129760:1 routing_carIn129760:1" vType="default_016" speedFactor="1.05" vaporized=""/>
    <tripinfo id="carIn129626:1" depart="57664.00" departLane="653473569#5_1" departPos="5.10" departSpeed="0.00" departDelay="1.60" arrival="57688.00" arrivalLane="124812857#0_1" arrivalPos="143.49" arrivalSpeed="14.58" duration="24.00" routeLength="239.18" waitingTime="0.00" waitingCount="0" stopTime="0.00" timeLoss="6.91" rerouteNo="1" devices="tripinfo_carIn129626:1 routing_carIn129626:1" vType="default_016" speedFactor="1.07" vaporized=""/>
    <tripinfo id="h20539c1:3" depart="57667.00" departLane="653473569#5_1" departPos="5.10" departSpeed="0.00" departDelay="2.20" arrival="57693.00" arrivalLane="124812857#0_1" arrivalPos="143.49" arrivalSpeed="12.17" duration="26.00" routeLength="239.18" waitingTime="0.00" waitingCount="0" stopTime="0.00" timeLoss="5.11" rerouteNo="1" devices="tripinfo_h20539c1:3 routing_h20539c1:3" vType="default_016" speedFactor="0.90" vaporized=""/>
    <tripinfo id="carIn91254:1" depart="57696.00" departLane="653473569#5_1" departPos="5.10" departSpeed="0.00" departDelay="0.10" arrival="57720.00" arrivalLane="124812857#0_1" arrivalPos="143.49" arrivalSpeed="13.51" duration="24.00" routeLength="239.18" waitingTime="0.00" waitingCount="0" stopTime="0.00" timeLoss="6.18" rerouteNo="1" devices="tripinfo_carIn91254:1 routing_carIn91254:1" vType="default_016" speedFactor="1.04" vaporized=""/>
    <tripinfo id="carIn70484:1" depart="57724.00" departLane="653473569#5_1" departPos="5.10" departSpeed="0.00" departDelay="0.60" arrival="57748.00" arrivalLane="104012170_2" arrivalPos="109.94" arrivalSpeed="12.62" duration="24.00" routeLength="250.58" waitingTime="0.00" waitingCount="0" stopTime="0.00" timeLoss="4.26" rerouteNo="1" devices="tripinfo_carIn70484:1 routing_carIn70484:1" vType="default_016" speedFactor="0.98" vaporized=""/>
    <tripinfo id="carIn106797:1" depart="57726.00" departLane="653473569#5_1" departPos="5.10" departSpeed="0.00" departDelay="1.00" arrival="57751.00" arrivalLane="124812857#0_1" arrivalPos="143.49" arrivalSpeed="12.28" duration="25.00" routeLength="239.18" waitingTime="0.00" waitingCount="0" stopTime="0.00" timeLoss="6.01" rerouteNo="1" devices="tripinfo_carIn106797:1 routing_carIn106797:1" vType="default_016" speedFactor="0.97" vaporized=""/>
    <tripinfo id="carIn26708:1" depart="57729.00" departLane="653473569#5_1" departPos="5.10" departSpeed="0.00" departDelay="2.40" arrival="57752.00" arrivalLane="124812857#0_1" arrivalPos="143.49" arrivalSpeed="15.76" duration="23.00" routeLength="239.18" waitingTime="0.00" waitingCount="0" stopTime="0.00" timeLoss="7.65" rerouteNo="1" devices="tripinfo_carIn26708:1 routing_carIn26708:1" vType="default_016" speedFactor="1.18" vaporized=""/>
    <tripinfo id="carIn34550:1" depart="57734.00" departLane="653473569#5_1" departPos="5.10" departSpeed="0.00" departDelay="3.60" arrival="57757.00" arrivalLane="124812857#0_1" arrivalPos="143.49" arrivalSpeed="14.07" duration="23.00" routeLength="239.18" waitingTime="0.00" waitingCount="0" stopTime="0.00" timeLoss="5.57" rerouteNo="1" devices="tripinfo_carIn34550:1 routing_carIn34550:1" vType="default_016" speedFactor="1.02" vaporized=""/>
    <tripinfo id="carIn41791:1" depart="57737.00" departLane="653473569#5_1" departPos="5.10" departSpeed="0.00" departDelay="4.80" arrival="57761.00" arrivalLane="124812857#0_1" arrivalPos="143.49" arrivalSpeed="13.07" duration="24.00" routeLength="239.18" waitingTime="0.00" waitingCount="0" stopTime="0.00" timeLoss="5.93" rerouteNo="1" devices="tripinfo_carIn41791:1 routing_carIn41791:1" vType="default_016" speedFactor="1.03" vaporized=""/>
    <tripinfo id="carIn13016:1" depart="57740.00" departLane="653473569#5_1" departPos="5.10" departSpeed="0.00" departDelay="4.50" arrival="57763.00" arrivalLane="124812857#0_1" arrivalPos="143.49" arrivalSpeed="17.06" duration="23.00" routeLength="239.18" waitingTime="0.00" waitingCount="0" stopTime="0.00" timeLoss="7.56" rerouteNo="1" devices="tripinfo_carIn13016:1 routing_carIn13016:1" vType="default_016" speedFactor="1.25" vaporized=""/>
    <tripinfo id="carIn48988:1" depart="57732.00" departLane="653473569#5_1" departPos="5.10" departSpeed="0.00" departDelay="3.90" arrival="57765.00" arrivalLane="104012170_2" arrivalPos="109.94" arrivalSpeed="8.87" duration="33.00" routeLength="250.58" waitingTime="0.00" waitingCount="0" stopTime="0.00" timeLoss="3.90" rerouteNo="1" devices="tripinfo_carIn48988:1 routing_carIn48988:1" vType="default_016" speedFactor="0.65" vaporized=""/>
    <tripinfo id="carIn70477:1" depart="57743.00" departLane="653473569#5_1" departPos="5.10" departSpeed="0.00" departDelay="5.20" arrival="57766.00" arrivalLane="124812857#0_1" arrivalPos="143.49" arrivalSpeed="15.62" duration="23.00" routeLength="239.18" waitingTime="0.00" waitingCount="0" stopTime="0.00" timeLoss="6.95" rerouteNo="1" devices="tripinfo_carIn70477:1 routing_carIn70477:1" vType="default_016" speedFactor="1.13" vaporized=""/>
    <tripinfo id="randUni26227:1" depart="57746.00" departLane="653473569#5_1" departPos="5.10" departSpeed="0.00" departDelay="5.50" arrival="57771.00" arrivalLane="124812857#0_1" arrivalPos="143.49" arrivalSpeed="12.28" duration="25.00" routeLength="239.18" waitingTime="0.00" waitingCount="0" stopTime="0.00" timeLoss="5.86" rerouteNo="1" devices="tripinfo_randUni26227:1 routing_randUni26227:1" vType="random_016" speedFactor="0.97" vaporized=""/>
    <tripinfo id="carIn86816:1" depart="57769.00" departLane="653473569#5_1" departPos="5.10" departSpeed="0.00" departDelay="0.70" arrival="57793.00" arrivalLane="124812857#0_1" arrivalPos="143.49" arrivalSpeed="13.21" duration="24.00" routeLength="239.18" waitingTime="0.00" waitingCount="0" stopTime="0.00" timeLoss="5.69" rerouteNo="1" devices="tripinfo_carIn86816:1 routing_carIn86816:1" vType="default_016" speedFactor="0.98" vaporized=""/>
    <tripinfo id="carIn102915:1" depart="57811.00" departLane="653473569#5_1" departPos="5.10" departSpeed="0.00" departDelay="0.90" arrival="57832.00" arrivalLane="124812857#0_1" arrivalPos="143.49" arrivalSpeed="16.07" duration="21.00" routeLength="239.18" waitingTime="0.00" waitingCount="0" stopTime="0.00" timeLoss="6.18" rerouteNo="1" devices="tripinfo_carIn102915:1 routing_carIn102915:1" vType="default_016" speedFactor="1.23" vaporized=""/>
    <tripinfo id="randUni33724:1" depart="57814.00" departLane="653473569#5_1" departPos="5.10" departSpeed="0.00" departDelay="2.20" arrival="57838.00" arrivalLane="124812857#0_1" arrivalPos="143.49" arrivalSpeed="13.09" duration="24.00" routeLength="239.18" waitingTime="0.00" waitingCount="0" stopTime="0.00" timeLoss="5.69" rerouteNo="1" devices="tripinfo_randUni33724:1 routing_randUni33724:1" vType="random_016" speedFactor="0.99" vaporized=""/>
    <tripinfo id="carIn115534:1" depart="57624.00" departLane="201963537#1_1" departPos="5.10" departSpeed="0.00" departDelay="2.60" arrival="57856.00" arrivalLane="104012170_2" arrivalPos="109.94" arrivalSpeed="14.97" duration="232.00" routeLength="293.69" waitingTime="203.00" waitingCount="1" stopTime="0.00" timeLoss="212.69" rerouteNo="1" devices="tripinfo_carIn115534:1 routing_carIn115534:1" vType="default_015" speedFactor="1.11" vaporized=""/>
    <tripinfo id="carIn26332:1" depart="57621.00" departLane="201963537#1_1" departPos="5.10" departSpeed="0.00" departDelay="0.00" arrival="57857.00" arrivalLane="104012170_1" arrivalPos="109.94" arrivalSpeed="14.72" duration="236.00" routeLength="293.69" waitingTime="207.00" waitingCount="1" stopTime="0.00" timeLoss="215.32" rerouteNo="1" devices="tripinfo_carIn26332:1 routing_carIn26332:1" vType="default_015" speedFactor="1.07" vaporized=""/>
    <tripinfo id="h8750c1:1" depart="57609.00" departLane="104010354_1" departPos="5.10" departSpeed="0.00" departDelay="0.50" arrival="57858.00" arrivalLane="124812857#0_2" arrivalPos="143.49" arrivalSpeed="12.02" duration="249.00" routeLength="211.78" waitingTime="224.00" waitingCount="1" stopTime="0.00" timeLoss="232.84" rerouteNo="0" devices="tripinfo_h8750c1:1 routing_h8750c1:1" vType="default_016" speedFactor="0.94" vaporized=""/>
    <tripinfo id="h15808c1:1" depart="57627.00" departLane="201963537#1_1" departPos="5.10" departSpeed="0.00" departDelay="5.40" arrival="57859.00" arrivalLane="104012170_1" arrivalPos="109.94" arrivalSpeed="12.88" duration="232.00" routeLength="293.69" waitingTime="200.00" waitingCount="1" stopTime="0.00" timeLoss="209.38" rerouteNo="1" devices="tripinfo_h15808c1:1 routing_h15808c1:1" vType="default_016" speedFactor="0.95" vaporized=""/>
    <tripinfo id="carIn119141:1" depart="57632.00" departLane="201963537#1_1" departPos="5.10" departSpeed="0.00" departDelay="8.70" arrival="57859.00" arrivalLane="104012170_2" arrivalPos="109.94" arrivalSpeed="13.79" duration="227.00" routeLength="293.69" waitingTime="196.00" waitingCount="1" stopTime="0.00" timeLoss="205.91" rerouteNo="1" devices="tripinfo_carIn119141:1 routing_carIn119141:1" vType="default_015" speedFactor="1.05" vaporized=""/>
    <tripinfo id="carIn119185:1" depart="57637.00" departLane="201963537#1_1" departPos="5.10" departSpeed="0.00" departDelay="11.80" arrival="57861.00" arrivalLane="104012170_1" arrivalPos="109.94" arrivalSpeed="13.59" duration="224.00" routeLength="293.69" waitingTime="193.00" waitingCount="1" stopTime="0.00" timeLoss="203.09" rerouteNo="1" devices="tripinfo_carIn119185:1 routing_carIn119185:1" vType="default_015" speedFactor="1.04" vaporized=""/>
    <tripinfo id="carIn79970:1" depart="57642.00" departLane="201963537#1_1" departPos="5.10" departSpeed="0.00" departDelay="15.20" arrival="57861.00" arrivalLane="104012170_2" arrivalPos="109.94" arrivalSpeed="12.89" duration="219.00" routeLength="293.69" waitingTime="188.00" waitingCount="1" stopTime="0.00" timeLoss="197.03" rerouteNo="1" devices="tripinfo_carIn79970:1 routing_carIn79970:1" vType="default_016" speedFactor="1.00" vaporized=""/>
    <tripinfo id="60R.41" depart="57634.00" departLane="104010354_1" departPos="12.10" departSpeed="0.00" departDelay="0.50" arrival="57861.00" arrivalLane="124812857#0_3" arrivalPos="143.49" arrivalSpeed="13.66" duration="227.00" routeLength="204.78" waitingTime="196.00" waitingCount="1" stopTime="0.00" timeLoss="211.98" rerouteNo="0" devices="tripinfo_60R.41 routing_60R.41" vType="bus" speedFactor="1.00" vaporized=""/>
    <tripinfo id="carIn13117:1" depart="57639.00" departLane="104010354_1" departPos="5.10" departSpeed="0.00" departDelay="2.40" arrival="57861.00" arrivalLane="124812857#0_2" arrivalPos="143.49" arrivalSpeed="11.79" duration="222.00" routeLength="211.78" waitingTime="195.00" waitingCount="1" stopTime="0.00" timeLoss="204.11" rerouteNo="0" devices="tripinfo_carIn13117:1 routing_carIn13117:1" vType="default_016" speedFactor="0.86" vaporized=""/>
    <tripinfo id="randUni27349:1" depart="57646.00" departLane="104010354_1" departPos="5.10" departSpeed="0.00" departDelay="0.90" arrival="57863.00" arrivalLane="124812857#0_2" arrivalPos="143.49" arrivalSpeed="12.65" duration="217.00" routeLength="211.78" waitingTime="191.00" waitingCount="1" stopTime="0.00" timeLoss="199.97" rerouteNo="0" devices="tripinfo_randUni27349:1 routing_randUni27349:1" vType="random_016" speedFactor="0.92" vaporized=""/>
    <tripinfo id="carIn21562:1" depart="57611.00" departLane="201963537#1_1" departPos="5.10" departSpeed="0.00" departDelay="0.20" arrival="57864.00" arrivalLane="-653473569#5_1" arrivalPos="73.05" arrivalSpeed="12.06" duration="253.00" routeLength="256.07" waitingTime="221.00" waitingCount="2" stopTime="0.00" timeLoss="231.99" rerouteNo="1" devices="tripinfo_carIn21562:1 routing_carIn21562:1" vType="default_016" speedFactor="0.94" vaporized=""/>
    <tripinfo id="carIn20106:1" depart="57642.00" departLane="104010354_1" departPos="5.10" departSpeed="0.00" departDelay="2.50" arrival="57864.00" arrivalLane="124812857#0_3" arrivalPos="143.49" arrivalSpeed="12.24" duration="222.00" routeLength="211.78" waitingTime="193.00" waitingCount="1" stopTime="0.00" timeLoss="205.51" rerouteNo="0" devices="tripinfo_carIn20106:1 routing_carIn20106:1" vType="default_016" speedFactor="0.96" vaporized=""/>
    <tripinfo id="carIn28951:1" depart="57613.00" departLane="201963537#1_1" departPos="5.10" departSpeed="0.00" departDelay="0.30" arrival="57865.00" arrivalLane="-653473569#5_1" arrivalPos="73.05" arrivalSpeed="14.31" duration="252.00" routeLength="256.07" waitingTime="218.00" waitingCount="2" stopTime="0.00" timeLoss="233.55" rerouteNo="1" devices="tripinfo_carIn28951:1 routing_carIn28951:1" vType="default_016" speedFactor="1.04" vaporized=""/>
    <tripinfo id="50R_frequency3.17" depart="57861.00" departLane="653473569#5_1" departPos="12.10" departSpeed="0.00" departDelay="0.10" arrival="57890.00" arrivalLane="124812857#0_1" arrivalPos="143.49" arrivalSpeed="13.75" duration="29.00" routeLength="232.18" waitingTime="0.00" waitingCount="0" stopTime="0.00" timeLoss="10.76" rerouteNo="1" devices="tripinfo_50R_frequency3.17 routing_50R_frequency3.17" vType="bus" speedFactor="1.00" vaporized=""/>
    <tripinfo id="h18601c1:3" depart="57865.00" departLane="653473569#5_1" departPos="5.10" departSpeed="0.00" departDelay="1.90" arrival="57892.00" arrivalLane="124812857#0_1" arrivalPos="143.49" arrivalSpeed="14.37" duration="27.00" routeLength="239.18" waitingTime="0.00" waitingCount="0" stopTime="0.00" timeLoss="10.31" rerouteNo="1" devices="tripinfo_h18601c1:3 routing_h18601c1:3" vType="default_016" speedFactor="1.08" vaporized=""/>
    <tripinfo id="h6245c2:1" depart="57869.00" departLane="653473569#5_1" departPos="5.10" departSpeed="0.00" departDelay="4.50" arrival="57894.00" arrivalLane="104012170_2" arrivalPos="109.94" arrivalSpeed="12.30" duration="25.00" routeLength="250.58" waitingTime="0.00" waitingCount="0" stopTime="0.00" timeLoss="3.87" rerouteNo="1" devices="tripinfo_h6245c2:1 routing_h6245c2:1" vType="default_016" speedFactor="0.90" vaporized=""/>
    <tripinfo id="carIn75793:1" depart="57884.00" departLane="653473569#5_1" departPos="5.10" departSpeed="0.00" departDelay="0.80" arrival="57909.00" arrivalLane="104012170_2" arrivalPos="109.94" arrivalSpeed="11.77" duration="25.00" routeLength="250.58" waitingTime="0.00" waitingCount="0" stopTime="0.00" timeLoss="4.55" rerouteNo="1" devices="tripinfo_carIn75793:1 routing_carIn75793:1" vType="default_016" speedFactor="0.93" vaporized=""/>
    <tripinfo id="h19571c2:3" depart="57890.00" departLane="25149219#1_1" departPos="5.10" departSpeed="0.00" departDelay="0.60" arrival="57930.00" arrivalLane="-653473569#5_1" arrivalPos="73.05" arrivalSpeed="14.42" duration="40.00" routeLength="246.10" waitingTime="0.00" waitingCount="0" stopTime="0.00" timeLoss="6.05" rerouteNo="1" devices="tripinfo_h19571c2:3 routing_h19571c2:3" vType="default_016" speedFactor="1.04" vaporized=""/>
    <tripinfo id="h8072c1:3" depart="57926.00" departLane="653473569#5_1" departPos="5.10" departSpeed="0.00" departDelay="0.10" arrival="57949.00" arrivalLane="104012170_2" arrivalPos="109.94" arrivalSpeed="13.56" duration="23.00" routeLength="250.58" waitingTime="0.00" waitingCount="0" stopTime="0.00" timeLoss="4.35" rerouteNo="1" devices="tripinfo_h8072c1:3 routing_h8072c1:3" vType="default_016" speedFactor="1.03" vaporized=""/>
    <tripinfo id="h15937c1:3" depart="57963.00" departLane="653473569#5_1" departPos="5.10" departSpeed="0.00" departDelay="0.20" arrival="57988.00" arrivalLane="124812857#0_1" arrivalPos="143.49" arrivalSpeed="12.02" duration="25.00" routeLength="239.18" waitingTime="0.00" waitingCount="0" stopTime="0.00" timeLoss="5.17" rerouteNo="1" devices="tripinfo_h15937c1:3 routing_h15937c1:3" vType="default_016" speedFactor="0.92" vaporized=""/>
    <tripinfo id="randUni5976:1" depart="57947.00" departLane="25149219#1_1" departPos="5.10" departSpeed="0.00" departDelay="0.40" arrival="57991.00" arrivalLane="-653473569#5_1" arrivalPos="73.05" arrivalSpeed="14.53" duration="44.00" routeLength="246.10" waitingTime="3.00" waitingCount="1" stopTime="0.00" timeLoss="10.43" rerouteNo="1" devices="tripinfo_randUni5976:1 routing_randUni5976:1" vType="random_016" speedFactor="1.07" vaporized=""/>
    <tripinfo id="carIn85069:1" depart="57966.00" departLane="653473569#5_1" departPos="5.10" departSpeed="0.00" departDelay="1.70" arrival="57991.00" arrivalLane="104012170_2" arrivalPos="109.94" arrivalSpeed="12.31" duration="25.00" routeLength="250.58" waitingTime="0.00" waitingCount="0" stopTime="0.00" timeLoss="3.88" rerouteNo="1" devices="tripinfo_carIn85069:1 routing_carIn85069:1" vType="default_016" speedFactor="0.89" vaporized=""/>
    <tripinfo id="carIn84877:1" depart="57969.00" departLane="653473569#5_1" departPos="5.10" departSpeed="0.00" departDelay="0.40" arrival="57992.00" arrivalLane="124812857#0_1" arrivalPos="143.49" arrivalSpeed="14.60" duration="23.00" routeLength="239.18" waitingTime="0.00" waitingCount="0" stopTime="0.00" timeLoss="5.70" rerouteNo="1" devices="tripinfo_carIn84877:1 routing_carIn84877:1" vType="default_016" speedFactor="1.09" vaporized=""/>
    <tripinfo id="carIn9903:1" depart="57972.00" departLane="653473569#5_1" departPos="5.10" departSpeed="0.00" departDelay="0.90" arrival="57995.00" arrivalLane="104012170_2" arrivalPos="109.94" arrivalSpeed="13.39" duration="23.00" routeLength="250.58" waitingTime="0.00" waitingCount="0" stopTime="0.00" timeLoss="4.08" rerouteNo="1" devices="tripinfo_carIn9903:1 routing_carIn9903:1" vType="default_016" speedFactor="0.99" vaporized=""/>
    <tripinfo id="carIn56192:1" depart="57981.00" departLane="653473569#5_1" departPos="5.10" departSpeed="0.00" departDelay="0.60" arrival="58005.00" arrivalLane="104012170_2" arrivalPos="109.94" arrivalSpeed="12.09" duration="24.00" routeLength="250.58" waitingTime="0.00" waitingCount="0" stopTime="0.00" timeLoss="3.54" rerouteNo="1" devices="tripinfo_carIn56192:1 routing_carIn56192:1" vType="default_016" speedFactor="0.94" vaporized=""/>
    <tripinfo id="carIn114414:1" depart="57983.00" departLane="653473569#5_1" departPos="5.10" departSpeed="0.00" departDelay="1.00" arrival="58006.00" arrivalLane="104012170_2" arrivalPos="109.94" arrivalSpeed="12.75" duration="23.00" routeLength="250.58" waitingTime="0.00" waitingCount="0" stopTime="0.00" timeLoss="4.31" rerouteNo="1" devices="tripinfo_carIn114414:1 routing_carIn114414:1" vType="default_016" speedFactor="0.99" vaporized=""/>
    <tripinfo id="h14212c1:3" depart="57970.00" departLane="25149219#1_1" departPos="5.10" departSpeed="0.00" departDelay="0.00" arrival="58009.00" arrivalLane="-653473569#5_1" arrivalPos="73.05" arrivalSpeed="15.19" duration="39.00" routeLength="246.10" waitingTime="0.00" waitingCount="0" stopTime="0.00" timeLoss="6.00" rerouteNo="1" devices="tripinfo_h14212c1:3 routing_h14212c1:3" vType="default_016" speedFactor="1.10" vaporized=""/>
    <tripinfo id="h19940c1:1" depart="57973.00" departLane="25149219#1_1" departPos="5.10" departSpeed="0.00" departDelay="0.30" arrival="58011.00" arrivalLane="-653473569#5_1" arrivalPos="73.05" arrivalSpeed="15.77" duration="38.00" routeLength="246.10" waitingTime="0.00" waitingCount="0" stopTime="0.00" timeLoss="6.25" rerouteNo="1" devices="tripinfo_h19940c1:1 routing_h19940c1:1" vType="default_016" speedFactor="1.14" vaporized=""/>
    <tripinfo id="carIn46350:1" depart="57630.00" departLane="201963537#1_1" departPos="5.10" departSpeed="0.00" departDelay="6.80" arrival="58024.00" arrivalLane="-653473569#5_1" arrivalPos="73.05" arrivalSpeed="12.65" duration="394.00" routeLength="256.07" waitingTime="361.00" waitingCount="2" stopTime="0.00" timeLoss="374.06" rerouteNo="1" devices="tripinfo_carIn46350:1 routing_carIn46350:1" vType="default_016" speedFactor="0.96" vaporized=""/>
    <tripinfo id="carIn75667:1" depart="57635.00" departLane="201963537#1_1" departPos="5.10" departSpeed="0.00" departDelay="10.40" arrival="58026.00" arrivalLane="-653473569#5_1" arrivalPos="73.05" arrivalSpeed="14.91" duration="391.00" routeLength="256.07" waitingTime="355.00" waitingCount="2" stopTime="0.00" timeLoss="372.85" rerouteNo="1" devices="tripinfo_carIn75667:1 routing_carIn75667:1" vType="default_016" speedFactor="1.08" vaporized=""/>
    <tripinfo id="carIn27195:1" depart="57647.00" departLane="201963537#1_1" departPos="5.10" departSpeed="0.00" departDelay="18.90" arrival="58028.00" arrivalLane="104012170_1" arrivalPos="109.94" arrivalSpeed="11.87" duration="381.00" routeLength="293.69" waitingTime="342.00" waitingCount="2" stopTime="0.00" timeLoss="358.05" rerouteNo="1" devices="tripinfo_carIn27195:1 routing_carIn27195:1" vType="default_016" speedFactor="0.94" vaporized=""/>
    <tripinfo id="carIn96537:1" depart="57653.00" departLane="201963537#1_1" departPos="5.10" departSpeed="0.00" departDelay="22.30" arrival="58028.00" arrivalLane="104012170_2" arrivalPos="109.94" arrivalSpeed="11.54" duration="375.00" routeLength="293.69" waitingTime="336.00" waitingCount="2" stopTime="0.00" timeLoss="351.16" rerouteNo="1" devices="tripinfo_carIn96537:1 routing_carIn96537:1" vType="default_016" speedFactor="0.90" vaporized=""/>
    <tripinfo id="carIn76112:1" depart="57640.00" departLane="201963537#1_1" departPos="5.10" departSpeed="0.00" departDelay="14.00" arrival="58030.00" arrivalLane="-653473569#5_1" arrivalPos="73.05" arrivalSpeed="11.89" duration="390.00" routeLength="256.07" waitingTime="350.00" waitingCount="2" stopTime="0.00" timeLoss="369.56" rerouteNo="1" devices="tripinfo_carIn76112:1 routing_carIn76112:1" vType="default_016" speedFactor="0.94" vaporized=""/>
    <tripinfo id="carIn51024:1" depart="57662.00" departLane="201963537#1_1" departPos="5.10" departSpeed="0.00" departDelay="28.00" arrival="58030.00" arrivalLane="104012170_2" arrivalPos="109.94" arrivalSpeed="13.70" duration="368.00" routeLength="293.69" waitingTime="329.00" waitingCount="2" stopTime="0.00" timeLoss="346.53" rerouteNo="1" devices="tripinfo_carIn51024:1 routing_carIn51024:1" vType="default_016" speedFactor="1.02" vaporized=""/>
    <tripinfo id="carIn26410:1" depart="57658.00" departLane="201963537#1_1" departPos="5.10" departSpeed="0.00" departDelay="25.70" arrival="58031.00" arrivalLane="104012170_1" arrivalPos="109.94" arrivalSpeed="11.93" duration="373.00" routeLength="293.69" waitingTime="332.00" waitingCount="2" stopTime="0.00" timeLoss="347.76" rerouteNo="1" devices="tripinfo_carIn26410:1 routing_carIn26410:1" vType="default_016" speedFactor="0.86" vaporized=""/>
    <tripinfo id="carIn60827:1" depart="57976.00" departLane="25149219#1_1" departPos="5.10" departSpeed="0.00" departDelay="0.70" arrival="58040.00" arrivalLane="-653473569#5_1" arrivalPos="73.05" arrivalSpeed="11.74" duration="64.00" routeLength="246.10" waitingTime="12.00" waitingCount="1" stopTime="0.00" timeLoss="21.39" rerouteNo="1" devices="tripinfo_carIn60827:1 routing_carIn60827:1" vType="default_016" speedFactor="0.85" vaporized=""/>
    <tripinfo id="h1498c1:1" depart="58019.00" departLane="653473569#5_1" departPos="5.10" departSpeed="0.00" departDelay="0.60" arrival="58043.00" arrivalLane="124812857#0_1" arrivalPos="143.49" arrivalSpeed="12.53" duration="24.00" routeLength="239.18" waitingTime="0.00" waitingCount="0" stopTime="0.00" timeLoss="5.66" rerouteNo="1" devices="tripinfo_h1498c1:1 routing_h1498c1:1" vType="default_016" speedFactor="0.97" vaporized=""/>
    <tripinfo id="h15631c1:1" depart="57979.00" departLane="25149219#1_1" departPos="5.10" departSpeed="0.00" departDelay="1.10" arrival="58044.00" arrivalLane="-653473569#5_1" arrivalPos="73.05" arrivalSpeed="13.66" duration="65.00" routeLength="246.10" waitingTime="9.00" waitingCount="1" stopTime="0.00" timeLoss="28.44" rerouteNo="1" devices="tripinfo_h15631c1:1 routing_h15631c1:1" vType="default_016" speedFactor="0.99" vaporized=""/>
    <tripinfo id="carIn84735:1" depart="57983.00" departLane="25149219#1_1" departPos="5.10" departSpeed="0.00" departDelay="2.50" arrival="58046.00" arrivalLane="-653473569#5_1" arrivalPos="73.05" arrivalSpeed="16.23" duration="63.00" routeLength="246.10" waitingTime="9.00" waitingCount="1" stopTime="0.00" timeLoss="32.83" rerouteNo="1" devices="tripinfo_carIn84735:1 routing_carIn84735:1" vType="default_016" speedFactor="1.21" vaporized=""/>