<?xml version="1.0" encoding="UTF-8"?>

<!-- generated on 2023-08-31 12:16:31 by Eclipse SUMO libsumo Version 1.18.0
<configuration xmlns:xsi="http://www.w3.org/2001/XMLSchema-instance" xsi:noNamespaceSchemaLocation="http://sumo.dlr.de/xsd/libsumoConfiguration.xsd">

    <input>
        <net-file value="/home/stefan/RESCO/./environments/ingolstadt1/ingolstadt1.net.xml"/>
        <route-files value="/home/stefan/RESCO/./environments/ingolstadt1/ingolstadt1.rou.xml"/>
    </input>

    <output>
        <tripinfo-output value="/home/stefan/results/RAINBOW-tr0-ingolstadt1-0-drq_norm-wait_norm/tripinfo_69.xml"/>
        <tripinfo-output.write-unfinished value="true"/>
    </output>

    <time>
        <begin value="57600"/>
        <end value="61200"/>
    </time>

    <processing>
        <time-to-teleport value="-1"/>
    </processing>

    <report>
        <no-warnings value="True"/>
        <no-step-log value="True"/>
    </report>

    <random_number>
        <random value="true"/>
    </random_number>

</configuration>
-->

<tripinfos xmlns:xsi="http://www.w3.org/2001/XMLSchema-instance" xsi:noNamespaceSchemaLocation="http://sumo.dlr.de/xsd/tripinfo_file.xsd">
    <tripinfo id="carIn105842:1" depart="57601.00" departLane="653473569#5_1" departPos="5.10" departSpeed="0.00" departDelay="0.80" arrival="57625.00" arrivalLane="124812857#0_1" arrivalPos="143.49" arrivalSpeed="13.55" duration="24.00" routeLength="239.18" waitingTime="0.00" waitingCount="0" stopTime="0.00" timeLoss="6.39" rerouteNo="1" devices="tripinfo_carIn105842:1 routing_carIn105842:1" vType="default_016" speedFactor="1.03" vaporized=""/>
    <tripinfo id="carIn28488:1" depart="57611.00" departLane="653473569#5_1" departPos="5.10" departSpeed="0.00" departDelay="0.80" arrival="57640.00" arrivalLane="124812857#0_1" arrivalPos="143.49" arrivalSpeed="10.59" duration="29.00" routeLength="239.18" waitingTime="0.00" waitingCount="0" stopTime="0.00" timeLoss="5.56" rerouteNo="1" devices="tripinfo_carIn28488:1 routing_carIn28488:1" vType="default_016" speedFactor="0.77" vaporized=""/>
    <tripinfo id="carIn106322:1" depart="57614.00" departLane="653473569#5_1" departPos="5.10" departSpeed="0.00" departDelay="2.20" arrival="57642.00" arrivalLane="124812857#0_1" arrivalPos="143.49" arrivalSpeed="11.54" duration="28.00" routeLength="239.18" waitingTime="0.00" waitingCount="0" stopTime="0.00" timeLoss="6.12" rerouteNo="1" devices="tripinfo_carIn106322:1 routing_carIn106322:1" vType="default_016" speedFactor="0.85" vaporized=""/>
    <tripinfo id="carIn5482:1" depart="57617.00" departLane="653473569#5_1" departPos="5.10" departSpeed="0.00" departDelay="3.60" arrival="57644.00" arrivalLane="124812857#0_1" arrivalPos="143.49" arrivalSpeed="14.29" duration="27.00" routeLength="239.18" waitingTime="0.00" waitingCount="0" stopTime="0.00" timeLoss="9.91" rerouteNo="1" devices="tripinfo_carIn5482:1 routing_carIn5482:1" vType="default_016" speedFactor="1.09" vaporized=""/>
    <tripinfo id="carIn36103:1" depart="57620.00" departLane="653473569#5_1" departPos="5.10" departSpeed="0.00" departDelay="4.00" arrival="57646.00" arrivalLane="124812857#0_1" arrivalPos="143.49" arrivalSpeed="12.24" duration="26.00" routeLength="239.18" waitingTime="0.00" waitingCount="0" stopTime="0.00" timeLoss="7.03" rerouteNo="1" devices="tripinfo_carIn36103:1 routing_carIn36103:1" vType="default_016" speedFactor="0.96" vaporized=""/>
    <tripinfo id="carIn102997:1" depart="57623.00" departLane="653473569#5_1" departPos="5.10" departSpeed="0.00" departDelay="4.80" arrival="57648.00" arrivalLane="124812857#0_1" arrivalPos="143.49" arrivalSpeed="15.97" duration="25.00" routeLength="239.18" waitingTime="0.00" waitingCount="0" stopTime="0.00" timeLoss="8.94" rerouteNo="1" devices="tripinfo_carIn102997:1 routing_carIn102997:1" vType="default_016" speedFactor="1.15" vaporized=""/>
    <tripinfo id="carIn75554:1" depart="57626.00" departLane="653473569#5_1" departPos="5.10" departSpeed="0.00" departDelay="5.20" arrival="57652.00" arrivalLane="124812857#0_1" arrivalPos="143.49" arrivalSpeed="11.93" duration="26.00" routeLength="239.18" waitingTime="0.00" waitingCount="0" stopTime="0.00" timeLoss="6.51" rerouteNo="1" devices="tripinfo_carIn75554:1 routing_carIn75554:1" vType="default_016" speedFactor="0.93" vaporized=""/>
    <tripinfo id="randUni20090:1" depart="57629.00" departLane="653473569#5_1" departPos="5.10" departSpeed="0.00" departDelay="1.00" arrival="57655.00" arrivalLane="124812857#0_1" arrivalPos="143.49" arrivalSpeed="13.32" duration="26.00" routeLength="239.18" waitingTime="0.00" waitingCount="0" stopTime="0.00" timeLoss="7.60" rerouteNo="1" devices="tripinfo_randUni20090:1 routing_randUni20090:1" vType="random_016" speedFactor="0.96" vaporized=""/>
    <tripinfo id="carIn37268:1" depart="57636.00" departLane="653473569#5_1" departPos="5.10" departSpeed="0.00" departDelay="0.90" arrival="57659.00" arrivalLane="124812857#0_1" arrivalPos="143.49" arrivalSpeed="13.95" duration="23.00" routeLength="239.18" waitingTime="0.00" waitingCount="0" stopTime="0.00" timeLoss="6.21" rerouteNo="1" devices="tripinfo_carIn37268:1 routing_carIn37268:1" vType="default_016" speedFactor="1.06" vaporized=""/>
    <tripinfo id="carIn129760:1" depart="57661.00" departLane="653473569#5_1" departPos="5.10" departSpeed="0.00" departDelay="0.80" arrival="57687.00" arrivalLane="124812857#0_1" arrivalPos="143.49" arrivalSpeed="10.82" duration="26.00" routeLength="239.18" waitingTime="0.00" waitingCount="0" stopTime="0.00" timeLoss="5.10" rerouteNo="1" devices="tripinfo_carIn129760:1 routing_carIn129760:1" vType="default_016" speedFactor="0.86" vaporized=""/>
    <tripinfo id="carIn129626:1" depart="57664.00" departLane="653473569#5_1" departPos="5.10" departSpeed="0.00" departDelay="1.60" arrival="57689.00" arrivalLane="124812857#0_1" arrivalPos="143.49" arrivalSpeed="12.72" duration="25.00" routeLength="239.18" waitingTime="0.00" waitingCount="0" stopTime="0.00" timeLoss="7.16" rerouteNo="1" devices="tripinfo_carIn129626:1 routing_carIn129626:1" vType="default_016" speedFactor="0.99" vaporized=""/>
    <tripinfo id="h20539c1:3" depart="57667.00" departLane="653473569#5_1" departPos="5.10" departSpeed="0.00" departDelay="2.20" arrival="57692.00" arrivalLane="124812857#0_1" arrivalPos="143.49" arrivalSpeed="12.77" duration="25.00" routeLength="239.18" waitingTime="0.00" waitingCount="0" stopTime="0.00" timeLoss="5.95" rerouteNo="1" devices="tripinfo_h20539c1:3 routing_h20539c1:3" vType="default_016" speedFactor="0.98" vaporized=""/>
    <tripinfo id="carIn91254:1" depart="57696.00" departLane="653473569#5_1" departPos="5.10" departSpeed="0.00" departDelay="0.10" arrival="57721.00" arrivalLane="124812857#0_1" arrivalPos="143.49" arrivalSpeed="12.37" duration="25.00" routeLength="239.18" waitingTime="0.00" waitingCount="0" stopTime="0.00" timeLoss="5.37" rerouteNo="1" devices="tripinfo_carIn91254:1 routing_carIn91254:1" vType="default_016" speedFactor="0.93" vaporized=""/>
    <tripinfo id="h8750c1:1" depart="57609.00" departLane="104010354_1" departPos="5.10" departSpeed="0.00" departDelay="0.50" arrival="57728.00" arrivalLane="124812857#0_2" arrivalPos="143.49" arrivalSpeed="13.99" duration="119.00" routeLength="211.78" waitingTime="94.00" waitingCount="1" stopTime="0.00" timeLoss="103.26" rerouteNo="0" devices="tripinfo_h8750c1:1 routing_h8750c1:1" vType="default_016" speedFactor="1.03" vaporized=""/>
    <tripinfo id="carIn26332:1" depart="57621.00" departLane="201963537#1_1" departPos="5.10" departSpeed="0.00" departDelay="0.00" arrival="57728.00" arrivalLane="104012170_1" arrivalPos="109.94" arrivalSpeed="13.36" duration="107.00" routeLength="293.69" waitingTime="75.00" waitingCount="1" stopTime="0.00" timeLoss="84.65" rerouteNo="1" devices="tripinfo_carIn26332:1 routing_carIn26332:1" vType="default_015" speedFactor="0.97" vaporized=""/>
    <tripinfo id="carIn115534:1" depart="57624.00" departLane="201963537#1_1" departPos="5.10" departSpeed="0.00" departDelay="2.60" arrival="57728.00" arrivalLane="104012170_2" arrivalPos="109.94" arrivalSpeed="13.84" duration="104.00" routeLength="293.69" waitingTime="71.00" waitingCount="1" stopTime="0.00" timeLoss="82.22" rerouteNo="1" devices="tripinfo_carIn115534:1 routing_carIn115534:1" vType="default_015" speedFactor="1.01" vaporized=""/>
    <tripinfo id="carIn119141:1" depart="57631.00" departLane="201963537#1_1" departPos="5.10" departSpeed="0.00" departDelay="7.70" arrival="57729.00" arrivalLane="104012170_2" arrivalPos="109.94" arrivalSpeed="15.15" duration="98.00" routeLength="293.69" waitingTime="66.00" waitingCount="1" stopTime="0.00" timeLoss="78.73" rerouteNo="1" devices="tripinfo_carIn119141:1 routing_carIn119141:1" vType="default_015" speedFactor="1.11" vaporized=""/>
    <tripinfo id="carIn13117:1" depart="57638.00" departLane="104010354_1" departPos="5.10" departSpeed="0.00" departDelay="1.40" arrival="57729.00" arrivalLane="124812857#0_2" arrivalPos="143.49" arrivalSpeed="13.23" duration="91.00" routeLength="211.78" waitingTime="67.00" waitingCount="1" stopTime="0.00" timeLoss="75.76" rerouteNo="0" devices="tripinfo_carIn13117:1 routing_carIn13117:1" vType="default_016" speedFactor="1.01" vaporized=""/>
    <tripinfo id="h15808c1:1" depart="57627.00" departLane="201963537#1_1" departPos="5.10" departSpeed="0.00" departDelay="5.40" arrival="57730.00" arrivalLane="104012170_1" arrivalPos="109.94" arrivalSpeed="12.09" duration="103.00" routeLength="293.69" waitingTime="70.00" waitingCount="1" stopTime="0.00" timeLoss="79.53" rerouteNo="1" devices="tripinfo_h15808c1:1 routing_h15808c1:1" vType="default_016" speedFactor="0.93" vaporized=""/>
    <tripinfo id="carIn119185:1" depart="57636.00" departLane="201963537#1_1" departPos="5.10" departSpeed="0.00" departDelay="10.80" arrival="57731.00" arrivalLane="104012170_1" arrivalPos="109.94" arrivalSpeed="16.00" duration="95.00" routeLength="293.69" waitingTime="63.00" waitingCount="1" stopTime="0.00" timeLoss="77.68" rerouteNo="1" devices="tripinfo_carIn119185:1 routing_carIn119185:1" vType="default_015" speedFactor="1.24" vaporized=""/>
    <tripinfo id="carIn79970:1" depart="57640.00" departLane="201963537#1_1" departPos="5.10" departSpeed="0.00" departDelay="13.20" arrival="57731.00" arrivalLane="104012170_2" arrivalPos="109.94" arrivalSpeed="14.24" duration="91.00" routeLength="293.69" waitingTime="59.00" waitingCount="1" stopTime="0.00" timeLoss="70.10" rerouteNo="1" devices="tripinfo_carIn79970:1 routing_carIn79970:1" vType="default_016" speedFactor="1.03" vaporized=""/>
    <tripinfo id="randUni27349:1" depart="57646.00" departLane="104010354_1" departPos="5.10" departSpeed="0.00" departDelay="0.90" arrival="57731.00" arrivalLane="124812857#0_2" arrivalPos="143.49" arrivalSpeed="14.29" duration="85.00" routeLength="211.78" waitingTime="60.00" waitingCount="1" stopTime="0.00" timeLoss="70.01" rerouteNo="0" devices="tripinfo_randUni27349:1 routing_randUni27349:1" vType="random_016" speedFactor="1.05" vaporized=""/>
    <tripinfo id="60R.41" depart="57634.00" departLane="104010354_1" departPos="12.10" departSpeed="0.00" departDelay="0.50" arrival="57732.00" arrivalLane="124812857#0_2" arrivalPos="143.49" arrivalSpeed="13.78" duration="98.00" routeLength="204.78" waitingTime="67.00" waitingCount="1" stopTime="0.00" timeLoss="82.64" rerouteNo="0" devices="tripinfo_60R.41 routing_60R.41" vType="bus" speedFactor="1.00" vaporized=""/>
    <tripinfo id="carIn21562:1" depart="57611.00" departLane="201963537#1_1" departPos="5.10" departSpeed="0.00" departDelay="0.20" arrival="57734.00" arrivalLane="-653473569#5_1" arrivalPos="73.05" arrivalSpeed="15.31" duration="123.00" routeLength="256.07" waitingTime="90.00" waitingCount="2" stopTime="0.00" timeLoss="105.12" rerouteNo="1" devices="tripinfo_carIn21562:1 routing_carIn21562:1" vType="default_016" speedFactor="1.12" vaporized=""/>
    <tripinfo id="carIn28951:1" depart="57613.00" departLane="201963537#1_1" departPos="5.10" departSpeed="0.00" departDelay="0.30" arrival="57735.00" arrivalLane="-653473569#5_1" arrivalPos="73.05" arrivalSpeed="14.64" duration="122.00" routeLength="256.07" waitingTime="88.00" waitingCount="2" stopTime="0.00" timeLoss="104.90" rerouteNo="1" devices="tripinfo_carIn28951:1 routing_carIn28951:1" vType="default_016" speedFactor="1.13" vaporized=""/>
    <tripinfo id="carIn20106:1" depart="57641.00" departLane="104010354_1" departPos="5.10" departSpeed="0.00" departDelay="1.50" arrival="57735.00" arrivalLane="124812857#0_3" arrivalPos="143.49" arrivalSpeed="12.55" duration="94.00" routeLength="211.78" waitingTime="63.00" waitingCount="1" stopTime="0.00" timeLoss="76.68" rerouteNo="0" devices="tripinfo_carIn20106:1 routing_carIn20106:1" vType="default_016" speedFactor="0.91" vaporized=""/>
    <tripinfo id="carIn70484:1" depart="57724.00" departLane="653473569#5_1" departPos="5.10" departSpeed="0.00" departDelay="0.60" arrival="57750.00" arrivalLane="104012170_2" arrivalPos="109.94" arrivalSpeed="10.64" duration="26.00" routeLength="250.58" waitingTime="0.00" waitingCount="0" stopTime="0.00" timeLoss="4.09" rerouteNo="1" devices="tripinfo_carIn70484:1 routing_carIn70484:1" vType="default_016" speedFactor="0.85" vaporized=""/>
    <tripinfo id="carIn106797:1" depart="57726.00" departLane="653473569#5_1" departPos="5.10" departSpeed="0.00" departDelay="1.00" arrival="57751.00" arrivalLane="124812857#0_1" arrivalPos="143.49" arrivalSpeed="12.31" duration="25.00" routeLength="239.18" waitingTime="0.00" waitingCount="0" stopTime="0.00" timeLoss="5.16" rerouteNo="1" devices="tripinfo_carIn106797:1 routing_carIn106797:1" vType="default_016" speedFactor="0.93" vaporized=""/>
    <tripinfo id="carIn26708:1" depart="57729.00" departLane="653473569#5_1" departPos="5.10" departSpeed="0.00" departDelay="2.40" arrival="57752.00" arrivalLane="124812857#0_1" arrivalPos="143.49" arrivalSpeed="14.32" duration="23.00" routeLength="239.18" waitingTime="0.00" waitingCount="0" stopTime="0.00" timeLoss="6.53" rerouteNo="1" devices="tripinfo_carIn26708:1 routing_carIn26708:1" vType="default_016" speedFactor="1.08" vaporized=""/>
    <tripinfo id="carIn48988:1" depart="57732.00" departLane="653473569#5_1" departPos="5.10" departSpeed="0.00" departDelay="3.90" arrival="57754.00" arrivalLane="104012170_2" arrivalPos="109.94" arrivalSpeed="14.21" duration="22.00" routeLength="250.58" waitingTime="0.00" waitingCount="0" stopTime="0.00" timeLoss="4.14" rerouteNo="1" devices="tripinfo_carIn48988:1 routing_carIn48988:1" vType="default_016" speedFactor="1.07" vaporized=""/>
    <tripinfo id="carIn34550:1" depart="57734.00" departLane="653473569#5_1" departPos="5.10" departSpeed="0.00" departDelay="3.60" arrival="57756.00" arrivalLane="124812857#0_1" arrivalPos="143.49" arrivalSpeed="15.46" duration="22.00" routeLength="239.18" waitingTime="0.00" waitingCount="0" stopTime="0.00" timeLoss="6.53" rerouteNo="1" devices="tripinfo_carIn34550:1 routing_carIn34550:1" vType="default_016" speedFactor="1.16" vaporized=""/>
    <tripinfo id="carIn41791:1" depart="57737.00" departLane="653473569#5_1" departPos="5.10" departSpeed="0.00" departDelay="4.80" arrival="57762.00" arrivalLane="124812857#0_1" arrivalPos="143.49" arrivalSpeed="12.87" duration="25.00" routeLength="239.18" waitingTime="0.00" waitingCount="0" stopTime="0.00" timeLoss="5.54" rerouteNo="1" devices="tripinfo_carIn41791:1 routing_carIn41791:1" vType="default_016" speedFactor="0.95" vaporized=""/>
    <tripinfo id="carIn13016:1" depart="57740.00" departLane="653473569#5_1" departPos="5.10" departSpeed="0.00" departDelay="4.50" arrival="57767.00" arrivalLane="124812857#0_1" arrivalPos="143.49" arrivalSpeed="11.02" duration="27.00" routeLength="239.18" waitingTime="0.00" waitingCount="0" stopTime="0.00" timeLoss="5.02" rerouteNo="1" devices="tripinfo_carIn13016:1 routing_carIn13016:1" vType="default_016" speedFactor="0.85" vaporized=""/>
    <tripinfo id="carIn70477:1" depart="57743.00" departLane="653473569#5_1" departPos="5.10" departSpeed="0.00" departDelay="5.20" arrival="57768.00" arrivalLane="124812857#0_1" arrivalPos="143.49" arrivalSpeed="13.89" duration="25.00" routeLength="239.18" waitingTime="0.00" waitingCount="0" stopTime="0.00" timeLoss="7.83" rerouteNo="1" devices="tripinfo_carIn70477:1 routing_carIn70477:1" vType="default_016" speedFactor="1.07" vaporized=""/>
    <tripinfo id="randUni26227:1" depart="57746.00" departLane="653473569#5_1" departPos="5.10" departSpeed="0.00" departDelay="5.50" arrival="57771.00" arrivalLane="124812857#0_1" arrivalPos="143.49" arrivalSpeed="12.04" duration="25.00" routeLength="239.18" waitingTime="0.00" waitingCount="0" stopTime="0.00" timeLoss="5.51" rerouteNo="1" devices="tripinfo_randUni26227:1 routing_randUni26227:1" vType="random_016" speedFactor="0.95" vaporized=""/>
    <tripinfo id="carIn86816:1" depart="57769.00" departLane="653473569#5_1" departPos="5.10" departSpeed="0.00" departDelay="0.70" arrival="57793.00" arrivalLane="124812857#0_1" arrivalPos="143.49" arrivalSpeed="13.19" duration="24.00" routeLength="239.18" waitingTime="0.00" waitingCount="0" stopTime="0.00" timeLoss="5.54" rerouteNo="1" devices="tripinfo_carIn86816:1 routing_carIn86816:1" vType="default_016" speedFactor="0.99" vaporized=""/>
    <tripinfo id="carIn102915:1" depart="57811.00" departLane="653473569#5_1" departPos="5.10" departSpeed="0.00" departDelay="0.90" arrival="57836.00" arrivalLane="124812857#0_1" arrivalPos="143.49" arrivalSpeed="13.21" duration="25.00" routeLength="239.18" waitingTime="0.00" waitingCount="0" stopTime="0.00" timeLoss="6.24" rerouteNo="1" devices="tripinfo_carIn102915:1 routing_carIn102915:1" vType="default_016" speedFactor="1.01" vaporized=""/>
    <tripinfo id="randUni33724:1" depart="57814.00" departLane="653473569#5_1" departPos="5.10" departSpeed="0.00" departDelay="2.20" arrival="57838.00" arrivalLane="124812857#0_1" arrivalPos="143.49" arrivalSpeed="14.35" duration="24.00" routeLength="239.18" waitingTime="0.00" waitingCount="0" stopTime="0.00" timeLoss="6.41" rerouteNo="1" devices="tripinfo_randUni33724:1 routing_randUni33724:1" vType="random_016" speedFactor="1.05" vaporized=""/>
    <tripinfo id="carIn36018:1" depart="57667.00" departLane="104010354_1" departPos="5.10" departSpeed="0.00" departDelay="0.40" arrival="57855.00" arrivalLane="-653473569#5_1" arrivalPos="73.05" arrivalSpeed="14.56" duration="188.00" routeLength="153.51" waitingTime="162.00" waitingCount="2" stopTime="0.00" timeLoss="176.59" rerouteNo="1" devices="tripinfo_carIn36018:1 routing_carIn36018:1" vType="default_016" speedFactor="1.08" vaporized=""/>
    <tripinfo id="h20403c1:5" depart="57649.00" departLane="104010354_1" departPos="5.10" departSpeed="0.00" departDelay="2.40" arrival="57856.00" arrivalLane="124812857#0_3" arrivalPos="143.49" arrivalSpeed="16.59" duration="207.00" routeLength="211.78" waitingTime="177.00" waitingCount="2" stopTime="0.00" timeLoss="193.68" rerouteNo="0" devices="tripinfo_h20403c1:5 routing_h20403c1:5" vType="default_016" speedFactor="1.20" vaporized=""/>
    <tripinfo id="carIn27195:1" depart="57645.00" departLane="201963537#1_1" departPos="5.10" departSpeed="0.00" departDelay="16.90" arrival="57857.00" arrivalLane="104012170_1" arrivalPos="109.94" arrivalSpeed="13.30" duration="212.00" routeLength="293.69" waitingTime="174.00" waitingCount="2" stopTime="0.00" timeLoss="190.65" rerouteNo="1" devices="tripinfo_carIn27195:1 routing_carIn27195:1" vType="default_016" speedFactor="1.01" vaporized=""/>
    <tripinfo id="carIn96537:1" depart="57650.00" departLane="201963537#1_1" departPos="5.10" departSpeed="0.00" departDelay="19.30" arrival="57858.00" arrivalLane="104012170_1" arrivalPos="109.94" arrivalSpeed="12.19" duration="208.00" routeLength="293.69" waitingTime="168.00" waitingCount="2" stopTime="0.00" timeLoss="183.92" rerouteNo="1" devices="tripinfo_carIn96537:1 routing_carIn96537:1" vType="default_016" speedFactor="0.88" vaporized=""/>
    <tripinfo id="carIn73466:1" depart="57652.00" departLane="104010354_1" departPos="5.10" departSpeed="0.00" departDelay="3.70" arrival="57858.00" arrivalLane="124812857#0_2" arrivalPos="143.49" arrivalSpeed="12.40" duration="206.00" routeLength="211.78" waitingTime="176.00" waitingCount="2" stopTime="0.00" timeLoss="189.05" rerouteNo="0" devices="tripinfo_carIn73466:1 routing_carIn73466:1" vType="default_016" speedFactor="0.91" vaporized=""/>
    <tripinfo id="h2215c1:1" depart="57670.00" departLane="104010354_1" departPos="5.10" departSpeed="0.00" departDelay="0.10" arrival="57859.00" arrivalLane="124812857#0_3" arrivalPos="143.49" arrivalSpeed="13.92" duration="189.00" routeLength="211.78" waitingTime="156.00" waitingCount="2" stopTime="0.00" timeLoss="173.96" rerouteNo="0" devices="tripinfo_h2215c1:1 routing_h2215c1:1" vType="default_016" speedFactor="1.03" vaporized=""/>
    <tripinfo id="carIn26410:1" depart="57654.00" departLane="201963537#1_1" departPos="5.10" departSpeed="0.00" departDelay="21.70" arrival="57860.00" arrivalLane="104012170_1" arrivalPos="109.94" arrivalSpeed="11.97" duration="206.00" routeLength="293.69" waitingTime="166.00" waitingCount="2" stopTime="0.00" timeLoss="182.26" rerouteNo="1" devices="tripinfo_carIn26410:1 routing_carIn26410:1" vType="default_016" speedFactor="0.89" vaporized=""/>
    <tripinfo id="carIn51024:1" depart="57658.00" departLane="201963537#1_1" departPos="5.10" departSpeed="0.00" departDelay="24.00" arrival="57860.00" arrivalLane="104012170_2" arrivalPos="109.94" arrivalSpeed="11.45" duration="202.00" routeLength="293.69" waitingTime="161.00" waitingCount="2" stopTime="0.00" timeLoss="177.21" rerouteNo="1" devices="tripinfo_carIn51024:1 routing_carIn51024:1" vType="default_016" speedFactor="0.86" vaporized=""/>
    <tripinfo id="carIn102740:1" depart="57676.00" departLane="104010354_1" departPos="5.10" departSpeed="0.00" departDelay="0.50" arrival="57860.00" arrivalLane="124812857#0_2" arrivalPos="143.49" arrivalSpeed="14.56" duration="184.00" routeLength="211.78" waitingTime="155.00" waitingCount="2" stopTime="0.00" timeLoss="169.55" rerouteNo="0" devices="tripinfo_carIn102740:1 routing_carIn102740:1" vType="default_016" speedFactor="1.06" vaporized=""/>
    <tripinfo id="carIn35345:1" depart="57679.00" departLane="104010354_1" departPos="5.10" departSpeed="0.00" departDelay="1.10" arrival="57861.00" arrivalLane="124812857#0_3" arrivalPos="143.49" arrivalSpeed="13.28" duration="182.00" routeLength="211.78" waitingTime="149.00" waitingCount="2" stopTime="0.00" timeLoss="167.04" rerouteNo="0" devices="tripinfo_carIn35345:1 routing_carIn35345:1" vType="default_016" speedFactor="1.05" vaporized=""/>
    <tripinfo id="carIn46350:1" depart="57630.00" departLane="201963537#1_1" departPos="5.10" departSpeed="0.00" departDelay="6.80" arrival="57862.00" arrivalLane="-653473569#5_1" arrivalPos="73.05" arrivalSpeed="12.63" duration="232.00" routeLength="256.07" waitingTime="191.00" waitingCount="3" stopTime="0.00" timeLoss="210.65" rerouteNo="1" devices="tripinfo_carIn46350:1 routing_carIn46350:1" vType="default_016" speedFactor="0.91" vaporized=""/>
    <tripinfo id="carIn128705:1" depart="57662.00" departLane="201963537#1_1" departPos="5.10" departSpeed="0.00" departDelay="26.30" arrival="57862.00" arrivalLane="104012170_1" arrivalPos="109.94" arrivalSpeed="14.52" duration="200.00" routeLength="293.69" waitingTime="159.00" waitingCount="2" stopTime="0.00" timeLoss="179.57" rerouteNo="1" devices="tripinfo_carIn128705:1 routing_carIn128705:1" vType="default_016" speedFactor="1.06" vaporized=""/>
    <tripinfo id="h21989c1:1" depart="57666.00" departLane="201963537#1_1" departPos="5.10" departSpeed="0.00" departDelay="28.70" arrival="57862.00" arrivalLane="104012170_2" arrivalPos="109.94" arrivalSpeed="14.14" duration="196.00" routeLength="293.69" waitingTime="157.00" waitingCount="2" stopTime="0.00" timeLoss="175.36" rerouteNo="1" devices="tripinfo_h21989c1:1 routing_h21989c1:1" vType="default_016" speedFactor="1.05" vaporized=""/>
    <tripinfo id="carIn75667:1" depart="57634.00" departLane="201963537#1_1" departPos="5.10" departSpeed="0.00" departDelay="9.40" arrival="57865.00" arrivalLane="-653473569#5_1" arrivalPos="73.05" arrivalSpeed="11.16" duration="231.00" routeLength="256.07" waitingTime="188.00" waitingCount="3" stopTime="0.00" timeLoss="206.87" rerouteNo="1" devices="tripinfo_carIn75667:1 routing_carIn75667:1" vType="default_016" speedFactor="0.81" vaporized=""/>
    <tripinfo id="50R_frequency3.17" depart="57861.00" departLane="653473569#5_1" departPos="12.10" departSpeed="0.00" departDelay="0.10" arrival="57889.00" arrivalLane="124812857#0_1" arrivalPos="143.49" arrivalSpeed="13.83" duration="28.00" routeLength="232.18" waitingTime="0.00" waitingCount="0" stopTime="0.00" timeLoss="10.32" rerouteNo="1" devices="tripinfo_50R_frequency3.17 routing_50R_frequency3.17" vType="bus" speedFactor="1.00" vaporized=""/>
    <tripinfo id="h6245c2:1" depart="57868.00" departLane="653473569#5_1" departPos="5.10" departSpeed="0.00" departDelay="3.50" arrival="57890.00" arrivalLane="104012170_2" arrivalPos="109.94" arrivalSpeed="14.93" duration="22.00" routeLength="250.58" waitingTime="0.00" waitingCount="0" stopTime="0.00" timeLoss="4.99" rerouteNo="1" devices="tripinfo_h6245c2:1 routing_h6245c2:1" vType="default_016" speedFactor="1.14" vaporized=""/>
    <tripinfo id="h18601c1:3" depart="57865.00" departLane="653473569#5_1" departPos="5.10" departSpeed="0.00" departDelay="1.90" arrival="57892.00" arrivalLane="124812857#0_1" arrivalPos="143.49" arrivalSpeed="13.29" duration="27.00" routeLength="239.18" waitingTime="0.00" waitingCount="0" stopTime="0.00" timeLoss="7.41" rerouteNo="1" devices="tripinfo_h18601c1:3 routing_h18601c1:3" vType="default_016" speedFactor="0.96" vaporized=""/>
    <tripinfo id="carIn75793:1" depart="57884.00" departLane="653473569#5_1" departPos="5.10" departSpeed="0.00" departDelay="0.80" arrival="57907.00" arrivalLane="104012170_2" arrivalPos="109.94" arrivalSpeed="12.96" duration="23.00" routeLength="250.58" waitingTime="0.00" waitingCount="0" stopTime="0.00" timeLoss="4.23" rerouteNo="1" devices="tripinfo_carIn75793:1 routing_carIn75793:1" vType="default_016" speedFactor="1.02" vaporized=""/>
    <tripinfo id="h19571c2:3" depart="57890.00" departLane="25149219#1_1" departPos="5.10" departSpeed="0.00" departDelay="0.60" arrival="57932.00" arrivalLane="-653473569#5_1" arrivalPos="73.05" arrivalSpeed="13.64" duration="42.00" routeLength="246.10" waitingTime="0.00" waitingCount="0" stopTime="0.00" timeLoss="6.72" rerouteNo="1" devices="tripinfo_h19571c2:3 routing_h19571c2:3" vType="default_016" speedFactor="1.01" vaporized=""/>
    <tripinfo id="h8072c1:3" depart="57926.00" departLane="653473569#5_1" departPos="5.10" departSpeed="0.00" departDelay="0.10" arrival="57949.00" arrivalLane="104012170_2" arrivalPos="109.94" arrivalSpeed="13.41" duration="23.00" routeLength="250.58" waitingTime="0.00" waitingCount="0" stopTime="0.00" timeLoss="4.22" rerouteNo="1" devices="tripinfo_h8072c1:3 routing_h8072c1:3" vType="default_016" speedFactor="1.01" vaporized=""/>
    <tripinfo id="carIn76112:1" depart="57639.00" departLane="201963537#1_1" departPos="5.10" departSpeed="0.00" departDelay="13.00" arrival="57953.00" arrivalLane="-653473569#5_1" arrivalPos="73.05" arrivalSpeed="15.48" duration="314.00" routeLength="256.07" waitingTime="272.00" waitingCount="3" stopTime="0.00" timeLoss="298.05" rerouteNo="1" devices="tripinfo_carIn76112:1 routing_carIn76112:1" vType="default_016" speedFactor="1.19" vaporized=""/>
    <tripinfo id="h21130c2:1" depart="57696.00" departLane="201963537#1_1" departPos="5.10" departSpeed="0.00" departDelay="32.60" arrival="57957.00" arrivalLane="104012170_1" arrivalPos="109.94" arrivalSpeed="13.70" duration="261.00" routeLength="293.69" waitingTime="215.00" waitingCount="3" stopTime="0.00" timeLoss="240.61" rerouteNo="1" devices="tripinfo_h21130c2:1 routing_h21130c2:1" vType="default_016" speedFactor="1.06" vaporized=""/>
    <tripinfo id="carIn27521:1" depart="57643.00" departLane="201963537#1_1" departPos="5.10" departSpeed="0.00" departDelay="15.50" arrival="57958.00" arrivalLane="-653473569#5_1" arrivalPos="73.05" arrivalSpeed="11.66" duration="315.00" routeLength="256.07" waitingTime="268.00" waitingCount="3" stopTime="0.00" timeLoss="292.22" rerouteNo="1" devices="tripinfo_carIn27521:1 routing_carIn27521:1" vType="default_015" speedFactor="0.84" vaporized=""/>
    <tripinfo id="carIn100220:1" depart="57704.00" departLane="201963537#1_1" departPos="5.10" departSpeed="0.00" departDelay="28.70" arrival="57959.00" arrivalLane="104012170_1" arrivalPos="109.94" arrivalSpeed="14.47" duration="255.00" routeLength="293.69" waitingTime="205.00" waitingCount="3" stopTime="0.00" timeLoss="235.44" rerouteNo="1" devices="tripinfo_carIn100220:1 routing_carIn100220:1" vType="default_016" speedFactor="1.12" vaporized=""/>
    <tripinfo id="60.39" depart="57700.00" departLane="201963537#1_1" departPos="12.10" departSpeed="0.00" departDelay="31.50" arrival="57961.00" arrivalLane="104012170_1" arrivalPos="109.94" arrivalSpeed="13.66" duration="261.00" routeLength="286.69" waitingTime="211.00" waitingCount="3" stopTime="0.00" timeLoss="239.79" rerouteNo="1" devices="tripinfo_60.39 routing_60.39" vType="bus" speedFactor="1.00" vaporized=""/>
    <tripinfo id="h15937c1:3" depart="57963.00" departLane="653473569#5_1" departPos="5.10" departSpeed="0.00" departDelay="0.20" arrival="57986.00" arrivalLane="124812857#0_1" arrivalPos="143.49" arrivalSpeed="13.66" duration="23.00" routeLength="239.18" waitingTime="0.00" waitingCount="0" stopTime="0.00" timeLoss="5.45" rerouteNo="1" devices="tripinfo_h15937c1:3 routing_h15937c1:3" vType="default_016" speedFactor="1.06" vaporized=""/>