<?xml version="1.0" encoding="UTF-8"?>

<!-- generated on 2023-08-31 12:16:03 by Eclipse SUMO libsumo Version 1.18.0
<configuration xmlns:xsi="http://www.w3.org/2001/XMLSchema-instance" xsi:noNamespaceSchemaLocation="http://sumo.dlr.de/xsd/libsumoConfiguration.xsd">

    <input>
        <net-file value="/home/stefan/RESCO/./environments/ingolstadt1/ingolstadt1.net.xml"/>
        <route-files value="/home/stefan/RESCO/./environments/ingolstadt1/ingolstadt1.rou.xml"/>
    </input>

    <output>
        <tripinfo-output value="/home/stefan/results/RAINBOW-tr0-ingolstadt1-0-drq_norm-wait_norm/tripinfo_61.xml"/>
        <tripinfo-output.write-unfinished value="true"/>
    </output>

    <time>
        <begin value="57600"/>
        <end value="61200"/>
    </time>

    <processing>
        <time-to-teleport value="-1"/>
    </processing>

    <report>
        <no-warnings value="True"/>
        <no-step-log value="True"/>
    </report>

    <random_number>
        <random value="true"/>
    </random_number>

</configuration>
-->

<tripinfos xmlns:xsi="http://www.w3.org/2001/XMLSchema-instance" xsi:noNamespaceSchemaLocation="http://sumo.dlr.de/xsd/tripinfo_file.xsd">
    <tripinfo id="carIn105842:1" depart="57601.00" departLane="653473569#5_1" departPos="5.10" departSpeed="0.00" departDelay="0.80" arrival="57628.00" arrivalLane="124812857#0_1" arrivalPos="143.49" arrivalSpeed="11.10" duration="27.00" routeLength="239.18" waitingTime="0.00" waitingCount="0" stopTime="0.00" timeLoss="4.95" rerouteNo="1" devices="tripinfo_carIn105842:1 routing_carIn105842:1" vType="default_016" speedFactor="0.83" vaporized=""/>
    <tripinfo id="carIn28488:1" depart="57611.00" departLane="653473569#5_1" departPos="5.10" departSpeed="0.00" departDelay="0.80" arrival="57636.00" arrivalLane="124812857#0_1" arrivalPos="143.49" arrivalSpeed="11.96" duration="25.00" routeLength="239.18" waitingTime="0.00" waitingCount="0" stopTime="0.00" timeLoss="5.19" rerouteNo="1" devices="tripinfo_carIn28488:1 routing_carIn28488:1" vType="default_016" speedFactor="0.93" vaporized=""/>
    <tripinfo id="carIn106322:1" depart="57613.00" departLane="653473569#5_1" departPos="5.10" departSpeed="0.00" departDelay="1.20" arrival="57638.00" arrivalLane="124812857#0_1" arrivalPos="143.49" arrivalSpeed="13.49" duration="25.00" routeLength="239.18" waitingTime="0.00" waitingCount="0" stopTime="0.00" timeLoss="7.03" rerouteNo="1" devices="tripinfo_carIn106322:1 routing_carIn106322:1" vType="default_016" speedFactor="1.02" vaporized=""/>
    <tripinfo id="carIn5482:1" depart="57617.00" departLane="653473569#5_1" departPos="5.10" departSpeed="0.00" departDelay="3.60" arrival="57640.00" arrivalLane="124812857#0_1" arrivalPos="143.49" arrivalSpeed="13.91" duration="23.00" routeLength="239.18" waitingTime="0.00" waitingCount="0" stopTime="0.00" timeLoss="6.40" rerouteNo="1" devices="tripinfo_carIn5482:1 routing_carIn5482:1" vType="default_016" speedFactor="1.08" vaporized=""/>
    <tripinfo id="carIn36103:1" depart="57620.00" departLane="653473569#5_1" departPos="5.10" departSpeed="0.00" departDelay="4.00" arrival="57645.00" arrivalLane="124812857#0_1" arrivalPos="143.49" arrivalSpeed="13.20" duration="25.00" routeLength="239.18" waitingTime="0.00" waitingCount="0" stopTime="0.00" timeLoss="6.80" rerouteNo="1" devices="tripinfo_carIn36103:1 routing_carIn36103:1" vType="default_016" speedFactor="0.98" vaporized=""/>
    <tripinfo id="carIn102997:1" depart="57623.00" departLane="653473569#5_1" departPos="5.10" departSpeed="0.00" departDelay="4.80" arrival="57651.00" arrivalLane="124812857#0_1" arrivalPos="143.49" arrivalSpeed="11.41" duration="28.00" routeLength="239.18" waitingTime="0.00" waitingCount="0" stopTime="0.00" timeLoss="6.02" rerouteNo="1" devices="tripinfo_carIn102997:1 routing_carIn102997:1" vType="default_016" speedFactor="0.85" vaporized=""/>
    <tripinfo id="carIn75554:1" depart="57626.00" departLane="653473569#5_1" departPos="5.10" departSpeed="0.00" departDelay="5.20" arrival="57652.00" arrivalLane="124812857#0_1" arrivalPos="143.49" arrivalSpeed="13.50" duration="26.00" routeLength="239.18" waitingTime="0.00" waitingCount="0" stopTime="0.00" timeLoss="9.34" rerouteNo="1" devices="tripinfo_carIn75554:1 routing_carIn75554:1" vType="default_016" speedFactor="1.06" vaporized=""/>
    <tripinfo id="randUni20090:1" depart="57629.00" departLane="653473569#5_1" departPos="5.10" departSpeed="0.00" departDelay="1.00" arrival="57654.00" arrivalLane="124812857#0_1" arrivalPos="143.49" arrivalSpeed="14.95" duration="25.00" routeLength="239.18" waitingTime="0.00" waitingCount="0" stopTime="0.00" timeLoss="9.01" rerouteNo="1" devices="tripinfo_randUni20090:1 routing_randUni20090:1" vType="random_016" speedFactor="1.13" vaporized=""/>
    <tripinfo id="carIn37268:1" depart="57636.00" departLane="653473569#5_1" departPos="5.10" departSpeed="0.00" departDelay="0.90" arrival="57665.00" arrivalLane="124812857#0_1" arrivalPos="143.49" arrivalSpeed="10.19" duration="29.00" routeLength="239.18" waitingTime="0.00" waitingCount="0" stopTime="0.00" timeLoss="5.49" rerouteNo="1" devices="tripinfo_carIn37268:1 routing_carIn37268:1" vType="default_016" speedFactor="0.76" vaporized=""/>
    <tripinfo id="carIn21562:1" depart="57611.00" departLane="201963537#1_1" departPos="5.10" departSpeed="0.00" departDelay="0.20" arrival="57674.00" arrivalLane="-653473569#5_1" arrivalPos="73.05" arrivalSpeed="13.51" duration="63.00" routeLength="256.07" waitingTime="35.00" waitingCount="1" stopTime="0.00" timeLoss="44.21" rerouteNo="1" devices="tripinfo_carIn21562:1 routing_carIn21562:1" vType="default_016" speedFactor="1.03" vaporized=""/>
    <tripinfo id="carIn28951:1" depart="57613.00" departLane="201963537#1_1" departPos="5.10" departSpeed="0.00" departDelay="0.30" arrival="57676.00" arrivalLane="-653473569#5_1" arrivalPos="73.05" arrivalSpeed="14.26" duration="63.00" routeLength="256.07" waitingTime="34.00" waitingCount="1" stopTime="0.00" timeLoss="44.20" rerouteNo="1" devices="tripinfo_carIn28951:1 routing_carIn28951:1" vType="default_016" speedFactor="1.03" vaporized=""/>
    <tripinfo id="carIn115534:1" depart="57624.00" departLane="201963537#1_1" departPos="5.10" departSpeed="0.00" departDelay="2.60" arrival="57676.00" arrivalLane="104012170_1" arrivalPos="109.94" arrivalSpeed="14.98" duration="52.00" routeLength="293.69" waitingTime="24.00" waitingCount="1" stopTime="0.00" timeLoss="32.55" rerouteNo="1" devices="tripinfo_carIn115534:1 routing_carIn115534:1" vType="default_015" speedFactor="1.11" vaporized=""/>
    <tripinfo id="carIn119141:1" depart="57632.00" departLane="201963537#1_1" departPos="5.10" departSpeed="0.00" departDelay="8.70" arrival="57679.00" arrivalLane="104012170_2" arrivalPos="109.94" arrivalSpeed="13.33" duration="47.00" routeLength="293.69" waitingTime="14.00" waitingCount="1" stopTime="0.00" timeLoss="25.41" rerouteNo="1" devices="tripinfo_carIn119141:1 routing_carIn119141:1" vType="default_015" speedFactor="1.02" vaporized=""/>
    <tripinfo id="carIn26332:1" depart="57621.00" departLane="201963537#1_1" departPos="5.10" departSpeed="0.00" departDelay="0.00" arrival="57680.00" arrivalLane="104012170_1" arrivalPos="109.94" arrivalSpeed="10.24" duration="59.00" routeLength="293.69" waitingTime="21.00" waitingCount="1" stopTime="0.00" timeLoss="31.02" rerouteNo="1" devices="tripinfo_carIn26332:1 routing_carIn26332:1" vType="default_015" speedFactor="0.78" vaporized=""/>
    <tripinfo id="h15808c1:1" depart="57627.00" departLane="201963537#1_1" departPos="5.10" departSpeed="0.00" departDelay="5.40" arrival="57681.00" arrivalLane="104012170_1" arrivalPos="109.94" arrivalSpeed="11.83" duration="54.00" routeLength="293.69" waitingTime="21.00" waitingCount="1" stopTime="0.00" timeLoss="31.60" rerouteNo="1" devices="tripinfo_h15808c1:1 routing_h15808c1:1" vType="default_016" speedFactor="0.94" vaporized=""/>
    <tripinfo id="carIn119185:1" depart="57637.00" departLane="201963537#1_1" departPos="5.10" departSpeed="0.00" departDelay="11.80" arrival="57683.00" arrivalLane="104012170_1" arrivalPos="109.94" arrivalSpeed="14.52" duration="46.00" routeLength="293.69" waitingTime="14.00" waitingCount="1" stopTime="0.00" timeLoss="26.91" rerouteNo="1" devices="tripinfo_carIn119185:1 routing_carIn119185:1" vType="default_015" speedFactor="1.13" vaporized=""/>
    <tripinfo id="carIn129760:1" depart="57661.00" departLane="653473569#5_1" departPos="5.10" departSpeed="0.00" departDelay="0.80" arrival="57686.00" arrivalLane="124812857#0_1" arrivalPos="143.49" arrivalSpeed="12.21" duration="25.00" routeLength="239.18" waitingTime="0.00" waitingCount="0" stopTime="0.00" timeLoss="5.29" rerouteNo="1" devices="tripinfo_carIn129760:1 routing_carIn129760:1" vType="default_016" speedFactor="0.92" vaporized=""/>
    <tripinfo id="carIn129626:1" depart="57664.00" departLane="653473569#5_1" departPos="5.10" departSpeed="0.00" departDelay="1.60" arrival="57690.00" arrivalLane="124812857#0_1" arrivalPos="143.49" arrivalSpeed="12.68" duration="26.00" routeLength="239.18" waitingTime="0.00" waitingCount="0" stopTime="0.00" timeLoss="6.62" rerouteNo="1" devices="tripinfo_carIn129626:1 routing_carIn129626:1" vType="default_016" speedFactor="0.93" vaporized=""/>
    <tripinfo id="h20539c1:3" depart="57667.00" departLane="653473569#5_1" departPos="5.10" departSpeed="0.00" departDelay="2.20" arrival="57692.00" arrivalLane="124812857#0_1" arrivalPos="143.49" arrivalSpeed="14.43" duration="25.00" routeLength="239.18" waitingTime="0.00" waitingCount="0" stopTime="0.00" timeLoss="7.73" rerouteNo="1" devices="tripinfo_h20539c1:3 routing_h20539c1:3" vType="default_016" speedFactor="1.07" vaporized=""/>
    <tripinfo id="carIn91254:1" depart="57696.00" departLane="653473569#5_1" departPos="5.10" departSpeed="0.00" departDelay="0.10" arrival="57718.00" arrivalLane="124812857#0_1" arrivalPos="143.49" arrivalSpeed="14.21" duration="22.00" routeLength="239.18" waitingTime="0.00" waitingCount="0" stopTime="0.00" timeLoss="5.26" rerouteNo="1" devices="tripinfo_carIn91254:1 routing_carIn91254:1" vType="default_016" speedFactor="1.08" vaporized=""/>
    <tripinfo id="carIn46350:1" depart="57630.00" departLane="201963537#1_1" departPos="5.10" departSpeed="0.00" departDelay="6.80" arrival="57745.00" arrivalLane="-653473569#5_1" arrivalPos="73.05" arrivalSpeed="13.53" duration="115.00" routeLength="256.07" waitingTime="82.00" waitingCount="2" stopTime="0.00" timeLoss="95.27" rerouteNo="1" devices="tripinfo_carIn46350:1 routing_carIn46350:1" vType="default_016" speedFactor="1.00" vaporized=""/>
    <tripinfo id="carIn79970:1" depart="57641.00" departLane="201963537#1_1" departPos="5.10" departSpeed="0.00" departDelay="14.20" arrival="57746.00" arrivalLane="104012170_2" arrivalPos="109.94" arrivalSpeed="15.46" duration="105.00" routeLength="293.69" waitingTime="72.00" waitingCount="2" stopTime="0.00" timeLoss="85.87" rerouteNo="1" devices="tripinfo_carIn79970:1 routing_carIn79970:1" vType="default_016" speedFactor="1.15" vaporized=""/>
    <tripinfo id="carIn27195:1" depart="57646.00" departLane="201963537#1_1" departPos="5.10" departSpeed="0.00" departDelay="17.90" arrival="57746.00" arrivalLane="104012170_1" arrivalPos="109.94" arrivalSpeed="14.52" duration="100.00" routeLength="293.69" waitingTime="64.00" waitingCount="2" stopTime="0.00" timeLoss="80.83" rerouteNo="1" devices="tripinfo_carIn27195:1 routing_carIn27195:1" vType="default_016" speedFactor="1.12" vaporized=""/>
    <tripinfo id="carIn75667:1" depart="57635.00" departLane="201963537#1_1" departPos="5.10" departSpeed="0.00" departDelay="10.40" arrival="57747.00" arrivalLane="-653473569#5_1" arrivalPos="73.05" arrivalSpeed="14.37" duration="112.00" routeLength="256.07" waitingTime="78.00" waitingCount="2" stopTime="0.00" timeLoss="93.22" rerouteNo="1" devices="tripinfo_carIn75667:1 routing_carIn75667:1" vType="default_016" speedFactor="1.06" vaporized=""/>
    <tripinfo id="carIn26410:1" depart="57655.00" departLane="201963537#1_1" departPos="5.10" departSpeed="0.00" departDelay="22.70" arrival="57748.00" arrivalLane="104012170_1" arrivalPos="109.94" arrivalSpeed="14.16" duration="93.00" routeLength="293.69" waitingTime="59.00" waitingCount="1" stopTime="0.00" timeLoss="73.87" rerouteNo="1" devices="tripinfo_carIn26410:1 routing_carIn26410:1" vType="default_016" speedFactor="1.11" vaporized=""/>
    <tripinfo id="carIn96537:1" depart="57651.00" departLane="201963537#1_1" departPos="5.10" departSpeed="0.00" departDelay="20.30" arrival="57749.00" arrivalLane="104012170_2" arrivalPos="109.94" arrivalSpeed="12.77" duration="98.00" routeLength="293.69" waitingTime="63.00" waitingCount="1" stopTime="0.00" timeLoss="75.94" rerouteNo="1" devices="tripinfo_carIn96537:1 routing_carIn96537:1" vType="default_016" speedFactor="0.99" vaporized=""/>
    <tripinfo id="carIn51024:1" depart="57659.00" departLane="201963537#1_1" departPos="5.10" departSpeed="0.00" departDelay="25.00" arrival="57751.00" arrivalLane="104012170_2" arrivalPos="109.94" arrivalSpeed="12.05" duration="92.00" routeLength="293.69" waitingTime="58.00" waitingCount="1" stopTime="0.00" timeLoss="69.37" rerouteNo="1" devices="tripinfo_carIn51024:1 routing_carIn51024:1" vType="default_016" speedFactor="0.94" vaporized=""/>
    <tripinfo id="carIn106797:1" depart="57726.00" departLane="653473569#5_1" departPos="5.10" departSpeed="0.00" departDelay="1.00" arrival="57752.00" arrivalLane="124812857#0_1" arrivalPos="143.49" arrivalSpeed="14.52" duration="26.00" routeLength="239.18" waitingTime="1.00" waitingCount="1" stopTime="0.00" timeLoss="9.38" rerouteNo="1" devices="tripinfo_carIn106797:1 routing_carIn106797:1" vType="default_016" speedFactor="1.11" vaporized=""/>
    <tripinfo id="carIn70484:1" depart="57724.00" departLane="653473569#5_1" departPos="5.10" departSpeed="0.00" departDelay="0.60" arrival="57755.00" arrivalLane="104012170_2" arrivalPos="109.94" arrivalSpeed="13.02" duration="31.00" routeLength="250.58" waitingTime="1.00" waitingCount="1" stopTime="0.00" timeLoss="11.90" rerouteNo="1" devices="tripinfo_carIn70484:1 routing_carIn70484:1" vType="default_016" speedFactor="1.01" vaporized=""/>
    <tripinfo id="carIn48988:1" depart="57732.00" departLane="653473569#5_1" departPos="5.10" departSpeed="0.00" departDelay="3.90" arrival="57756.00" arrivalLane="104012170_2" arrivalPos="109.94" arrivalSpeed="13.44" duration="24.00" routeLength="250.58" waitingTime="0.00" waitingCount="0" stopTime="0.00" timeLoss="6.35" rerouteNo="1" devices="tripinfo_carIn48988:1 routing_carIn48988:1" vType="default_016" speedFactor="1.06" vaporized=""/>
    <tripinfo id="carIn26708:1" depart="57729.00" departLane="653473569#5_1" departPos="5.10" departSpeed="0.00" departDelay="2.40" arrival="57758.00" arrivalLane="124812857#0_1" arrivalPos="143.49" arrivalSpeed="12.10" duration="29.00" routeLength="239.18" waitingTime="0.00" waitingCount="0" stopTime="0.00" timeLoss="9.04" rerouteNo="1" devices="tripinfo_carIn26708:1 routing_carIn26708:1" vType="default_016" speedFactor="0.89" vaporized=""/>
    <tripinfo id="carIn34550:1" depart="57734.00" departLane="653473569#5_1" departPos="5.10" departSpeed="0.00" departDelay="3.60" arrival="57760.00" arrivalLane="124812857#0_1" arrivalPos="143.49" arrivalSpeed="14.10" duration="26.00" routeLength="239.18" waitingTime="0.00" waitingCount="0" stopTime="0.00" timeLoss="8.81" rerouteNo="1" devices="tripinfo_carIn34550:1 routing_carIn34550:1" vType="default_016" speedFactor="1.09" vaporized=""/>
    <tripinfo id="carIn41791:1" depart="57737.00" departLane="653473569#5_1" departPos="5.10" departSpeed="0.00" departDelay="4.80" arrival="57764.00" arrivalLane="124812857#0_1" arrivalPos="143.49" arrivalSpeed="10.72" duration="27.00" routeLength="239.18" waitingTime="0.00" waitingCount="0" stopTime="0.00" timeLoss="5.67" rerouteNo="1" devices="tripinfo_carIn41791:1 routing_carIn41791:1" vType="default_016" speedFactor="0.85" vaporized=""/>
    <tripinfo id="carIn13016:1" depart="57740.00" departLane="653473569#5_1" departPos="5.10" departSpeed="0.00" departDelay="4.50" arrival="57766.00" arrivalLane="124812857#0_1" arrivalPos="143.49" arrivalSpeed="13.22" duration="26.00" routeLength="239.18" waitingTime="0.00" waitingCount="0" stopTime="0.00" timeLoss="7.08" rerouteNo="1" devices="tripinfo_carIn13016:1 routing_carIn13016:1" vType="default_016" speedFactor="0.97" vaporized=""/>
    <tripinfo id="carIn128705:1" depart="57663.00" departLane="201963537#1_1" departPos="5.10" departSpeed="0.00" departDelay="27.30" arrival="57767.00" arrivalLane="104012170_1" arrivalPos="109.94" arrivalSpeed="14.03" duration="104.00" routeLength="293.69" waitingTime="67.00" waitingCount="2" stopTime="0.00" timeLoss="83.09" rerouteNo="1" devices="tripinfo_carIn128705:1 routing_carIn128705:1" vType="default_016" speedFactor="1.02" vaporized=""/>
    <tripinfo id="h21989c1:1" depart="57667.00" departLane="201963537#1_1" departPos="5.10" departSpeed="0.00" departDelay="29.70" arrival="57767.00" arrivalLane="104012170_2" arrivalPos="109.94" arrivalSpeed="13.99" duration="100.00" routeLength="293.69" waitingTime="64.00" waitingCount="2" stopTime="0.00" timeLoss="79.12" rerouteNo="1" devices="tripinfo_h21989c1:1 routing_h21989c1:1" vType="default_016" speedFactor="1.02" vaporized=""/>
    <tripinfo id="carIn70477:1" depart="57743.00" departLane="653473569#5_1" departPos="5.10" departSpeed="0.00" departDelay="5.20" arrival="57768.00" arrivalLane="124812857#0_1" arrivalPos="143.49" arrivalSpeed="15.86" duration="25.00" routeLength="239.18" waitingTime="0.00" waitingCount="0" stopTime="0.00" timeLoss="9.34" rerouteNo="1" devices="tripinfo_carIn70477:1 routing_carIn70477:1" vType="default_016" speedFactor="1.17" vaporized=""/>
    <tripinfo id="h8750c1:1" depart="57609.00" departLane="104010354_1" departPos="5.10" departSpeed="0.00" departDelay="0.50" arrival="57769.00" arrivalLane="124812857#0_2" arrivalPos="143.49" arrivalSpeed="11.06" duration="160.00" routeLength="211.78" waitingTime="134.00" waitingCount="1" stopTime="0.00" timeLoss="141.24" rerouteNo="0" devices="tripinfo_h8750c1:1 routing_h8750c1:1" vType="default_016" speedFactor="0.83" vaporized=""/>
    <tripinfo id="h21130c2:1" depart="57693.00" departLane="201963537#1_1" departPos="5.10" departSpeed="0.00" departDelay="29.60" arrival="57770.00" arrivalLane="104012170_1" arrivalPos="109.94" arrivalSpeed="12.86" duration="77.00" routeLength="293.69" waitingTime="39.00" waitingCount="2" stopTime="0.00" timeLoss="54.27" rerouteNo="1" devices="tripinfo_h21130c2:1 routing_h21130c2:1" vType="default_016" speedFactor="0.96" vaporized=""/>
    <tripinfo id="60R.41" depart="57634.00" departLane="104010354_1" departPos="12.10" departSpeed="0.00" departDelay="0.50" arrival="57771.00" arrivalLane="124812857#0_3" arrivalPos="143.49" arrivalSpeed="13.64" duration="137.00" routeLength="204.78" waitingTime="108.00" waitingCount="1" stopTime="0.00" timeLoss="121.63" rerouteNo="0" devices="tripinfo_60R.41 routing_60R.41" vType="bus" speedFactor="1.00" vaporized=""/>
    <tripinfo id="carIn13117:1" depart="57638.00" departLane="104010354_1" departPos="5.10" departSpeed="0.00" departDelay="1.40" arrival="57771.00" arrivalLane="124812857#0_2" arrivalPos="143.49" arrivalSpeed="13.41" duration="133.00" routeLength="211.78" waitingTime="105.00" waitingCount="1" stopTime="0.00" timeLoss="117.10" rerouteNo="0" devices="tripinfo_carIn13117:1 routing_carIn13117:1" vType="default_016" speedFactor="1.01" vaporized=""/>
    <tripinfo id="carIn100220:1" depart="57705.00" departLane="201963537#1_1" departPos="5.10" departSpeed="0.00" departDelay="29.70" arrival="57771.00" arrivalLane="104012170_1" arrivalPos="109.94" arrivalSpeed="15.11" duration="66.00" routeLength="293.69" waitingTime="22.00" waitingCount="2" stopTime="0.00" timeLoss="46.76" rerouteNo="1" devices="tripinfo_carIn100220:1 routing_carIn100220:1" vType="default_016" speedFactor="1.10" vaporized=""/>
    <tripinfo id="randUni27349:1" depart="57646.00" departLane="104010354_1" departPos="5.10" departSpeed="0.00" departDelay="0.90" arrival="57772.00" arrivalLane="124812857#0_2" arrivalPos="143.49" arrivalSpeed="12.33" duration="126.00" routeLength="211.78" waitingTime="100.00" waitingCount="1" stopTime="0.00" timeLoss="110.09" rerouteNo="0" devices="tripinfo_randUni27349:1 routing_randUni27349:1" vType="random_016" speedFactor="0.96" vaporized=""/>
    <tripinfo id="randUni26227:1" depart="57746.00" departLane="653473569#5_1" departPos="5.10" departSpeed="0.00" departDelay="5.50" arrival="57772.00" arrivalLane="124812857#0_1" arrivalPos="143.49" arrivalSpeed="12.82" duration="26.00" routeLength="239.18" waitingTime="0.00" waitingCount="0" stopTime="0.00" timeLoss="6.37" rerouteNo="1" devices="tripinfo_randUni26227:1 routing_randUni26227:1" vType="random_016" speedFactor="0.94" vaporized=""/>
    <tripinfo id="carIn76112:1" depart="57640.00" departLane="201963537#1_1" departPos="5.10" departSpeed="0.00" departDelay="14.00" arrival="57773.00" arrivalLane="-653473569#5_1" arrivalPos="73.05" arrivalSpeed="14.54" duration="133.00" routeLength="256.07" waitingTime="91.00" waitingCount="4" stopTime="0.00" timeLoss="114.62" rerouteNo="1" devices="tripinfo_carIn76112:1 routing_carIn76112:1" vType="default_016" speedFactor="1.05" vaporized=""/>
    <tripinfo id="60.39" depart="57700.00" departLane="201963537#1_1" departPos="12.10" departSpeed="0.00" departDelay="31.50" arrival="57773.00" arrivalLane="104012170_2" arrivalPos="109.94" arrivalSpeed="13.81" duration="73.00" routeLength="286.69" waitingTime="28.00" waitingCount="2" stopTime="0.00" timeLoss="51.44" rerouteNo="1" devices="tripinfo_60.39 routing_60.39" vType="bus" speedFactor="1.00" vaporized=""/>
    <tripinfo id="carIn20106:1" depart="57641.00" departLane="104010354_1" departPos="5.10" departSpeed="0.00" departDelay="1.50" arrival="57774.00" arrivalLane="124812857#0_3" arrivalPos="143.49" arrivalSpeed="11.75" duration="133.00" routeLength="211.78" waitingTime="104.00" waitingCount="1" stopTime="0.00" timeLoss="115.78" rerouteNo="0" devices="tripinfo_carIn20106:1 routing_carIn20106:1" vType="default_016" speedFactor="0.92" vaporized=""/>
    <tripinfo id="carIn27521:1" depart="57644.00" departLane="201963537#1_1" departPos="5.10" departSpeed="0.00" departDelay="16.50" arrival="57776.00" arrivalLane="-653473569#5_1" arrivalPos="73.05" arrivalSpeed="11.91" duration="132.00" routeLength="256.07" waitingTime="84.00" waitingCount="4" stopTime="0.00" timeLoss="110.57" rerouteNo="1" devices="tripinfo_carIn27521:1 routing_carIn27521:1" vType="default_015" speedFactor="0.91" vaporized=""/>
    <tripinfo id="h20403c1:5" depart="57649.00" departLane="104010354_1" departPos="5.10" departSpeed="0.00" departDelay="2.40" arrival="57786.00" arrivalLane="124812857#0_2" arrivalPos="143.49" arrivalSpeed="15.74" duration="137.00" routeLength="211.78" waitingTime="108.00" waitingCount="2" stopTime="0.00" timeLoss="123.52" rerouteNo="0" devices="tripinfo_h20403c1:5 routing_h20403c1:5" vType="default_016" speedFactor="1.16" vaporized=""/>
    <tripinfo id="carIn36018:1" depart="57667.00" departLane="104010354_1" departPos="5.10" departSpeed="0.00" departDelay="0.40" arrival="57787.00" arrivalLane="-653473569#5_1" arrivalPos="73.05" arrivalSpeed="11.95" duration="120.00" routeLength="153.51" waitingTime="91.00" waitingCount="2" stopTime="0.00" timeLoss="106.26" rerouteNo="1" devices="tripinfo_carIn36018:1 routing_carIn36018:1" vType="default_016" speedFactor="0.91" vaporized=""/>
    <tripinfo id="h21189c1:3" depart="57739.00" departLane="201963537#1_1" departPos="5.10" departSpeed="0.00" departDelay="0.60" arrival="57787.00" arrivalLane="104012170_1" arrivalPos="109.94" arrivalSpeed="12.94" duration="48.00" routeLength="293.69" waitingTime="9.00" waitingCount="2" stopTime="0.00" timeLoss="25.91" rerouteNo="1" devices="tripinfo_h21189c1:3 routing_h21189c1:3" vType="default_016" speedFactor="0.98" vaporized=""/>
    <tripinfo id="carIn73466:1" depart="57652.00" departLane="104010354_1" departPos="5.10" departSpeed="0.00" departDelay="3.70" arrival="57788.00" arrivalLane="124812857#0_2" arrivalPos="143.49" arrivalSpeed="13.97" duration="136.00" routeLength="211.78" waitingTime="100.00" waitingCount="2" stopTime="0.00" timeLoss="120.20" rerouteNo="0" devices="tripinfo_carIn73466:1 routing_carIn73466:1" vType="default_016" speedFactor="1.01" vaporized=""/>
    <tripinfo id="h2215c1:1" depart="57670.00" departLane="104010354_1" departPos="5.10" departSpeed="0.00" departDelay="0.10" arrival="57789.00" arrivalLane="124812857#0_3" arrivalPos="143.49" arrivalSpeed="13.64" duration="119.00" routeLength="211.78" waitingTime="87.00" waitingCount="2" stopTime="0.00" timeLoss="104.34" rerouteNo="0" devices="tripinfo_h2215c1:1 routing_h2215c1:1" vType="default_016" speedFactor="1.08" vaporized=""/>
    <tripinfo id="carIn102740:1" depart="57676.00" departLane="104010354_1" departPos="5.10" departSpeed="0.00" departDelay="0.50" arrival="57791.00" arrivalLane="124812857#0_2" arrivalPos="143.49" arrivalSpeed="14.09" duration="115.00" routeLength="211.78" waitingTime="82.00" waitingCount="2" stopTime="0.00" timeLoss="100.10" rerouteNo="0" devices="tripinfo_carIn102740:1 routing_carIn102740:1" vType="default_016" speedFactor="1.03" vaporized=""/>
    <tripinfo id="carIn35345:1" depart="57679.00" departLane="104010354_1" departPos="5.10" departSpeed="0.00" departDelay="1.10" arrival="57791.00" arrivalLane="124812857#0_3" arrivalPos="143.49" arrivalSpeed="13.37" duration="112.00" routeLength="211.78" waitingTime="81.00" waitingCount="2" stopTime="0.00" timeLoss="96.59" rerouteNo="0" devices="tripinfo_carIn35345:1 routing_carIn35345:1" vType="default_016" speedFactor="0.99" vaporized=""/>
    <tripinfo id="carIn130142:1" depart="57649.00" departLane="201963537#1_1" departPos="5.10" departSpeed="0.00" departDelay="19.90" arrival="57792.00" arrivalLane="-653473569#5_1" arrivalPos="73.05" arrivalSpeed="12.43" duration="143.00" routeLength="256.07" waitingTime="88.00" waitingCount="5" stopTime="0.00" timeLoss="122.53" rerouteNo="1" devices="tripinfo_carIn130142:1 routing_carIn130142:1" vType="default_015" speedFactor="0.97" vaporized=""/>
    <tripinfo id="carIn86816:1" depart="57769.00" departLane="653473569#5_1" departPos="5.10" departSpeed="0.00" departDelay="0.70" arrival="57794.00" arrivalLane="124812857#0_1" arrivalPos="143.49" arrivalSpeed="13.00" duration="25.00" routeLength="239.18" waitingTime="0.00" waitingCount="0" stopTime="0.00" timeLoss="6.22" rerouteNo="1" devices="tripinfo_carIn86816:1 routing_carIn86816:1" vType="default_016" speedFactor="0.98" vaporized=""/>
    <tripinfo id="carIn77438:1" depart="57677.00" departLane="201963537#1_1" departPos="5.10" departSpeed="0.00" departDelay="32.80" arrival="57795.00" arrivalLane="-653473569#5_1" arrivalPos="73.05" arrivalSpeed="10.81" duration="118.00" routeLength="256.07" waitingTime="65.00" waitingCount="5" stopTime="0.00" timeLoss="94.39" rerouteNo="1" devices="tripinfo_carIn77438:1 routing_carIn77438:1" vType="default_016" speedFactor="0.83" vaporized=""/>
    <tripinfo id="randUni34730:1" depart="57650.00" departLane="201963537#1_1" departPos="5.10" departSpeed="0.00" departDelay="19.40" arrival="57797.00" arrivalLane="-653473569#5_1" arrivalPos="73.05" arrivalSpeed="12.04" duration="147.00" routeLength="256.07" waitingTime="87.00" waitingCount="6" stopTime="0.00" timeLoss="124.78" rerouteNo="1" devices="tripinfo_randUni34730:1 routing_randUni34730:1" vType="random_016" speedFactor="0.88" vaporized=""/>
    <tripinfo id="carIn767:1" depart="57685.00" departLane="201963537#1_1" departPos="5.10" departSpeed="0.00" departDelay="36.80" arrival="57798.00" arrivalLane="-653473569#5_1" arrivalPos="73.05" arrivalSpeed="13.51" duration="113.00" routeLength="256.07" waitingTime="68.00" waitingCount="3" stopTime="0.00" timeLoss="94.02" rerouteNo="1" devices="tripinfo_carIn767:1 routing_carIn767:1" vType="default_016" speedFactor="1.02" vaporized=""/>
    <tripinfo id="h3139c1:3" depart="57684.00" departLane="104010354_1" departPos="5.10" departSpeed="0.00" departDelay="0.70" arrival="57818.00" arrivalLane="124812857#0_3" arrivalPos="143.49" arrivalSpeed="12.25" duration="134.00" routeLength="211.78" waitingTime="92.00" waitingCount="3" stopTime="0.00" timeLoss="117.51" rerouteNo="0" devices="tripinfo_h3139c1:3 routing_h3139c1:3" vType="default_016" speedFactor="0.95" vaporized=""/>
    <tripinfo id="carIn26407:1" depart="57688.00" departLane="104010354_1" departPos="5.10" departSpeed="0.00" departDelay="2.00" arrival="57818.00" arrivalLane="124812857#0_2" arrivalPos="143.49" arrivalSpeed="12.43" duration="130.00" routeLength="211.78" waitingTime="92.00" waitingCount="3" stopTime="0.00" timeLoss="114.05" rerouteNo="0" devices="tripinfo_carIn26407:1 routing_carIn26407:1" vType="default_016" speedFactor="0.99" vaporized=""/>
    <tripinfo id="randUni5403:1" depart="57779.00" departLane="104010354_1" departPos="5.10" departSpeed="0.00" departDelay="25.50" arrival="57819.00" arrivalLane="-653473569#5_1" arrivalPos="73.05" arrivalSpeed="13.74" duration="40.00" routeLength="153.51" waitingTime="17.00" waitingCount="1" stopTime="0.00" timeLoss="29.02" rerouteNo="1" devices="tripinfo_randUni5403:1 routing_randUni5403:1" vType="random_016" speedFactor="1.06" vaporized=""/>
    <tripinfo id="carIn78692:1" depart="57761.00" departLane="104010354_1" departPos="5.10" departSpeed="0.00" departDelay="59.00" arrival="57820.00" arrivalLane="124812857#0_2" arrivalPos="143.49" arrivalSpeed="13.72" duration="59.00" routeLength="211.78" waitingTime="26.00" waitingCount="2" stopTime="0.00" timeLoss="43.59" rerouteNo="0" devices="tripinfo_carIn78692:1 routing_carIn78692:1" vType="default_016" speedFactor="1.04" vaporized=""/>