<?xml version="1.0" encoding="UTF-8"?>

<!-- generated on 2023-08-31 12:16:07 by Eclipse SUMO libsumo Version 1.18.0
<configuration xmlns:xsi="http://www.w3.org/2001/XMLSchema-instance" xsi:noNamespaceSchemaLocation="http://sumo.dlr.de/xsd/libsumoConfiguration.xsd">

    <input>
        <net-file value="/home/stefan/RESCO/./environments/ingolstadt1/ingolstadt1.net.xml"/>
        <route-files value="/home/stefan/RESCO/./environments/ingolstadt1/ingolstadt1.rou.xml"/>
    </input>

    <output>
        <tripinfo-output value="/home/stefan/results/RAINBOW-tr0-ingolstadt1-0-drq_norm-wait_norm/tripinfo_62.xml"/>
        <tripinfo-output.write-unfinished value="true"/>
    </output>

    <time>
        <begin value="57600"/>
        <end value="61200"/>
    </time>

    <processing>
        <time-to-teleport value="-1"/>
    </processing>

    <report>
        <no-warnings value="True"/>
        <no-step-log value="True"/>
    </report>

    <random_number>
        <random value="true"/>
    </random_number>

</configuration>
-->

<tripinfos xmlns:xsi="http://www.w3.org/2001/XMLSchema-instance" xsi:noNamespaceSchemaLocation="http://sumo.dlr.de/xsd/tripinfo_file.xsd">
    <tripinfo id="carIn105842:1" depart="57601.00" departLane="653473569#5_1" departPos="5.10" departSpeed="0.00" departDelay="0.80" arrival="57624.00" arrivalLane="124812857#0_1" arrivalPos="143.49" arrivalSpeed="14.48" duration="23.00" routeLength="239.18" waitingTime="0.00" waitingCount="0" stopTime="0.00" timeLoss="6.59" rerouteNo="1" devices="tripinfo_carIn105842:1 routing_carIn105842:1" vType="default_016" speedFactor="1.09" vaporized=""/>
    <tripinfo id="carIn28488:1" depart="57611.00" departLane="653473569#5_1" departPos="5.10" departSpeed="0.00" departDelay="0.80" arrival="57639.00" arrivalLane="124812857#0_1" arrivalPos="143.49" arrivalSpeed="11.23" duration="28.00" routeLength="239.18" waitingTime="0.00" waitingCount="0" stopTime="0.00" timeLoss="5.52" rerouteNo="1" devices="tripinfo_carIn28488:1 routing_carIn28488:1" vType="default_016" speedFactor="0.83" vaporized=""/>
    <tripinfo id="carIn106322:1" depart="57614.00" departLane="653473569#5_1" departPos="5.10" departSpeed="0.00" departDelay="2.20" arrival="57640.00" arrivalLane="124812857#0_1" arrivalPos="143.49" arrivalSpeed="12.37" duration="26.00" routeLength="239.18" waitingTime="0.00" waitingCount="0" stopTime="0.00" timeLoss="12.25" rerouteNo="1" devices="tripinfo_carIn106322:1 routing_carIn106322:1" vType="default_016" speedFactor="1.30" vaporized=""/>
    <tripinfo id="carIn5482:1" depart="57617.00" departLane="653473569#5_1" departPos="5.10" departSpeed="0.00" departDelay="3.60" arrival="57643.00" arrivalLane="124812857#0_1" arrivalPos="143.49" arrivalSpeed="12.34" duration="26.00" routeLength="239.18" waitingTime="0.00" waitingCount="0" stopTime="0.00" timeLoss="6.83" rerouteNo="1" devices="tripinfo_carIn5482:1 routing_carIn5482:1" vType="default_016" speedFactor="0.95" vaporized=""/>
    <tripinfo id="carIn36103:1" depart="57620.00" departLane="653473569#5_1" departPos="5.10" departSpeed="0.00" departDelay="4.00" arrival="57645.00" arrivalLane="124812857#0_1" arrivalPos="143.49" arrivalSpeed="14.09" duration="25.00" routeLength="239.18" waitingTime="0.00" waitingCount="0" stopTime="0.00" timeLoss="7.82" rerouteNo="1" devices="tripinfo_carIn36103:1 routing_carIn36103:1" vType="default_016" speedFactor="1.08" vaporized=""/>
    <tripinfo id="carIn102997:1" depart="57623.00" departLane="653473569#5_1" departPos="5.10" departSpeed="0.00" departDelay="4.80" arrival="57649.00" arrivalLane="124812857#0_1" arrivalPos="143.49" arrivalSpeed="13.08" duration="26.00" routeLength="239.18" waitingTime="0.00" waitingCount="0" stopTime="0.00" timeLoss="6.50" rerouteNo="1" devices="tripinfo_carIn102997:1 routing_carIn102997:1" vType="default_016" speedFactor="0.95" vaporized=""/>
    <tripinfo id="carIn75554:1" depart="57626.00" departLane="653473569#5_1" departPos="5.10" departSpeed="0.00" departDelay="5.20" arrival="57653.00" arrivalLane="124812857#0_1" arrivalPos="143.49" arrivalSpeed="11.50" duration="27.00" routeLength="239.18" waitingTime="0.00" waitingCount="0" stopTime="0.00" timeLoss="6.18" rerouteNo="1" devices="tripinfo_carIn75554:1 routing_carIn75554:1" vType="default_016" speedFactor="0.87" vaporized=""/>
    <tripinfo id="randUni20090:1" depart="57629.00" departLane="653473569#5_1" departPos="5.10" departSpeed="0.00" departDelay="1.00" arrival="57658.00" arrivalLane="124812857#0_1" arrivalPos="143.49" arrivalSpeed="11.17" duration="29.00" routeLength="239.18" waitingTime="0.00" waitingCount="0" stopTime="0.00" timeLoss="7.26" rerouteNo="1" devices="tripinfo_randUni20090:1 routing_randUni20090:1" vType="random_016" speedFactor="0.86" vaporized=""/>
    <tripinfo id="carIn37268:1" depart="57636.00" departLane="653473569#5_1" departPos="5.10" departSpeed="0.00" departDelay="0.90" arrival="57659.00" arrivalLane="124812857#0_1" arrivalPos="143.49" arrivalSpeed="12.86" duration="23.00" routeLength="239.18" waitingTime="0.00" waitingCount="0" stopTime="0.00" timeLoss="7.94" rerouteNo="1" devices="tripinfo_carIn37268:1 routing_carIn37268:1" vType="default_016" speedFactor="1.19" vaporized=""/>
    <tripinfo id="carIn129760:1" depart="57661.00" departLane="653473569#5_1" departPos="5.10" departSpeed="0.00" departDelay="0.80" arrival="57685.00" arrivalLane="124812857#0_1" arrivalPos="143.49" arrivalSpeed="13.49" duration="24.00" routeLength="239.18" waitingTime="0.00" waitingCount="0" stopTime="0.00" timeLoss="5.63" rerouteNo="1" devices="tripinfo_carIn129760:1 routing_carIn129760:1" vType="default_016" speedFactor="0.98" vaporized=""/>
    <tripinfo id="carIn129626:1" depart="57664.00" departLane="653473569#5_1" departPos="5.10" departSpeed="0.00" departDelay="1.60" arrival="57689.00" arrivalLane="124812857#0_1" arrivalPos="143.49" arrivalSpeed="12.67" duration="25.00" routeLength="239.18" waitingTime="0.00" waitingCount="0" stopTime="0.00" timeLoss="6.32" rerouteNo="1" devices="tripinfo_carIn129626:1 routing_carIn129626:1" vType="default_016" speedFactor="0.97" vaporized=""/>
    <tripinfo id="h20539c1:3" depart="57667.00" departLane="653473569#5_1" departPos="5.10" departSpeed="0.00" departDelay="2.20" arrival="57692.00" arrivalLane="124812857#0_1" arrivalPos="143.49" arrivalSpeed="13.14" duration="25.00" routeLength="239.18" waitingTime="0.00" waitingCount="0" stopTime="0.00" timeLoss="5.85" rerouteNo="1" devices="tripinfo_h20539c1:3 routing_h20539c1:3" vType="default_016" speedFactor="0.96" vaporized=""/>
    <tripinfo id="carIn91254:1" depart="57696.00" departLane="653473569#5_1" departPos="5.10" departSpeed="0.00" departDelay="0.10" arrival="57719.00" arrivalLane="124812857#0_1" arrivalPos="143.49" arrivalSpeed="15.39" duration="23.00" routeLength="239.18" waitingTime="0.00" waitingCount="0" stopTime="0.00" timeLoss="6.34" rerouteNo="1" devices="tripinfo_carIn91254:1 routing_carIn91254:1" vType="default_016" speedFactor="1.12" vaporized=""/>
    <tripinfo id="carIn70484:1" depart="57724.00" departLane="653473569#5_1" departPos="5.10" departSpeed="0.00" departDelay="0.60" arrival="57749.00" arrivalLane="104012170_2" arrivalPos="109.94" arrivalSpeed="12.18" duration="25.00" routeLength="250.58" waitingTime="0.00" waitingCount="0" stopTime="0.00" timeLoss="4.76" rerouteNo="1" devices="tripinfo_carIn70484:1 routing_carIn70484:1" vType="default_016" speedFactor="0.93" vaporized=""/>
    <tripinfo id="carIn106797:1" depart="57727.00" departLane="653473569#5_1" departPos="5.10" departSpeed="0.00" departDelay="2.00" arrival="57750.00" arrivalLane="124812857#0_1" arrivalPos="143.49" arrivalSpeed="14.90" duration="23.00" routeLength="239.18" waitingTime="0.00" waitingCount="0" stopTime="0.00" timeLoss="6.68" rerouteNo="1" devices="tripinfo_carIn106797:1 routing_carIn106797:1" vType="default_016" speedFactor="1.13" vaporized=""/>
    <tripinfo id="carIn26708:1" depart="57730.00" departLane="653473569#5_1" departPos="5.10" departSpeed="0.00" departDelay="3.40" arrival="57755.00" arrivalLane="124812857#0_1" arrivalPos="143.49" arrivalSpeed="13.71" duration="25.00" routeLength="239.18" waitingTime="0.00" waitingCount="0" stopTime="0.00" timeLoss="6.07" rerouteNo="1" devices="tripinfo_carIn26708:1 routing_carIn26708:1" vType="default_016" speedFactor="0.99" vaporized=""/>
    <tripinfo id="carIn48988:1" depart="57733.00" departLane="653473569#5_1" departPos="5.10" departSpeed="0.00" departDelay="4.90" arrival="57756.00" arrivalLane="104012170_2" arrivalPos="109.94" arrivalSpeed="13.81" duration="23.00" routeLength="250.58" waitingTime="0.00" waitingCount="0" stopTime="0.00" timeLoss="4.08" rerouteNo="1" devices="tripinfo_carIn48988:1 routing_carIn48988:1" vType="default_016" speedFactor="1.02" vaporized=""/>
    <tripinfo id="carIn34550:1" depart="57735.00" departLane="653473569#5_1" departPos="5.10" departSpeed="0.00" departDelay="4.60" arrival="57759.00" arrivalLane="124812857#0_1" arrivalPos="143.49" arrivalSpeed="13.46" duration="24.00" routeLength="239.18" waitingTime="0.00" waitingCount="0" stopTime="0.00" timeLoss="5.56" rerouteNo="1" devices="tripinfo_carIn34550:1 routing_carIn34550:1" vType="default_016" speedFactor="0.99" vaporized=""/>
    <tripinfo id="carIn41791:1" depart="57738.00" departLane="653473569#5_1" departPos="5.10" departSpeed="0.00" departDelay="5.80" arrival="57763.00" arrivalLane="124812857#0_1" arrivalPos="143.49" arrivalSpeed="13.56" duration="25.00" routeLength="239.18" waitingTime="0.00" waitingCount="0" stopTime="0.00" timeLoss="6.40" rerouteNo="1" devices="tripinfo_carIn41791:1 routing_carIn41791:1" vType="default_016" speedFactor="1.02" vaporized=""/>
    <tripinfo id="carIn13016:1" depart="57741.00" departLane="653473569#5_1" departPos="5.10" departSpeed="0.00" departDelay="5.50" arrival="57766.00" arrivalLane="124812857#0_1" arrivalPos="143.49" arrivalSpeed="13.22" duration="25.00" routeLength="239.18" waitingTime="0.00" waitingCount="0" stopTime="0.00" timeLoss="6.48" rerouteNo="1" devices="tripinfo_carIn13016:1 routing_carIn13016:1" vType="default_016" speedFactor="0.96" vaporized=""/>
    <tripinfo id="carIn70477:1" depart="57744.00" departLane="653473569#5_1" departPos="5.10" departSpeed="0.00" departDelay="6.20" arrival="57770.00" arrivalLane="124812857#0_1" arrivalPos="143.49" arrivalSpeed="12.32" duration="26.00" routeLength="239.18" waitingTime="0.00" waitingCount="0" stopTime="0.00" timeLoss="6.21" rerouteNo="1" devices="tripinfo_carIn70477:1 routing_carIn70477:1" vType="default_016" speedFactor="0.94" vaporized=""/>
    <tripinfo id="randUni26227:1" depart="57747.00" departLane="653473569#5_1" departPos="5.10" departSpeed="0.00" departDelay="6.50" arrival="57773.00" arrivalLane="124812857#0_1" arrivalPos="143.49" arrivalSpeed="12.68" duration="26.00" routeLength="239.18" waitingTime="0.00" waitingCount="0" stopTime="0.00" timeLoss="6.66" rerouteNo="1" devices="tripinfo_randUni26227:1 routing_randUni26227:1" vType="random_016" speedFactor="0.96" vaporized=""/>
    <tripinfo id="carIn86816:1" depart="57769.00" departLane="653473569#5_1" departPos="5.10" departSpeed="0.00" departDelay="0.70" arrival="57792.00" arrivalLane="124812857#0_1" arrivalPos="143.49" arrivalSpeed="14.53" duration="23.00" routeLength="239.18" waitingTime="0.00" waitingCount="0" stopTime="0.00" timeLoss="6.23" rerouteNo="1" devices="tripinfo_carIn86816:1 routing_carIn86816:1" vType="default_016" speedFactor="1.10" vaporized=""/>
    <tripinfo id="carIn21562:1" depart="57611.00" departLane="201963537#1_1" departPos="5.10" departSpeed="0.00" departDelay="0.20" arrival="57796.00" arrivalLane="-653473569#5_1" arrivalPos="73.05" arrivalSpeed="12.03" duration="185.00" routeLength="256.07" waitingTime="154.00" waitingCount="1" stopTime="0.00" timeLoss="162.87" rerouteNo="1" devices="tripinfo_carIn21562:1 routing_carIn21562:1" vType="default_016" speedFactor="0.88" vaporized=""/>
    <tripinfo id="carIn115534:1" depart="57624.00" departLane="201963537#1_1" departPos="5.10" departSpeed="0.00" departDelay="2.60" arrival="57797.00" arrivalLane="104012170_2" arrivalPos="109.94" arrivalSpeed="13.40" duration="173.00" routeLength="293.69" waitingTime="141.00" waitingCount="1" stopTime="0.00" timeLoss="151.01" rerouteNo="1" devices="tripinfo_carIn115534:1 routing_carIn115534:1" vType="default_015" speedFactor="0.97" vaporized=""/>
    <tripinfo id="carIn28951:1" depart="57613.00" departLane="201963537#1_1" departPos="5.10" departSpeed="0.00" departDelay="0.30" arrival="57798.00" arrivalLane="-653473569#5_1" arrivalPos="73.05" arrivalSpeed="15.14" duration="185.00" routeLength="256.07" waitingTime="153.00" waitingCount="1" stopTime="0.00" timeLoss="167.41" rerouteNo="1" devices="tripinfo_carIn28951:1 routing_carIn28951:1" vType="default_016" speedFactor="1.14" vaporized=""/>
    <tripinfo id="carIn26332:1" depart="57621.00" departLane="201963537#1_1" departPos="5.10" departSpeed="0.00" departDelay="0.00" arrival="57798.00" arrivalLane="104012170_1" arrivalPos="109.94" arrivalSpeed="12.30" duration="177.00" routeLength="293.69" waitingTime="145.00" waitingCount="1" stopTime="0.00" timeLoss="153.76" rerouteNo="1" devices="tripinfo_carIn26332:1 routing_carIn26332:1" vType="default_015" speedFactor="0.91" vaporized=""/>
    <tripinfo id="carIn119141:1" depart="57632.00" departLane="201963537#1_1" departPos="5.10" departSpeed="0.00" departDelay="8.70" arrival="57799.00" arrivalLane="104012170_2" arrivalPos="109.94" arrivalSpeed="12.71" duration="167.00" routeLength="293.69" waitingTime="135.00" waitingCount="1" stopTime="0.00" timeLoss="145.37" rerouteNo="1" devices="tripinfo_carIn119141:1 routing_carIn119141:1" vType="default_015" speedFactor="1.00" vaporized=""/>
    <tripinfo id="h15808c1:1" depart="57627.00" departLane="201963537#1_1" departPos="5.10" departSpeed="0.00" departDelay="5.40" arrival="57800.00" arrivalLane="104012170_1" arrivalPos="109.94" arrivalSpeed="13.26" duration="173.00" routeLength="293.69" waitingTime="139.00" waitingCount="1" stopTime="0.00" timeLoss="151.09" rerouteNo="1" devices="tripinfo_h15808c1:1 routing_h15808c1:1" vType="default_016" speedFactor="0.98" vaporized=""/>
    <tripinfo id="carIn102915:1" depart="57811.00" departLane="653473569#5_1" departPos="5.10" departSpeed="0.00" departDelay="0.90" arrival="57834.00" arrivalLane="124812857#0_1" arrivalPos="143.49" arrivalSpeed="14.44" duration="23.00" routeLength="239.18" waitingTime="0.00" waitingCount="0" stopTime="0.00" timeLoss="6.18" rerouteNo="1" devices="tripinfo_carIn102915:1 routing_carIn102915:1" vType="default_016" speedFactor="1.07" vaporized=""/>
    <tripinfo id="randUni33724:1" depart="57814.00" departLane="653473569#5_1" departPos="5.10" departSpeed="0.00" departDelay="2.20" arrival="57840.00" arrivalLane="124812857#0_1" arrivalPos="143.49" arrivalSpeed="11.38" duration="26.00" routeLength="239.18" waitingTime="0.00" waitingCount="0" stopTime="0.00" timeLoss="5.53" rerouteNo="1" devices="tripinfo_randUni33724:1 routing_randUni33724:1" vType="random_016" speedFactor="0.91" vaporized=""/>
    <tripinfo id="carIn119185:1" depart="57637.00" departLane="201963537#1_1" departPos="5.10" departSpeed="0.00" departDelay="11.80" arrival="57845.00" arrivalLane="104012170_1" arrivalPos="109.94" arrivalSpeed="15.85" duration="208.00" routeLength="293.69" waitingTime="175.00" waitingCount="2" stopTime="0.00" timeLoss="190.01" rerouteNo="1" devices="tripinfo_carIn119185:1 routing_carIn119185:1" vType="default_015" speedFactor="1.18" vaporized=""/>
    <tripinfo id="h8750c1:1" depart="57609.00" departLane="104010354_1" departPos="5.10" departSpeed="0.00" departDelay="0.50" arrival="57847.00" arrivalLane="124812857#0_2" arrivalPos="143.49" arrivalSpeed="13.98" duration="238.00" routeLength="211.78" waitingTime="214.00" waitingCount="1" stopTime="0.00" timeLoss="223.16" rerouteNo="0" devices="tripinfo_h8750c1:1 routing_h8750c1:1" vType="default_016" speedFactor="1.05" vaporized=""/>
    <tripinfo id="carIn79970:1" depart="57641.00" departLane="201963537#1_1" departPos="5.10" departSpeed="0.00" departDelay="14.20" arrival="57848.00" arrivalLane="104012170_1" arrivalPos="109.94" arrivalSpeed="11.04" duration="207.00" routeLength="293.69" waitingTime="169.00" waitingCount="2" stopTime="0.00" timeLoss="182.84" rerouteNo="1" devices="tripinfo_carIn79970:1 routing_carIn79970:1" vType="default_016" speedFactor="0.88" vaporized=""/>
    <tripinfo id="carIn96537:1" depart="57651.00" departLane="201963537#1_1" departPos="5.10" departSpeed="0.00" departDelay="20.30" arrival="57849.00" arrivalLane="104012170_2" arrivalPos="109.94" arrivalSpeed="13.68" duration="198.00" routeLength="293.69" waitingTime="162.00" waitingCount="2" stopTime="0.00" timeLoss="176.35" rerouteNo="1" devices="tripinfo_carIn96537:1 routing_carIn96537:1" vType="default_016" speedFactor="1.00" vaporized=""/>
    <tripinfo id="carIn27195:1" depart="57645.00" departLane="201963537#1_1" departPos="5.10" departSpeed="0.00" departDelay="16.90" arrival="57850.00" arrivalLane="104012170_1" arrivalPos="109.94" arrivalSpeed="14.06" duration="205.00" routeLength="293.69" waitingTime="168.00" waitingCount="2" stopTime="0.00" timeLoss="183.45" rerouteNo="1" devices="tripinfo_carIn27195:1 routing_carIn27195:1" vType="default_016" speedFactor="1.01" vaporized=""/>
    <tripinfo id="carIn13117:1" depart="57638.00" departLane="104010354_1" departPos="5.10" departSpeed="0.00" departDelay="1.40" arrival="57850.00" arrivalLane="124812857#0_2" arrivalPos="143.49" arrivalSpeed="13.66" duration="212.00" routeLength="211.78" waitingTime="188.00" waitingCount="1" stopTime="0.00" timeLoss="196.26" rerouteNo="0" devices="tripinfo_carIn13117:1 routing_carIn13117:1" vType="default_016" speedFactor="1.03" vaporized=""/>
    <tripinfo id="carIn51024:1" depart="57659.00" departLane="201963537#1_1" departPos="5.10" departSpeed="0.00" departDelay="25.00" arrival="57851.00" arrivalLane="104012170_2" arrivalPos="109.94" arrivalSpeed="14.62" duration="192.00" routeLength="293.69" waitingTime="152.00" waitingCount="2" stopTime="0.00" timeLoss="171.31" rerouteNo="1" devices="tripinfo_carIn51024:1 routing_carIn51024:1" vType="default_016" speedFactor="1.07" vaporized=""/>
    <tripinfo id="h20403c1:5" depart="57648.00" departLane="104010354_1" departPos="5.10" departSpeed="0.00" departDelay="1.40" arrival="57851.00" arrivalLane="124812857#0_2" arrivalPos="143.49" arrivalSpeed="14.41" duration="203.00" routeLength="211.78" waitingTime="177.00" waitingCount="1" stopTime="0.00" timeLoss="189.00" rerouteNo="0" devices="tripinfo_h20403c1:5 routing_h20403c1:5" vType="default_016" speedFactor="1.11" vaporized=""/>
    <tripinfo id="carIn26410:1" depart="57655.00" departLane="201963537#1_1" departPos="5.10" departSpeed="0.00" departDelay="22.70" arrival="57852.00" arrivalLane="104012170_1" arrivalPos="109.94" arrivalSpeed="12.01" duration="197.00" routeLength="293.69" waitingTime="157.00" waitingCount="2" stopTime="0.00" timeLoss="174.28" rerouteNo="1" devices="tripinfo_carIn26410:1 routing_carIn26410:1" vType="default_016" speedFactor="0.94" vaporized=""/>
    <tripinfo id="60R.41" depart="57634.00" departLane="104010354_1" departPos="12.10" departSpeed="0.00" departDelay="0.50" arrival="57852.00" arrivalLane="124812857#0_2" arrivalPos="143.49" arrivalSpeed="13.62" duration="218.00" routeLength="204.78" waitingTime="186.00" waitingCount="1" stopTime="0.00" timeLoss="202.47" rerouteNo="0" devices="tripinfo_60R.41 routing_60R.41" vType="bus" speedFactor="1.00" vaporized=""/>
    <tripinfo id="carIn46350:1" depart="57630.00" departLane="201963537#1_1" departPos="5.10" departSpeed="0.00" departDelay="6.80" arrival="57853.00" arrivalLane="-653473569#5_1" arrivalPos="73.05" arrivalSpeed="14.20" duration="223.00" routeLength="256.07" waitingTime="186.00" waitingCount="3" stopTime="0.00" timeLoss="204.09" rerouteNo="1" devices="tripinfo_carIn46350:1 routing_carIn46350:1" vType="default_016" speedFactor="1.04" vaporized=""/>
    <tripinfo id="carIn20106:1" depart="57641.00" departLane="104010354_1" departPos="5.10" departSpeed="0.00" departDelay="1.50" arrival="57854.00" arrivalLane="124812857#0_3" arrivalPos="143.49" arrivalSpeed="13.92" duration="213.00" routeLength="211.78" waitingTime="182.00" waitingCount="1" stopTime="0.00" timeLoss="197.50" rerouteNo="0" devices="tripinfo_carIn20106:1 routing_carIn20106:1" vType="default_016" speedFactor="1.02" vaporized=""/>
    <tripinfo id="carIn75667:1" depart="57635.00" departLane="201963537#1_1" departPos="5.10" departSpeed="0.00" departDelay="10.40" arrival="57855.00" arrivalLane="-653473569#5_1" arrivalPos="73.05" arrivalSpeed="14.90" duration="220.00" routeLength="256.07" waitingTime="182.00" waitingCount="3" stopTime="0.00" timeLoss="201.96" rerouteNo="1" devices="tripinfo_carIn75667:1 routing_carIn75667:1" vType="default_016" speedFactor="1.11" vaporized=""/>
    <tripinfo id="50R_frequency3.17" depart="57861.00" departLane="653473569#5_1" departPos="12.10" departSpeed="0.00" departDelay="0.10" arrival="57889.00" arrivalLane="124812857#0_1" arrivalPos="143.49" arrivalSpeed="13.70" duration="28.00" routeLength="232.18" waitingTime="0.00" waitingCount="0" stopTime="0.00" timeLoss="9.44" rerouteNo="1" devices="tripinfo_50R_frequency3.17 routing_50R_frequency3.17" vType="bus" speedFactor="1.00" vaporized=""/>
    <tripinfo id="h6245c2:1" depart="57868.00" departLane="653473569#5_1" departPos="5.10" departSpeed="0.00" departDelay="3.50" arrival="57889.00" arrivalLane="104012170_2" arrivalPos="109.94" arrivalSpeed="16.05" duration="21.00" routeLength="250.58" waitingTime="0.00" waitingCount="0" stopTime="0.00" timeLoss="5.03" rerouteNo="1" devices="tripinfo_h6245c2:1 routing_h6245c2:1" vType="default_016" speedFactor="1.22" vaporized=""/>
    <tripinfo id="h18601c1:3" depart="57865.00" departLane="653473569#5_1" departPos="5.10" departSpeed="0.00" departDelay="1.90" arrival="57895.00" arrivalLane="124812857#0_1" arrivalPos="143.49" arrivalSpeed="10.52" duration="30.00" routeLength="239.18" waitingTime="0.00" waitingCount="0" stopTime="0.00" timeLoss="5.97" rerouteNo="1" devices="tripinfo_h18601c1:3 routing_h18601c1:3" vType="default_016" speedFactor="0.78" vaporized=""/>
    <tripinfo id="carIn75793:1" depart="57884.00" departLane="653473569#5_1" departPos="5.10" departSpeed="0.00" departDelay="0.80" arrival="57906.00" arrivalLane="104012170_2" arrivalPos="109.94" arrivalSpeed="14.58" duration="22.00" routeLength="250.58" waitingTime="0.00" waitingCount="0" stopTime="0.00" timeLoss="3.80" rerouteNo="1" devices="tripinfo_carIn75793:1 routing_carIn75793:1" vType="default_016" speedFactor="1.07" vaporized=""/>
    <tripinfo id="h19571c2:3" depart="57890.00" departLane="25149219#1_1" departPos="5.10" departSpeed="0.00" departDelay="0.60" arrival="57927.00" arrivalLane="-653473569#5_1" arrivalPos="73.05" arrivalSpeed="14.69" duration="37.00" routeLength="246.10" waitingTime="0.00" waitingCount="0" stopTime="0.00" timeLoss="5.91" rerouteNo="1" devices="tripinfo_h19571c2:3 routing_h19571c2:3" vType="default_016" speedFactor="1.15" vaporized=""/>
    <tripinfo id="carIn76112:1" depart="57640.00" departLane="201963537#1_1" departPos="5.10" departSpeed="0.00" departDelay="14.00" arrival="57944.00" arrivalLane="-653473569#5_1" arrivalPos="73.05" arrivalSpeed="13.86" duration="304.00" routeLength="256.07" waitingTime="265.00" waitingCount="3" stopTime="0.00" timeLoss="285.36" rerouteNo="1" devices="tripinfo_carIn76112:1 routing_carIn76112:1" vType="default_016" speedFactor="1.05" vaporized=""/>
    <tripinfo id="carIn27521:1" depart="57644.00" departLane="201963537#1_1" departPos="5.10" departSpeed="0.00" departDelay="16.50" arrival="57946.00" arrivalLane="-653473569#5_1" arrivalPos="73.05" arrivalSpeed="14.55" duration="302.00" routeLength="256.07" waitingTime="261.00" waitingCount="3" stopTime="0.00" timeLoss="283.55" rerouteNo="1" devices="tripinfo_carIn27521:1 routing_carIn27521:1" vType="default_015" speedFactor="1.05" vaporized=""/>
    <tripinfo id="h21989c1:1" depart="57667.00" departLane="201963537#1_1" departPos="5.10" departSpeed="0.00" departDelay="29.70" arrival="57946.00" arrivalLane="104012170_2" arrivalPos="109.94" arrivalSpeed="14.52" duration="279.00" routeLength="293.69" waitingTime="236.00" waitingCount="3" stopTime="0.00" timeLoss="259.93" rerouteNo="1" devices="tripinfo_h21989c1:1 routing_h21989c1:1" vType="default_016" speedFactor="1.11" vaporized=""/>
    <tripinfo id="carIn128705:1" depart="57663.00" departLane="201963537#1_1" departPos="5.10" departSpeed="0.00" departDelay="27.30" arrival="57948.00" arrivalLane="104012170_1" arrivalPos="109.94" arrivalSpeed="12.14" duration="285.00" routeLength="293.69" waitingTime="239.00" waitingCount="3" stopTime="0.00" timeLoss="261.78" rerouteNo="1" devices="tripinfo_carIn128705:1 routing_carIn128705:1" vType="default_016" speedFactor="0.94" vaporized=""/>
    <tripinfo id="h21130c2:1" depart="57816.00" departLane="201963537#1_1" departPos="5.10" departSpeed="0.00" departDelay="152.60" arrival="57949.00" arrivalLane="104012170_1" arrivalPos="109.94" arrivalSpeed="14.13" duration="133.00" routeLength="293.69" waitingTime="94.00" waitingCount="2" stopTime="0.00" timeLoss="112.54" rerouteNo="1" devices="tripinfo_h21130c2:1 routing_h21130c2:1" vType="default_016" speedFactor="1.04" vaporized=""/>
    <tripinfo id="60.39" depart="57820.00" departLane="201963537#1_1" departPos="12.10" departSpeed="0.00" departDelay="151.50" arrival="57952.00" arrivalLane="104012170_2" arrivalPos="109.94" arrivalSpeed="13.83" duration="132.00" routeLength="286.69" waitingTime="87.00" waitingCount="2" stopTime="0.00" timeLoss="111.36" rerouteNo="1" devices="tripinfo_60.39 routing_60.39" vType="bus" speedFactor="1.00" vaporized=""/>
    <tripinfo id="h8072c1:3" depart="57926.00" departLane="653473569#5_1" departPos="5.10" departSpeed="0.00" departDelay="0.10" arrival="57956.00" arrivalLane="104012170_2" arrivalPos="109.94" arrivalSpeed="12.09" duration="30.00" routeLength="250.58" waitingTime="0.00" waitingCount="0" stopTime="0.00" timeLoss="8.73" rerouteNo="1" devices="tripinfo_h8072c1:3 routing_h8072c1:3" vType="default_016" speedFactor="0.90" vaporized=""/>
    <tripinfo id="h15937c1:3" depart="57963.00" departLane="653473569#5_1" departPos="5.10" departSpeed="0.00" departDelay="0.20" arrival="57988.00" arrivalLane="124812857#0_1" arrivalPos="143.49" arrivalSpeed="12.33" duration="25.00" routeLength="239.18" waitingTime="0.00" waitingCount="0" stopTime="0.00" timeLoss="5.66" rerouteNo="1" devices="tripinfo_h15937c1:3 routing_h15937c1:3" vType="default_016" speedFactor="0.93" vaporized=""/>
    <tripinfo id="carIn85069:1" depart="57966.00" departLane="653473569#5_1" departPos="5.10" departSpeed="0.00" departDelay="1.70" arrival="57989.00" arrivalLane="104012170_2" arrivalPos="109.94" arrivalSpeed="13.09" duration="23.00" routeLength="250.58" waitingTime="0.00" waitingCount="0" stopTime="0.00" timeLoss="4.03" rerouteNo="1" devices="tripinfo_carIn85069:1 routing_carIn85069:1" vType="default_016" speedFactor="0.98" vaporized=""/>
    <tripinfo id="carIn84877:1" depart="57969.00" departLane="653473569#5_1" departPos="5.10" departSpeed="0.00" departDelay="0.40" arrival="57993.00" arrivalLane="124812857#0_1" arrivalPos="143.49" arrivalSpeed="12.81" duration="24.00" routeLength="239.18" waitingTime="0.00" waitingCount="0" stopTime="0.00" timeLoss="5.37" rerouteNo="1" devices="tripinfo_carIn84877:1 routing_carIn84877:1" vType="default_016" speedFactor="1.01" vaporized=""/>
    <tripinfo id="carIn9903:1" depart="57972.00" departLane="653473569#5_1" departPos="5.10" departSpeed="0.00" departDelay="0.90" arrival="57997.00" arrivalLane="104012170_2" arrivalPos="109.94" arrivalSpeed="11.42" duration="25.00" routeLength="250.58" waitingTime="0.00" waitingCount="0" stopTime="0.00" timeLoss="4.37" rerouteNo="1" devices="tripinfo_carIn9903:1 routing_carIn9903:1" vType="default_016" speedFactor="0.90" vaporized=""/>
    <tripinfo id="randUni5976:1" depart="57947.00" departLane="25149219#1_1" departPos="5.10" departSpeed="0.00" departDelay="0.40" arrival="58004.00" arrivalLane="-653473569#5_1" arrivalPos="73.05" arrivalSpeed="12.11" duration="57.00" routeLength="246.10" waitingTime="7.00" waitingCount="1" stopTime="0.00" timeLoss="16.80" rerouteNo="1" devices="tripinfo_randUni5976:1 routing_randUni5976:1" vType="random_016" speedFactor="0.89" vaporized=""/>
    <tripinfo id="carIn56192:1" depart="57981.00" departLane="653473569#5_1" departPos="5.10" departSpeed="0.00" departDelay="0.60" arrival="58005.00" arrivalLane="104012170_2" arrivalPos="109.94" arrivalSpeed="12.92" duration="24.00" routeLength="250.58" waitingTime="0.00" waitingCount="0" stopTime="0.00" timeLoss="3.74" rerouteNo="1" devices="tripinfo_carIn56192:1 routing_carIn56192:1" vType="default_016" speedFactor="0.95" vaporized=""/>
    <tripinfo id="carIn114414:1" depart="57982.00" departLane="653473569#5_1" departPos="5.10" departSpeed="0.00" departDelay="0.00" arrival="58008.00" arrivalLane="104012170_2" arrivalPos="109.94" arrivalSpeed="13.35" duration="26.00" routeLength="250.58" waitingTime="0.00" waitingCount="0" stopTime="0.00" timeLoss="6.33" rerouteNo="1" devices="tripinfo_carIn114414:1 routing_carIn114414:1" vType="default_016" speedFactor="0.98" vaporized=""/>
    <tripinfo id="carIn17767:1" depart="57676.00" departLane="201963537#1_1" departPos="5.10" departSpeed="0.00" departDelay="32.30" arrival="58015.00" arrivalLane="-653473569#5_1" arrivalPos="73.05" arrivalSpeed="11.05" duration="339.00" routeLength="256.07" waitingTime="293.00" waitingCount="6" stopTime="0.00" timeLoss="317.24" rerouteNo="1" devices="tripinfo_carIn17767:1 routing_carIn17767:1" vType="default_016" speedFactor="0.89" vaporized=""/>