<?xml version="1.0" encoding="UTF-8"?>

<!-- generated on 2023-08-31 12:17:35 by Eclipse SUMO libsumo Version 1.18.0
<configuration xmlns:xsi="http://www.w3.org/2001/XMLSchema-instance" xsi:noNamespaceSchemaLocation="http://sumo.dlr.de/xsd/libsumoConfiguration.xsd">

    <input>
        <net-file value="/home/stefan/RESCO/./environments/ingolstadt1/ingolstadt1.net.xml"/>
        <route-files value="/home/stefan/RESCO/./environments/ingolstadt1/ingolstadt1.rou.xml"/>
    </input>

    <output>
        <tripinfo-output value="/home/stefan/results/RAINBOW-tr0-ingolstadt1-0-drq_norm-wait_norm/tripinfo_87.xml"/>
        <tripinfo-output.write-unfinished value="true"/>
    </output>

    <time>
        <begin value="57600"/>
        <end value="61200"/>
    </time>

    <processing>
        <time-to-teleport value="-1"/>
    </processing>

    <report>
        <no-warnings value="True"/>
        <no-step-log value="True"/>
    </report>

    <random_number>
        <random value="true"/>
    </random_number>

</configuration>
-->

<tripinfos xmlns:xsi="http://www.w3.org/2001/XMLSchema-instance" xsi:noNamespaceSchemaLocation="http://sumo.dlr.de/xsd/tripinfo_file.xsd">
    <tripinfo id="carIn105842:1" depart="57601.00" departLane="653473569#5_1" departPos="5.10" departSpeed="0.00" departDelay="0.80" arrival="57630.00" arrivalLane="124812857#0_1" arrivalPos="143.49" arrivalSpeed="10.33" duration="29.00" routeLength="239.18" waitingTime="0.00" waitingCount="0" stopTime="0.00" timeLoss="5.59" rerouteNo="1" devices="tripinfo_carIn105842:1 routing_carIn105842:1" vType="default_016" speedFactor="0.79" vaporized=""/>
    <tripinfo id="carIn28488:1" depart="57611.00" departLane="653473569#5_1" departPos="5.10" departSpeed="0.00" departDelay="0.80" arrival="57634.00" arrivalLane="124812857#0_1" arrivalPos="143.49" arrivalSpeed="15.13" duration="23.00" routeLength="239.18" waitingTime="0.00" waitingCount="0" stopTime="0.00" timeLoss="6.07" rerouteNo="1" devices="tripinfo_carIn28488:1 routing_carIn28488:1" vType="default_016" speedFactor="1.12" vaporized=""/>
    <tripinfo id="carIn106322:1" depart="57614.00" departLane="653473569#5_1" departPos="5.10" departSpeed="0.00" departDelay="2.20" arrival="57636.00" arrivalLane="124812857#0_1" arrivalPos="143.49" arrivalSpeed="15.35" duration="22.00" routeLength="239.18" waitingTime="0.00" waitingCount="0" stopTime="0.00" timeLoss="6.49" rerouteNo="1" devices="tripinfo_carIn106322:1 routing_carIn106322:1" vType="default_016" speedFactor="1.14" vaporized=""/>
    <tripinfo id="carIn5482:1" depart="57617.00" departLane="653473569#5_1" departPos="5.10" departSpeed="0.00" departDelay="3.60" arrival="57640.00" arrivalLane="124812857#0_1" arrivalPos="143.49" arrivalSpeed="14.02" duration="23.00" routeLength="239.18" waitingTime="0.00" waitingCount="0" stopTime="0.00" timeLoss="5.75" rerouteNo="1" devices="tripinfo_carIn5482:1 routing_carIn5482:1" vType="default_016" speedFactor="1.10" vaporized=""/>
    <tripinfo id="carIn36103:1" depart="57619.00" departLane="653473569#5_1" departPos="5.10" departSpeed="0.00" departDelay="3.00" arrival="57647.00" arrivalLane="124812857#0_1" arrivalPos="143.49" arrivalSpeed="11.45" duration="28.00" routeLength="239.18" waitingTime="0.00" waitingCount="0" stopTime="0.00" timeLoss="5.54" rerouteNo="1" devices="tripinfo_carIn36103:1 routing_carIn36103:1" vType="default_016" speedFactor="0.82" vaporized=""/>
    <tripinfo id="carIn102997:1" depart="57622.00" departLane="653473569#5_1" departPos="5.10" departSpeed="0.00" departDelay="3.80" arrival="57649.00" arrivalLane="124812857#0_1" arrivalPos="143.49" arrivalSpeed="11.99" duration="27.00" routeLength="239.18" waitingTime="0.00" waitingCount="0" stopTime="0.00" timeLoss="6.32" rerouteNo="1" devices="tripinfo_carIn102997:1 routing_carIn102997:1" vType="default_016" speedFactor="0.91" vaporized=""/>
    <tripinfo id="carIn75554:1" depart="57625.00" departLane="653473569#5_1" departPos="5.10" departSpeed="0.00" departDelay="4.20" arrival="57652.00" arrivalLane="124812857#0_1" arrivalPos="143.49" arrivalSpeed="11.97" duration="27.00" routeLength="239.18" waitingTime="0.00" waitingCount="0" stopTime="0.00" timeLoss="6.74" rerouteNo="1" devices="tripinfo_carIn75554:1 routing_carIn75554:1" vType="default_016" speedFactor="0.91" vaporized=""/>
    <tripinfo id="randUni20090:1" depart="57628.00" departLane="653473569#5_1" departPos="5.10" departSpeed="0.00" departDelay="0.00" arrival="57654.00" arrivalLane="124812857#0_1" arrivalPos="143.49" arrivalSpeed="12.85" duration="26.00" routeLength="239.18" waitingTime="0.00" waitingCount="0" stopTime="0.00" timeLoss="7.65" rerouteNo="1" devices="tripinfo_randUni20090:1 routing_randUni20090:1" vType="random_016" speedFactor="1.01" vaporized=""/>
    <tripinfo id="carIn37268:1" depart="57636.00" departLane="653473569#5_1" departPos="5.10" departSpeed="0.00" departDelay="0.90" arrival="57659.00" arrivalLane="124812857#0_1" arrivalPos="143.49" arrivalSpeed="14.44" duration="23.00" routeLength="239.18" waitingTime="0.00" waitingCount="0" stopTime="0.00" timeLoss="6.83" rerouteNo="1" devices="tripinfo_carIn37268:1 routing_carIn37268:1" vType="default_016" speedFactor="1.12" vaporized=""/>
    <tripinfo id="carIn129760:1" depart="57661.00" departLane="653473569#5_1" departPos="5.10" departSpeed="0.00" departDelay="0.80" arrival="57684.00" arrivalLane="124812857#0_1" arrivalPos="143.49" arrivalSpeed="14.11" duration="23.00" routeLength="239.18" waitingTime="0.00" waitingCount="0" stopTime="0.00" timeLoss="5.91" rerouteNo="1" devices="tripinfo_carIn129760:1 routing_carIn129760:1" vType="default_016" speedFactor="1.05" vaporized=""/>
    <tripinfo id="carIn129626:1" depart="57664.00" departLane="653473569#5_1" departPos="5.10" departSpeed="0.00" departDelay="1.60" arrival="57688.00" arrivalLane="124812857#0_1" arrivalPos="143.49" arrivalSpeed="14.37" duration="24.00" routeLength="239.18" waitingTime="0.00" waitingCount="0" stopTime="0.00" timeLoss="6.26" rerouteNo="1" devices="tripinfo_carIn129626:1 routing_carIn129626:1" vType="default_016" speedFactor="1.04" vaporized=""/>
    <tripinfo id="h20539c1:3" depart="57667.00" departLane="653473569#5_1" departPos="5.10" departSpeed="0.00" departDelay="2.20" arrival="57694.00" arrivalLane="124812857#0_1" arrivalPos="143.49" arrivalSpeed="11.07" duration="27.00" routeLength="239.18" waitingTime="0.00" waitingCount="0" stopTime="0.00" timeLoss="5.95" rerouteNo="1" devices="tripinfo_h20539c1:3 routing_h20539c1:3" vType="default_016" speedFactor="0.87" vaporized=""/>
    <tripinfo id="carIn91254:1" depart="57696.00" departLane="653473569#5_1" departPos="5.10" departSpeed="0.00" departDelay="0.10" arrival="57724.00" arrivalLane="124812857#0_1" arrivalPos="143.49" arrivalSpeed="11.02" duration="28.00" routeLength="239.18" waitingTime="0.00" waitingCount="0" stopTime="0.00" timeLoss="5.30" rerouteNo="1" devices="tripinfo_carIn91254:1 routing_carIn91254:1" vType="default_016" speedFactor="0.81" vaporized=""/>
    <tripinfo id="carIn70484:1" depart="57724.00" departLane="653473569#5_1" departPos="5.10" departSpeed="0.00" departDelay="0.60" arrival="57748.00" arrivalLane="104012170_2" arrivalPos="109.94" arrivalSpeed="13.20" duration="24.00" routeLength="250.58" waitingTime="0.00" waitingCount="0" stopTime="0.00" timeLoss="4.85" rerouteNo="1" devices="tripinfo_carIn70484:1 routing_carIn70484:1" vType="default_016" speedFactor="1.00" vaporized=""/>
    <tripinfo id="carIn106797:1" depart="57726.00" departLane="653473569#5_1" departPos="5.10" departSpeed="0.00" departDelay="1.00" arrival="57750.00" arrivalLane="124812857#0_1" arrivalPos="143.49" arrivalSpeed="13.40" duration="24.00" routeLength="239.18" waitingTime="0.00" waitingCount="0" stopTime="0.00" timeLoss="5.57" rerouteNo="1" devices="tripinfo_carIn106797:1 routing_carIn106797:1" vType="default_016" speedFactor="0.99" vaporized=""/>
    <tripinfo id="carIn26708:1" depart="57729.00" departLane="653473569#5_1" departPos="5.10" departSpeed="0.00" departDelay="2.40" arrival="57755.00" arrivalLane="124812857#0_1" arrivalPos="143.49" arrivalSpeed="11.96" duration="26.00" routeLength="239.18" waitingTime="0.00" waitingCount="0" stopTime="0.00" timeLoss="6.30" rerouteNo="1" devices="tripinfo_carIn26708:1 routing_carIn26708:1" vType="default_016" speedFactor="0.94" vaporized=""/>
    <tripinfo id="carIn48988:1" depart="57732.00" departLane="653473569#5_1" departPos="5.10" departSpeed="0.00" departDelay="3.90" arrival="57755.00" arrivalLane="104012170_2" arrivalPos="109.94" arrivalSpeed="13.31" duration="23.00" routeLength="250.58" waitingTime="0.00" waitingCount="0" stopTime="0.00" timeLoss="4.13" rerouteNo="1" devices="tripinfo_carIn48988:1 routing_carIn48988:1" vType="default_016" speedFactor="0.99" vaporized=""/>
    <tripinfo id="carIn34550:1" depart="57734.00" departLane="653473569#5_1" departPos="5.10" departSpeed="0.00" departDelay="3.60" arrival="57757.00" arrivalLane="124812857#0_1" arrivalPos="143.49" arrivalSpeed="14.94" duration="23.00" routeLength="239.18" waitingTime="0.00" waitingCount="0" stopTime="0.00" timeLoss="6.33" rerouteNo="1" devices="tripinfo_carIn34550:1 routing_carIn34550:1" vType="default_016" speedFactor="1.08" vaporized=""/>
    <tripinfo id="carIn41791:1" depart="57737.00" departLane="653473569#5_1" departPos="5.10" departSpeed="0.00" departDelay="4.80" arrival="57761.00" arrivalLane="124812857#0_1" arrivalPos="143.49" arrivalSpeed="13.54" duration="24.00" routeLength="239.18" waitingTime="0.00" waitingCount="0" stopTime="0.00" timeLoss="5.90" rerouteNo="1" devices="tripinfo_carIn41791:1 routing_carIn41791:1" vType="default_016" speedFactor="1.01" vaporized=""/>
    <tripinfo id="carIn13016:1" depart="57740.00" departLane="653473569#5_1" departPos="5.10" departSpeed="0.00" departDelay="4.50" arrival="57765.00" arrivalLane="124812857#0_1" arrivalPos="143.49" arrivalSpeed="12.74" duration="25.00" routeLength="239.18" waitingTime="0.00" waitingCount="0" stopTime="0.00" timeLoss="5.11" rerouteNo="1" devices="tripinfo_carIn13016:1 routing_carIn13016:1" vType="default_016" speedFactor="0.92" vaporized=""/>
    <tripinfo id="carIn70477:1" depart="57742.00" departLane="653473569#5_1" departPos="5.10" departSpeed="0.00" departDelay="4.20" arrival="57770.00" arrivalLane="124812857#0_1" arrivalPos="143.49" arrivalSpeed="11.34" duration="28.00" routeLength="239.18" waitingTime="0.00" waitingCount="0" stopTime="0.00" timeLoss="5.71" rerouteNo="1" devices="tripinfo_carIn70477:1 routing_carIn70477:1" vType="default_016" speedFactor="0.83" vaporized=""/>
    <tripinfo id="randUni26227:1" depart="57746.00" departLane="653473569#5_1" departPos="5.10" departSpeed="0.00" departDelay="5.50" arrival="57772.00" arrivalLane="124812857#0_1" arrivalPos="143.49" arrivalSpeed="12.70" duration="26.00" routeLength="239.18" waitingTime="0.00" waitingCount="0" stopTime="0.00" timeLoss="6.68" rerouteNo="1" devices="tripinfo_randUni26227:1 routing_randUni26227:1" vType="random_016" speedFactor="0.96" vaporized=""/>
    <tripinfo id="carIn86816:1" depart="57769.00" departLane="653473569#5_1" departPos="5.10" departSpeed="0.00" departDelay="0.70" arrival="57792.00" arrivalLane="124812857#0_1" arrivalPos="143.49" arrivalSpeed="13.54" duration="23.00" routeLength="239.18" waitingTime="0.00" waitingCount="0" stopTime="0.00" timeLoss="5.66" rerouteNo="1" devices="tripinfo_carIn86816:1 routing_carIn86816:1" vType="default_016" speedFactor="1.03" vaporized=""/>
    <tripinfo id="carIn102915:1" depart="57811.00" departLane="653473569#5_1" departPos="5.10" departSpeed="0.00" departDelay="0.90" arrival="57835.00" arrivalLane="124812857#0_1" arrivalPos="143.49" arrivalSpeed="14.32" duration="24.00" routeLength="239.18" waitingTime="0.00" waitingCount="0" stopTime="0.00" timeLoss="6.36" rerouteNo="1" devices="tripinfo_carIn102915:1 routing_carIn102915:1" vType="default_016" speedFactor="1.05" vaporized=""/>
    <tripinfo id="randUni33724:1" depart="57814.00" departLane="653473569#5_1" departPos="5.10" departSpeed="0.00" departDelay="2.20" arrival="57839.00" arrivalLane="124812857#0_1" arrivalPos="143.49" arrivalSpeed="12.99" duration="25.00" routeLength="239.18" waitingTime="0.00" waitingCount="0" stopTime="0.00" timeLoss="5.70" rerouteNo="1" devices="tripinfo_randUni33724:1 routing_randUni33724:1" vType="random_016" speedFactor="0.95" vaporized=""/>
    <tripinfo id="50R_frequency3.17" depart="57861.00" departLane="653473569#5_1" departPos="12.10" departSpeed="0.00" departDelay="0.10" arrival="57889.00" arrivalLane="124812857#0_1" arrivalPos="143.49" arrivalSpeed="13.80" duration="28.00" routeLength="232.18" waitingTime="0.00" waitingCount="0" stopTime="0.00" timeLoss="9.98" rerouteNo="1" devices="tripinfo_50R_frequency3.17 routing_50R_frequency3.17" vType="bus" speedFactor="1.00" vaporized=""/>
    <tripinfo id="h6245c2:1" depart="57868.00" departLane="653473569#5_1" departPos="5.10" departSpeed="0.00" departDelay="3.50" arrival="57891.00" arrivalLane="104012170_2" arrivalPos="109.94" arrivalSpeed="15.05" duration="23.00" routeLength="250.58" waitingTime="0.00" waitingCount="0" stopTime="0.00" timeLoss="5.29" rerouteNo="1" devices="tripinfo_h6245c2:1 routing_h6245c2:1" vType="default_016" speedFactor="1.08" vaporized=""/>
    <tripinfo id="h18601c1:3" depart="57865.00" departLane="653473569#5_1" departPos="5.10" departSpeed="0.00" departDelay="1.90" arrival="57893.00" arrivalLane="124812857#0_1" arrivalPos="143.49" arrivalSpeed="12.26" duration="28.00" routeLength="239.18" waitingTime="0.00" waitingCount="0" stopTime="0.00" timeLoss="7.64" rerouteNo="1" devices="tripinfo_h18601c1:3 routing_h18601c1:3" vType="default_016" speedFactor="0.93" vaporized=""/>
    <tripinfo id="carIn75793:1" depart="57884.00" departLane="653473569#5_1" departPos="5.10" departSpeed="0.00" departDelay="0.80" arrival="57905.00" arrivalLane="104012170_2" arrivalPos="109.94" arrivalSpeed="14.13" duration="21.00" routeLength="250.58" waitingTime="0.00" waitingCount="0" stopTime="0.00" timeLoss="3.85" rerouteNo="1" devices="tripinfo_carIn75793:1 routing_carIn75793:1" vType="default_016" speedFactor="1.10" vaporized=""/>
    <tripinfo id="h19571c2:3" depart="57890.00" departLane="25149219#1_1" departPos="5.10" departSpeed="0.00" departDelay="0.60" arrival="57928.00" arrivalLane="-653473569#5_1" arrivalPos="73.05" arrivalSpeed="15.02" duration="38.00" routeLength="246.10" waitingTime="0.00" waitingCount="0" stopTime="0.00" timeLoss="5.65" rerouteNo="1" devices="tripinfo_h19571c2:3 routing_h19571c2:3" vType="default_016" speedFactor="1.12" vaporized=""/>
    <tripinfo id="h8072c1:3" depart="57926.00" departLane="653473569#5_1" departPos="5.10" departSpeed="0.00" departDelay="0.10" arrival="57948.00" arrivalLane="104012170_2" arrivalPos="109.94" arrivalSpeed="13.74" duration="22.00" routeLength="250.58" waitingTime="0.00" waitingCount="0" stopTime="0.00" timeLoss="3.93" rerouteNo="1" devices="tripinfo_h8072c1:3 routing_h8072c1:3" vType="default_016" speedFactor="1.02" vaporized=""/>
    <tripinfo id="h15937c1:3" depart="57963.00" departLane="653473569#5_1" departPos="5.10" departSpeed="0.00" departDelay="0.20" arrival="57988.00" arrivalLane="124812857#0_1" arrivalPos="143.49" arrivalSpeed="12.47" duration="25.00" routeLength="239.18" waitingTime="0.00" waitingCount="0" stopTime="0.00" timeLoss="6.32" rerouteNo="1" devices="tripinfo_h15937c1:3 routing_h15937c1:3" vType="default_016" speedFactor="0.98" vaporized=""/>
    <tripinfo id="carIn85069:1" depart="57966.00" departLane="653473569#5_1" departPos="5.10" departSpeed="0.00" departDelay="1.70" arrival="57990.00" arrivalLane="104012170_2" arrivalPos="109.94" arrivalSpeed="13.36" duration="24.00" routeLength="250.58" waitingTime="0.00" waitingCount="0" stopTime="0.00" timeLoss="4.22" rerouteNo="1" devices="tripinfo_carIn85069:1 routing_carIn85069:1" vType="default_016" speedFactor="0.98" vaporized=""/>
    <tripinfo id="carIn84877:1" depart="57969.00" departLane="653473569#5_1" departPos="5.10" departSpeed="0.00" departDelay="0.40" arrival="57993.00" arrivalLane="124812857#0_1" arrivalPos="143.49" arrivalSpeed="13.53" duration="24.00" routeLength="239.18" waitingTime="0.00" waitingCount="0" stopTime="0.00" timeLoss="5.63" rerouteNo="1" devices="tripinfo_carIn84877:1 routing_carIn84877:1" vType="default_016" speedFactor="1.00" vaporized=""/>
    <tripinfo id="carIn9903:1" depart="57972.00" departLane="653473569#5_1" departPos="5.10" departSpeed="0.00" departDelay="0.90" arrival="57993.00" arrivalLane="104012170_2" arrivalPos="109.94" arrivalSpeed="14.09" duration="21.00" routeLength="250.58" waitingTime="0.00" waitingCount="0" stopTime="0.00" timeLoss="4.24" rerouteNo="1" devices="tripinfo_carIn9903:1 routing_carIn9903:1" vType="default_016" speedFactor="1.11" vaporized=""/>
    <tripinfo id="randUni5976:1" depart="57947.00" departLane="25149219#1_1" departPos="5.10" departSpeed="0.00" departDelay="0.40" arrival="58003.00" arrivalLane="-653473569#5_1" arrivalPos="73.05" arrivalSpeed="10.33" duration="56.00" routeLength="246.10" waitingTime="1.00" waitingCount="1" stopTime="0.00" timeLoss="12.08" rerouteNo="1" devices="tripinfo_randUni5976:1 routing_randUni5976:1" vType="random_016" speedFactor="0.82" vaporized=""/>
    <tripinfo id="carIn56192:1" depart="57981.00" departLane="653473569#5_1" departPos="5.10" departSpeed="0.00" departDelay="0.60" arrival="58004.00" arrivalLane="104012170_2" arrivalPos="109.94" arrivalSpeed="12.76" duration="23.00" routeLength="250.58" waitingTime="0.00" waitingCount="0" stopTime="0.00" timeLoss="3.98" rerouteNo="1" devices="tripinfo_carIn56192:1 routing_carIn56192:1" vType="default_016" speedFactor="1.01" vaporized=""/>
    <tripinfo id="carIn114414:1" depart="57983.00" departLane="653473569#5_1" departPos="5.10" departSpeed="0.00" departDelay="1.00" arrival="58005.00" arrivalLane="104012170_2" arrivalPos="109.94" arrivalSpeed="13.99" duration="22.00" routeLength="250.58" waitingTime="0.00" waitingCount="0" stopTime="0.00" timeLoss="4.99" rerouteNo="1" devices="tripinfo_carIn114414:1 routing_carIn114414:1" vType="default_016" speedFactor="1.09" vaporized=""/>
    <tripinfo id="h14212c1:3" depart="57970.00" departLane="25149219#1_1" departPos="5.10" departSpeed="0.00" departDelay="0.00" arrival="58010.00" arrivalLane="-653473569#5_1" arrivalPos="73.05" arrivalSpeed="14.01" duration="40.00" routeLength="246.10" waitingTime="0.00" waitingCount="0" stopTime="0.00" timeLoss="6.19" rerouteNo="1" devices="tripinfo_h14212c1:3 routing_h14212c1:3" vType="default_016" speedFactor="1.04" vaporized=""/>
    <tripinfo id="h19940c1:1" depart="57973.00" departLane="25149219#1_1" departPos="5.10" departSpeed="0.00" departDelay="0.30" arrival="58014.00" arrivalLane="-653473569#5_1" arrivalPos="73.05" arrivalSpeed="14.16" duration="41.00" routeLength="246.10" waitingTime="0.00" waitingCount="0" stopTime="0.00" timeLoss="5.75" rerouteNo="1" devices="tripinfo_h19940c1:1 routing_h19940c1:1" vType="default_016" speedFactor="1.02" vaporized=""/>
    <tripinfo id="carIn60827:1" depart="57976.00" departLane="25149219#1_1" departPos="5.10" departSpeed="0.00" departDelay="0.70" arrival="58027.00" arrivalLane="-653473569#5_1" arrivalPos="73.05" arrivalSpeed="11.16" duration="51.00" routeLength="246.10" waitingTime="0.00" waitingCount="0" stopTime="0.00" timeLoss="8.19" rerouteNo="1" devices="tripinfo_carIn60827:1 routing_carIn60827:1" vType="default_016" speedFactor="0.84" vaporized=""/>
    <tripinfo id="h15631c1:1" depart="57979.00" departLane="25149219#1_1" departPos="5.10" departSpeed="0.00" departDelay="1.10" arrival="58029.00" arrivalLane="-653473569#5_1" arrivalPos="73.05" arrivalSpeed="14.59" duration="50.00" routeLength="246.10" waitingTime="0.00" waitingCount="0" stopTime="0.00" timeLoss="16.65" rerouteNo="1" devices="tripinfo_h15631c1:1 routing_h15631c1:1" vType="default_016" speedFactor="1.08" vaporized=""/>
    <tripinfo id="carIn84735:1" depart="57983.00" departLane="25149219#1_1" departPos="5.10" departSpeed="0.00" departDelay="2.50" arrival="58038.00" arrivalLane="-653473569#5_1" arrivalPos="73.05" arrivalSpeed="11.90" duration="55.00" routeLength="246.10" waitingTime="4.00" waitingCount="1" stopTime="0.00" timeLoss="16.44" rerouteNo="1" devices="tripinfo_carIn84735:1 routing_carIn84735:1" vType="default_016" speedFactor="0.93" vaporized=""/>
    <tripinfo id="h1498c1:1" depart="58019.00" departLane="653473569#5_1" departPos="5.10" departSpeed="0.00" departDelay="0.60" arrival="58042.00" arrivalLane="124812857#0_1" arrivalPos="143.49" arrivalSpeed="14.28" duration="23.00" routeLength="239.18" waitingTime="0.00" waitingCount="0" stopTime="0.00" timeLoss="5.64" rerouteNo="1" devices="tripinfo_h1498c1:1 routing_h1498c1:1" vType="default_016" speedFactor="1.07" vaporized=""/>
    <tripinfo id="h20688c2:1" depart="57999.00" departLane="25149219#1_1" departPos="5.10" departSpeed="0.00" departDelay="0.60" arrival="58043.00" arrivalLane="-653473569#5_1" arrivalPos="73.05" arrivalSpeed="13.82" duration="44.00" routeLength="246.10" waitingTime="0.00" waitingCount="0" stopTime="0.00" timeLoss="8.55" rerouteNo="1" devices="tripinfo_h20688c2:1 routing_h20688c2:1" vType="default_016" speedFactor="1.01" vaporized=""/>
    <tripinfo id="carIn127325:1" depart="58023.00" departLane="653473569#5_1" departPos="5.10" departSpeed="0.00" departDelay="0.00" arrival="58047.00" arrivalLane="124812857#0_1" arrivalPos="143.49" arrivalSpeed="13.98" duration="24.00" routeLength="239.18" waitingTime="0.00" waitingCount="0" stopTime="0.00" timeLoss="7.05" rerouteNo="1" devices="tripinfo_carIn127325:1 routing_carIn127325:1" vType="default_016" speedFactor="1.07" vaporized=""/>
    <tripinfo id="h7703c2:3" depart="58004.00" departLane="25149219#1_1" departPos="5.10" departSpeed="0.00" departDelay="0.60" arrival="58053.00" arrivalLane="104012170_2" arrivalPos="109.94" arrivalSpeed="13.10" duration="49.00" routeLength="341.48" waitingTime="0.00" waitingCount="0" stopTime="0.00" timeLoss="6.30" rerouteNo="1" devices="tripinfo_h7703c2:3 routing_h7703c2:3" vType="default_016" speedFactor="1.01" vaporized=""/>
    <tripinfo id="carIn38599:1" depart="58038.00" departLane="653473569#5_1" departPos="5.10" departSpeed="0.00" departDelay="0.20" arrival="58060.00" arrivalLane="124812857#0_1" arrivalPos="143.49" arrivalSpeed="14.34" duration="22.00" routeLength="239.18" waitingTime="0.00" waitingCount="0" stopTime="0.00" timeLoss="5.09" rerouteNo="1" devices="tripinfo_carIn38599:1 routing_carIn38599:1" vType="default_016" speedFactor="1.07" vaporized=""/>
    <tripinfo id="randUni2621:1" depart="58045.00" departLane="653473569#5_1" departPos="5.10" departSpeed="0.00" departDelay="0.00" arrival="58072.00" arrivalLane="124812857#0_1" arrivalPos="143.49" arrivalSpeed="10.84" duration="27.00" routeLength="239.18" waitingTime="0.00" waitingCount="0" stopTime="0.00" timeLoss="5.00" rerouteNo="1" devices="tripinfo_randUni2621:1 routing_randUni2621:1" vType="random_016" speedFactor="0.85" vaporized=""/>
    <tripinfo id="carIn37367:1" depart="58054.00" departLane="653473569#5_1" departPos="5.10" departSpeed="0.00" departDelay="0.20" arrival="58078.00" arrivalLane="124812857#0_1" arrivalPos="143.49" arrivalSpeed="12.45" duration="24.00" routeLength="239.18" waitingTime="0.00" waitingCount="0" stopTime="0.00" timeLoss="5.41" rerouteNo="1" devices="tripinfo_carIn37367:1 routing_carIn37367:1" vType="default_016" speedFactor="0.96" vaporized=""/>
    <tripinfo id="carIn72005:1" depart="58013.00" departLane="25149219#1_1" departPos="5.10" departSpeed="0.00" departDelay="0.90" arrival="58082.00" arrivalLane="-653473569#5_1" arrivalPos="73.05" arrivalSpeed="9.89" duration="69.00" routeLength="246.10" waitingTime="10.00" waitingCount="1" stopTime="0.00" timeLoss="20.24" rerouteNo="1" devices="tripinfo_carIn72005:1 routing_carIn72005:1" vType="default_016" speedFactor="0.74" vaporized=""/>
    <tripinfo id="carIn68143:1" depart="58016.00" departLane="25149219#1_1" departPos="5.10" departSpeed="0.00" departDelay="1.40" arrival="58083.00" arrivalLane="-653473569#5_1" arrivalPos="73.05" arrivalSpeed="11.81" duration="67.00" routeLength="246.10" waitingTime="9.00" waitingCount="1" stopTime="0.00" timeLoss="33.29" rerouteNo="1" devices="tripinfo_carIn68143:1 routing_carIn68143:1" vType="default_016" speedFactor="1.05" vaporized=""/>
    <tripinfo id="carIn38141:1" depart="58059.00" departLane="653473569#5_1" departPos="5.10" departSpeed="0.00" departDelay="0.90" arrival="58084.00" arrivalLane="104012170_2" arrivalPos="109.94" arrivalSpeed="11.53" duration="25.00" routeLength="250.58" waitingTime="0.00" waitingCount="0" stopTime="0.00" timeLoss="4.17" rerouteNo="1" devices="tripinfo_carIn38141:1 routing_carIn38141:1" vType="default_016" speedFactor="0.91" vaporized=""/>
    <tripinfo id="carIn76776:1" depart="58061.00" departLane="653473569#5_1" departPos="5.10" departSpeed="0.00" departDelay="1.30" arrival="58086.00" arrivalLane="104012170_2" arrivalPos="109.94" arrivalSpeed="13.72" duration="25.00" routeLength="250.58" waitingTime="0.00" waitingCount="0" stopTime="0.00" timeLoss="6.48" rerouteNo="1" devices="tripinfo_carIn76776:1 routing_carIn76776:1" vType="default_016" speedFactor="1.04" vaporized=""/>
    <tripinfo id="carIn11789:1" depart="58019.00" departLane="25149219#1_1" departPos="5.10" departSpeed="0.00" departDelay="1.90" arrival="58090.00" arrivalLane="-653473569#5_1" arrivalPos="73.05" arrivalSpeed="13.65" duration="71.00" routeLength="246.10" waitingTime="10.00" waitingCount="2" stopTime="0.00" timeLoss="37.27" rerouteNo="1" devices="tripinfo_carIn11789:1 routing_carIn11789:1" vType="default_016" speedFactor="1.08" vaporized=""/>
    <tripinfo id="carIn7612:1" depart="58022.00" departLane="25149219#1_1" departPos="5.10" departSpeed="0.00" departDelay="2.40" arrival="58093.00" arrivalLane="-653473569#5_1" arrivalPos="73.05" arrivalSpeed="11.51" duration="71.00" routeLength="246.10" waitingTime="8.00" waitingCount="2" stopTime="0.00" timeLoss="31.32" rerouteNo="1" devices="tripinfo_carIn7612:1 routing_carIn7612:1" vType="default_016" speedFactor="0.90" vaporized=""/>
    <tripinfo id="carIn127284:1" depart="58071.00" departLane="653473569#5_1" departPos="5.10" departSpeed="0.00" departDelay="0.40" arrival="58095.00" arrivalLane="104012170_2" arrivalPos="109.94" arrivalSpeed="13.14" duration="24.00" routeLength="250.58" waitingTime="0.00" waitingCount="0" stopTime="0.00" timeLoss="4.32" rerouteNo="1" devices="tripinfo_carIn127284:1 routing_carIn127284:1" vType="default_016" speedFactor="0.98" vaporized=""/>
    <tripinfo id="carIn24856:1" depart="58063.00" departLane="25149219#1_1" departPos="5.10" departSpeed="0.00" departDelay="0.00" arrival="58104.00" arrivalLane="-653473569#5_1" arrivalPos="73.05" arrivalSpeed="13.93" duration="41.00" routeLength="246.10" waitingTime="0.00" waitingCount="0" stopTime="0.00" timeLoss="6.49" rerouteNo="1" devices="tripinfo_carIn24856:1 routing_carIn24856:1" vType="default_016" speedFactor="1.04" vaporized=""/>
    <tripinfo id="carIn98213:1" depart="58066.00" departLane="25149219#1_1" departPos="5.10" departSpeed="0.00" departDelay="0.30" arrival="58107.00" arrivalLane="-653473569#5_1" arrivalPos="73.05" arrivalSpeed="13.66" duration="41.00" routeLength="246.10" waitingTime="0.00" waitingCount="0" stopTime="0.00" timeLoss="7.47" rerouteNo="1" devices="tripinfo_carIn98213:1 routing_carIn98213:1" vType="default_016" speedFactor="1.07" vaporized=""/>
    <tripinfo id="h923c1:1" depart="58069.00" departLane="25149219#1_1" departPos="5.10" departSpeed="0.00" departDelay="0.80" arrival="58116.00" arrivalLane="-653473569#5_1" arrivalPos="73.05" arrivalSpeed="11.72" duration="47.00" routeLength="246.10" waitingTime="0.00" waitingCount="0" stopTime="0.00" timeLoss="7.65" rerouteNo="1" devices="tripinfo_h923c1:1 routing_h923c1:1" vType="default_016" speedFactor="0.91" vaporized=""/>
    <tripinfo id="carIn127301:1" depart="58072.00" departLane="25149219#1_1" departPos="5.10" departSpeed="0.00" departDelay="1.20" arrival="58118.00" arrivalLane="-653473569#5_1" arrivalPos="73.05" arrivalSpeed="14.28" duration="46.00" routeLength="246.10" waitingTime="0.00" waitingCount="0" stopTime="0.00" timeLoss="12.28" rerouteNo="1" devices="tripinfo_carIn127301:1 routing_carIn127301:1" vType="default_016" speedFactor="1.07" vaporized=""/>
    <tripinfo id="carIn32403:1" depart="58075.00" departLane="25149219#1_1" departPos="5.10" departSpeed="0.00" departDelay="1.60" arrival="58122.00" arrivalLane="-653473569#5_1" arrivalPos="73.05" arrivalSpeed="12.16" duration="47.00" routeLength="246.10" waitingTime="0.00" waitingCount="0" stopTime="0.00" timeLoss="8.66" rerouteNo="1" devices="tripinfo_carIn32403:1 routing_carIn32403:1" vType="default_016" speedFactor="0.94" vaporized=""/>
    <tripinfo id="carIn29260:1" depart="58103.00" departLane="25149219#1_1" departPos="5.10" departSpeed="0.00" departDelay="0.20" arrival="58148.00" arrivalLane="-653473569#5_1" arrivalPos="73.05" arrivalSpeed="12.89" duration="45.00" routeLength="246.10" waitingTime="0.00" waitingCount="0" stopTime="0.00" timeLoss="7.05" rerouteNo="1" devices="tripinfo_carIn29260:1 routing_carIn29260:1" vType="default_016" speedFactor="0.95" vaporized=""/>
    <tripinfo id="carIn48247:1" depart="58126.00" departLane="653473569#5_1" departPos="5.10" departSpeed="0.00" departDelay="0.50" arrival="58149.00" arrivalLane="104012170_2" arrivalPos="109.94" arrivalSpeed="13.43" duration="23.00" routeLength="250.58" waitingTime="0.00" waitingCount="0" stopTime="0.00" timeLoss="3.87" rerouteNo="1" devices="tripinfo_carIn48247:1 routing_carIn48247:1" vType="default_016" speedFactor="0.99" vaporized=""/>