<?xml version="1.0" encoding="UTF-8"?>

<!-- generated on 2023-08-31 12:16:49 by Eclipse SUMO libsumo Version 1.18.0
<configuration xmlns:xsi="http://www.w3.org/2001/XMLSchema-instance" xsi:noNamespaceSchemaLocation="http://sumo.dlr.de/xsd/libsumoConfiguration.xsd">

    <input>
        <net-file value="/home/stefan/RESCO/./environments/ingolstadt1/ingolstadt1.net.xml"/>
        <route-files value="/home/stefan/RESCO/./environments/ingolstadt1/ingolstadt1.rou.xml"/>
    </input>

    <output>
        <tripinfo-output value="/home/stefan/results/RAINBOW-tr0-ingolstadt1-0-drq_norm-wait_norm/tripinfo_74.xml"/>
        <tripinfo-output.write-unfinished value="true"/>
    </output>

    <time>
        <begin value="57600"/>
        <end value="61200"/>
    </time>

    <processing>
        <time-to-teleport value="-1"/>
    </processing>

    <report>
        <no-warnings value="True"/>
        <no-step-log value="True"/>
    </report>

    <random_number>
        <random value="true"/>
    </random_number>

</configuration>
-->

<tripinfos xmlns:xsi="http://www.w3.org/2001/XMLSchema-instance" xsi:noNamespaceSchemaLocation="http://sumo.dlr.de/xsd/tripinfo_file.xsd">
    <tripinfo id="h8750c1:1" depart="57609.00" departLane="104010354_1" departPos="5.10" departSpeed="0.00" departDelay="0.50" arrival="57626.00" arrivalLane="124812857#0_2" arrivalPos="143.49" arrivalSpeed="16.35" duration="17.00" routeLength="211.78" waitingTime="0.00" waitingCount="0" stopTime="0.00" timeLoss="4.07" rerouteNo="0" devices="tripinfo_h8750c1:1 routing_h8750c1:1" vType="default_016" speedFactor="1.19" vaporized=""/>
    <tripinfo id="carIn105842:1" depart="57601.00" departLane="653473569#5_1" departPos="5.10" departSpeed="0.00" departDelay="0.80" arrival="57628.00" arrivalLane="124812857#0_1" arrivalPos="143.49" arrivalSpeed="11.07" duration="27.00" routeLength="239.18" waitingTime="0.00" waitingCount="0" stopTime="0.00" timeLoss="5.01" rerouteNo="1" devices="tripinfo_carIn105842:1 routing_carIn105842:1" vType="default_016" speedFactor="0.83" vaporized=""/>
    <tripinfo id="carIn28488:1" depart="57611.00" departLane="653473569#5_1" departPos="5.10" departSpeed="0.00" departDelay="0.80" arrival="57637.00" arrivalLane="124812857#0_1" arrivalPos="143.49" arrivalSpeed="12.03" duration="26.00" routeLength="239.18" waitingTime="0.00" waitingCount="0" stopTime="0.00" timeLoss="5.26" rerouteNo="1" devices="tripinfo_carIn28488:1 routing_carIn28488:1" vType="default_016" speedFactor="0.88" vaporized=""/>
    <tripinfo id="carIn106322:1" depart="57614.00" departLane="653473569#5_1" departPos="5.10" departSpeed="0.00" departDelay="2.20" arrival="57640.00" arrivalLane="124812857#0_1" arrivalPos="143.49" arrivalSpeed="11.99" duration="26.00" routeLength="239.18" waitingTime="0.00" waitingCount="0" stopTime="0.00" timeLoss="6.19" rerouteNo="1" devices="tripinfo_carIn106322:1 routing_carIn106322:1" vType="default_016" speedFactor="0.90" vaporized=""/>
    <tripinfo id="carIn5482:1" depart="57617.00" departLane="653473569#5_1" departPos="5.10" departSpeed="0.00" departDelay="3.60" arrival="57642.00" arrivalLane="124812857#0_1" arrivalPos="143.49" arrivalSpeed="14.50" duration="25.00" routeLength="239.18" waitingTime="0.00" waitingCount="0" stopTime="0.00" timeLoss="6.99" rerouteNo="1" devices="tripinfo_carIn5482:1 routing_carIn5482:1" vType="default_016" speedFactor="1.05" vaporized=""/>
    <tripinfo id="carIn21562:1" depart="57611.00" departLane="201963537#1_1" departPos="5.10" departSpeed="0.00" departDelay="0.20" arrival="57643.00" arrivalLane="-653473569#5_1" arrivalPos="73.05" arrivalSpeed="15.71" duration="32.00" routeLength="256.07" waitingTime="6.00" waitingCount="1" stopTime="0.00" timeLoss="15.55" rerouteNo="1" devices="tripinfo_carIn21562:1 routing_carIn21562:1" vType="default_016" speedFactor="1.16" vaporized=""/>
    <tripinfo id="carIn26332:1" depart="57621.00" departLane="201963537#1_1" departPos="5.10" departSpeed="0.00" departDelay="0.00" arrival="57645.00" arrivalLane="104012170_1" arrivalPos="109.94" arrivalSpeed="14.33" duration="24.00" routeLength="293.69" waitingTime="0.00" waitingCount="0" stopTime="0.00" timeLoss="4.06" rerouteNo="1" devices="tripinfo_carIn26332:1 routing_carIn26332:1" vType="default_015" speedFactor="1.09" vaporized=""/>
    <tripinfo id="carIn28951:1" depart="57613.00" departLane="201963537#1_1" departPos="5.10" departSpeed="0.00" departDelay="0.30" arrival="57646.00" arrivalLane="-653473569#5_1" arrivalPos="73.05" arrivalSpeed="15.11" duration="33.00" routeLength="256.07" waitingTime="5.00" waitingCount="1" stopTime="0.00" timeLoss="15.15" rerouteNo="1" devices="tripinfo_carIn28951:1 routing_carIn28951:1" vType="default_016" speedFactor="1.10" vaporized=""/>
    <tripinfo id="carIn115534:1" depart="57624.00" departLane="201963537#1_1" departPos="5.10" departSpeed="0.00" departDelay="2.60" arrival="57651.00" arrivalLane="104012170_1" arrivalPos="109.94" arrivalSpeed="12.37" duration="27.00" routeLength="293.69" waitingTime="0.00" waitingCount="0" stopTime="0.00" timeLoss="3.52" rerouteNo="1" devices="tripinfo_carIn115534:1 routing_carIn115534:1" vType="default_015" speedFactor="0.93" vaporized=""/>
    <tripinfo id="carIn36103:1" depart="57620.00" departLane="653473569#5_1" departPos="5.10" departSpeed="0.00" departDelay="4.00" arrival="57653.00" arrivalLane="124812857#0_1" arrivalPos="143.49" arrivalSpeed="12.45" duration="33.00" routeLength="239.18" waitingTime="5.00" waitingCount="1" stopTime="0.00" timeLoss="14.83" rerouteNo="1" devices="tripinfo_carIn36103:1 routing_carIn36103:1" vType="default_016" speedFactor="0.98" vaporized=""/>
    <tripinfo id="carIn102997:1" depart="57623.00" departLane="653473569#5_1" departPos="5.10" departSpeed="0.00" departDelay="4.80" arrival="57655.00" arrivalLane="124812857#0_1" arrivalPos="143.49" arrivalSpeed="14.64" duration="32.00" routeLength="239.18" waitingTime="4.00" waitingCount="1" stopTime="0.00" timeLoss="14.61" rerouteNo="1" devices="tripinfo_carIn102997:1 routing_carIn102997:1" vType="default_016" speedFactor="1.08" vaporized=""/>
    <tripinfo id="carIn75554:1" depart="57626.00" departLane="653473569#5_1" departPos="5.10" departSpeed="0.00" departDelay="5.20" arrival="57660.00" arrivalLane="124812857#0_1" arrivalPos="143.49" arrivalSpeed="12.83" duration="34.00" routeLength="239.18" waitingTime="4.00" waitingCount="1" stopTime="0.00" timeLoss="14.89" rerouteNo="1" devices="tripinfo_carIn75554:1 routing_carIn75554:1" vType="default_016" speedFactor="0.96" vaporized=""/>
    <tripinfo id="randUni20090:1" depart="57629.00" departLane="653473569#5_1" departPos="5.10" departSpeed="0.00" departDelay="1.00" arrival="57662.00" arrivalLane="124812857#0_1" arrivalPos="143.49" arrivalSpeed="14.26" duration="33.00" routeLength="239.18" waitingTime="2.00" waitingCount="1" stopTime="0.00" timeLoss="14.51" rerouteNo="1" devices="tripinfo_randUni20090:1 routing_randUni20090:1" vType="random_016" speedFactor="1.04" vaporized=""/>
    <tripinfo id="carIn37268:1" depart="57636.00" departLane="653473569#5_1" departPos="5.10" departSpeed="0.00" departDelay="0.90" arrival="57667.00" arrivalLane="124812857#0_1" arrivalPos="143.49" arrivalSpeed="10.23" duration="31.00" routeLength="239.18" waitingTime="0.00" waitingCount="0" stopTime="0.00" timeLoss="8.65" rerouteNo="1" devices="tripinfo_carIn37268:1 routing_carIn37268:1" vType="default_016" speedFactor="0.83" vaporized=""/>
    <tripinfo id="carIn129760:1" depart="57661.00" departLane="653473569#5_1" departPos="5.10" departSpeed="0.00" departDelay="0.80" arrival="57686.00" arrivalLane="124812857#0_1" arrivalPos="143.49" arrivalSpeed="12.09" duration="25.00" routeLength="239.18" waitingTime="0.00" waitingCount="0" stopTime="0.00" timeLoss="5.60" rerouteNo="1" devices="tripinfo_carIn129760:1 routing_carIn129760:1" vType="default_016" speedFactor="0.94" vaporized=""/>
    <tripinfo id="carIn129626:1" depart="57664.00" departLane="653473569#5_1" departPos="5.10" departSpeed="0.00" departDelay="1.60" arrival="57688.00" arrivalLane="124812857#0_1" arrivalPos="143.49" arrivalSpeed="13.47" duration="24.00" routeLength="239.18" waitingTime="0.00" waitingCount="0" stopTime="0.00" timeLoss="6.37" rerouteNo="1" devices="tripinfo_carIn129626:1 routing_carIn129626:1" vType="default_016" speedFactor="1.06" vaporized=""/>
    <tripinfo id="h20539c1:3" depart="57667.00" departLane="653473569#5_1" departPos="5.10" departSpeed="0.00" departDelay="2.20" arrival="57693.00" arrivalLane="124812857#0_1" arrivalPos="143.49" arrivalSpeed="12.91" duration="26.00" routeLength="239.18" waitingTime="0.00" waitingCount="0" stopTime="0.00" timeLoss="5.84" rerouteNo="1" devices="tripinfo_h20539c1:3 routing_h20539c1:3" vType="default_016" speedFactor="0.93" vaporized=""/>
    <tripinfo id="carIn119141:1" depart="57632.00" departLane="201963537#1_1" departPos="5.10" departSpeed="0.00" departDelay="8.70" arrival="57706.00" arrivalLane="104012170_2" arrivalPos="109.94" arrivalSpeed="15.20" duration="74.00" routeLength="293.69" waitingTime="45.00" waitingCount="1" stopTime="0.00" timeLoss="54.87" rerouteNo="1" devices="tripinfo_carIn119141:1 routing_carIn119141:1" vType="default_015" speedFactor="1.12" vaporized=""/>
    <tripinfo id="h15808c1:1" depart="57627.00" departLane="201963537#1_1" departPos="5.10" departSpeed="0.00" departDelay="5.40" arrival="57708.00" arrivalLane="104012170_1" arrivalPos="109.94" arrivalSpeed="12.71" duration="81.00" routeLength="293.69" waitingTime="49.00" waitingCount="1" stopTime="0.00" timeLoss="58.04" rerouteNo="1" devices="tripinfo_h15808c1:1 routing_h15808c1:1" vType="default_016" speedFactor="0.95" vaporized=""/>
    <tripinfo id="carIn13117:1" depart="57638.00" departLane="104010354_1" departPos="5.10" departSpeed="0.00" departDelay="1.40" arrival="57708.00" arrivalLane="124812857#0_3" arrivalPos="143.49" arrivalSpeed="13.26" duration="70.00" routeLength="211.78" waitingTime="44.00" waitingCount="1" stopTime="0.00" timeLoss="53.59" rerouteNo="0" devices="tripinfo_carIn13117:1 routing_carIn13117:1" vType="default_016" speedFactor="0.98" vaporized=""/>
    <tripinfo id="carIn79970:1" depart="57641.00" departLane="201963537#1_1" departPos="5.10" departSpeed="0.00" departDelay="14.20" arrival="57709.00" arrivalLane="104012170_2" arrivalPos="109.94" arrivalSpeed="13.61" duration="68.00" routeLength="293.69" waitingTime="37.00" waitingCount="1" stopTime="0.00" timeLoss="45.96" rerouteNo="1" devices="tripinfo_carIn79970:1 routing_carIn79970:1" vType="default_016" speedFactor="0.98" vaporized=""/>
    <tripinfo id="carIn20106:1" depart="57641.00" departLane="104010354_1" departPos="5.10" departSpeed="0.00" departDelay="1.50" arrival="57709.00" arrivalLane="124812857#0_3" arrivalPos="143.49" arrivalSpeed="15.12" duration="68.00" routeLength="211.78" waitingTime="42.00" waitingCount="1" stopTime="0.00" timeLoss="54.61" rerouteNo="0" devices="tripinfo_carIn20106:1 routing_carIn20106:1" vType="default_016" speedFactor="1.16" vaporized=""/>
    <tripinfo id="carIn119185:1" depart="57637.00" departLane="201963537#1_1" departPos="5.10" departSpeed="0.00" departDelay="11.80" arrival="57710.00" arrivalLane="104012170_1" arrivalPos="109.94" arrivalSpeed="11.46" duration="73.00" routeLength="293.69" waitingTime="41.00" waitingCount="1" stopTime="0.00" timeLoss="49.75" rerouteNo="1" devices="tripinfo_carIn119185:1 routing_carIn119185:1" vType="default_015" speedFactor="0.91" vaporized=""/>
    <tripinfo id="carIn96537:1" depart="57653.00" departLane="201963537#1_1" departPos="5.10" departSpeed="0.00" departDelay="22.30" arrival="57711.00" arrivalLane="104012170_2" arrivalPos="109.94" arrivalSpeed="12.50" duration="58.00" routeLength="293.69" waitingTime="27.00" waitingCount="1" stopTime="0.00" timeLoss="35.72" rerouteNo="1" devices="tripinfo_carIn96537:1 routing_carIn96537:1" vType="default_016" speedFactor="0.97" vaporized=""/>
    <tripinfo id="60R.41" depart="57634.00" departLane="104010354_1" departPos="12.10" departSpeed="0.00" departDelay="0.50" arrival="57711.00" arrivalLane="124812857#0_2" arrivalPos="143.49" arrivalSpeed="13.80" duration="77.00" routeLength="204.78" waitingTime="48.00" waitingCount="1" stopTime="0.00" timeLoss="62.02" rerouteNo="0" devices="tripinfo_60R.41 routing_60R.41" vType="bus" speedFactor="1.00" vaporized=""/>
    <tripinfo id="h20403c1:5" depart="57649.00" departLane="104010354_1" departPos="5.10" departSpeed="0.00" departDelay="2.40" arrival="57712.00" arrivalLane="124812857#0_3" arrivalPos="143.49" arrivalSpeed="12.70" duration="63.00" routeLength="211.78" waitingTime="38.00" waitingCount="1" stopTime="0.00" timeLoss="47.66" rerouteNo="0" devices="tripinfo_h20403c1:5 routing_h20403c1:5" vType="default_016" speedFactor="1.00" vaporized=""/>
    <tripinfo id="carIn46350:1" depart="57630.00" departLane="201963537#1_1" departPos="5.10" departSpeed="0.00" departDelay="6.80" arrival="57713.00" arrivalLane="-653473569#5_1" arrivalPos="73.05" arrivalSpeed="13.18" duration="83.00" routeLength="256.07" waitingTime="52.00" waitingCount="2" stopTime="0.00" timeLoss="63.96" rerouteNo="1" devices="tripinfo_carIn46350:1 routing_carIn46350:1" vType="default_016" speedFactor="1.04" vaporized=""/>
    <tripinfo id="carIn27195:1" depart="57646.00" departLane="201963537#1_1" departPos="5.10" departSpeed="0.00" departDelay="17.90" arrival="57713.00" arrivalLane="104012170_1" arrivalPos="109.94" arrivalSpeed="11.02" duration="67.00" routeLength="293.69" waitingTime="33.00" waitingCount="1" stopTime="0.00" timeLoss="41.72" rerouteNo="1" devices="tripinfo_carIn27195:1 routing_carIn27195:1" vType="default_016" speedFactor="0.87" vaporized=""/>
    <tripinfo id="randUni27349:1" depart="57646.00" departLane="104010354_1" departPos="5.10" departSpeed="0.00" departDelay="0.90" arrival="57714.00" arrivalLane="124812857#0_2" arrivalPos="143.49" arrivalSpeed="12.86" duration="68.00" routeLength="211.78" waitingTime="39.00" waitingCount="1" stopTime="0.00" timeLoss="51.39" rerouteNo="0" devices="tripinfo_randUni27349:1 routing_randUni27349:1" vType="random_016" speedFactor="0.95" vaporized=""/>
    <tripinfo id="carIn75667:1" depart="57635.00" departLane="201963537#1_1" departPos="5.10" departSpeed="0.00" departDelay="10.40" arrival="57715.00" arrivalLane="-653473569#5_1" arrivalPos="73.05" arrivalSpeed="14.52" duration="80.00" routeLength="256.07" waitingTime="48.00" waitingCount="2" stopTime="0.00" timeLoss="61.00" rerouteNo="1" devices="tripinfo_carIn75667:1 routing_carIn75667:1" vType="default_016" speedFactor="1.05" vaporized=""/>
    <tripinfo id="carIn91254:1" depart="57696.00" departLane="653473569#5_1" departPos="5.10" departSpeed="0.00" departDelay="0.10" arrival="57717.00" arrivalLane="124812857#0_1" arrivalPos="143.49" arrivalSpeed="15.49" duration="21.00" routeLength="239.18" waitingTime="0.00" waitingCount="0" stopTime="0.00" timeLoss="5.70" rerouteNo="1" devices="tripinfo_carIn91254:1 routing_carIn91254:1" vType="default_016" speedFactor="1.19" vaporized=""/>
    <tripinfo id="carIn70484:1" depart="57724.00" departLane="653473569#5_1" departPos="5.10" departSpeed="0.00" departDelay="0.60" arrival="57750.00" arrivalLane="104012170_2" arrivalPos="109.94" arrivalSpeed="11.50" duration="26.00" routeLength="250.58" waitingTime="0.00" waitingCount="0" stopTime="0.00" timeLoss="3.94" rerouteNo="1" devices="tripinfo_carIn70484:1 routing_carIn70484:1" vType="default_016" speedFactor="0.85" vaporized=""/>
    <tripinfo id="carIn106797:1" depart="57726.00" departLane="653473569#5_1" departPos="5.10" departSpeed="0.00" departDelay="1.00" arrival="57750.00" arrivalLane="124812857#0_1" arrivalPos="143.49" arrivalSpeed="12.82" duration="24.00" routeLength="239.18" waitingTime="0.00" waitingCount="0" stopTime="0.00" timeLoss="5.79" rerouteNo="1" devices="tripinfo_carIn106797:1 routing_carIn106797:1" vType="default_016" speedFactor="0.99" vaporized=""/>
    <tripinfo id="carIn26708:1" depart="57729.00" departLane="653473569#5_1" departPos="5.10" departSpeed="0.00" departDelay="2.40" arrival="57752.00" arrivalLane="124812857#0_1" arrivalPos="143.49" arrivalSpeed="15.74" duration="23.00" routeLength="239.18" waitingTime="0.00" waitingCount="0" stopTime="0.00" timeLoss="7.19" rerouteNo="1" devices="tripinfo_carIn26708:1 routing_carIn26708:1" vType="default_016" speedFactor="1.17" vaporized=""/>
    <tripinfo id="carIn76112:1" depart="57640.00" departLane="201963537#1_1" departPos="5.10" departSpeed="0.00" departDelay="14.00" arrival="57754.00" arrivalLane="-653473569#5_1" arrivalPos="73.05" arrivalSpeed="13.27" duration="114.00" routeLength="256.07" waitingTime="81.00" waitingCount="2" stopTime="0.00" timeLoss="95.52" rerouteNo="1" devices="tripinfo_carIn76112:1 routing_carIn76112:1" vType="default_016" speedFactor="1.03" vaporized=""/>
    <tripinfo id="carIn27521:1" depart="57644.00" departLane="201963537#1_1" departPos="5.10" departSpeed="0.00" departDelay="16.50" arrival="57756.00" arrivalLane="-653473569#5_1" arrivalPos="73.05" arrivalSpeed="13.08" duration="112.00" routeLength="256.07" waitingTime="77.00" waitingCount="2" stopTime="0.00" timeLoss="92.97" rerouteNo="1" devices="tripinfo_carIn27521:1 routing_carIn27521:1" vType="default_015" speedFactor="1.00" vaporized=""/>
    <tripinfo id="carIn26410:1" depart="57658.00" departLane="201963537#1_1" departPos="5.10" departSpeed="0.00" departDelay="25.70" arrival="57758.00" arrivalLane="104012170_1" arrivalPos="109.94" arrivalSpeed="12.32" duration="100.00" routeLength="293.69" waitingTime="62.00" waitingCount="2" stopTime="0.00" timeLoss="75.85" rerouteNo="1" devices="tripinfo_carIn26410:1 routing_carIn26410:1" vType="default_016" speedFactor="0.90" vaporized=""/>
    <tripinfo id="carIn51024:1" depart="57662.00" departLane="201963537#1_1" departPos="5.10" departSpeed="0.00" departDelay="28.00" arrival="57758.00" arrivalLane="104012170_2" arrivalPos="109.94" arrivalSpeed="12.45" duration="96.00" routeLength="293.69" waitingTime="58.00" waitingCount="2" stopTime="0.00" timeLoss="72.85" rerouteNo="1" devices="tripinfo_carIn51024:1 routing_carIn51024:1" vType="default_016" speedFactor="0.93" vaporized=""/>
    <tripinfo id="carIn128705:1" depart="57666.00" departLane="201963537#1_1" departPos="5.10" departSpeed="0.00" departDelay="30.30" arrival="57760.00" arrivalLane="104012170_1" arrivalPos="109.94" arrivalSpeed="13.90" duration="94.00" routeLength="293.69" waitingTime="55.00" waitingCount="2" stopTime="0.00" timeLoss="72.47" rerouteNo="1" devices="tripinfo_carIn128705:1 routing_carIn128705:1" vType="default_016" speedFactor="1.03" vaporized=""/>
    <tripinfo id="h21989c1:1" depart="57670.00" departLane="201963537#1_1" departPos="5.10" departSpeed="0.00" departDelay="32.70" arrival="57760.00" arrivalLane="104012170_2" arrivalPos="109.94" arrivalSpeed="13.09" duration="90.00" routeLength="293.69" waitingTime="52.00" waitingCount="2" stopTime="0.00" timeLoss="67.57" rerouteNo="1" devices="tripinfo_h21989c1:1 routing_h21989c1:1" vType="default_016" speedFactor="0.98" vaporized=""/>
    <tripinfo id="h21130c2:1" depart="57697.00" departLane="201963537#1_1" departPos="5.10" departSpeed="0.00" departDelay="33.60" arrival="57761.00" arrivalLane="104012170_1" arrivalPos="109.94" arrivalSpeed="13.98" duration="64.00" routeLength="293.69" waitingTime="32.00" waitingCount="1" stopTime="0.00" timeLoss="42.96" rerouteNo="1" devices="tripinfo_h21130c2:1 routing_h21130c2:1" vType="default_016" speedFactor="1.02" vaporized=""/>
    <tripinfo id="carIn48988:1" depart="57732.00" departLane="653473569#5_1" departPos="5.10" departSpeed="0.00" departDelay="3.90" arrival="57764.00" arrivalLane="104012170_2" arrivalPos="109.94" arrivalSpeed="12.68" duration="32.00" routeLength="250.58" waitingTime="3.00" waitingCount="1" stopTime="0.00" timeLoss="12.83" rerouteNo="1" devices="tripinfo_carIn48988:1 routing_carIn48988:1" vType="default_016" speedFactor="0.99" vaporized=""/>
    <tripinfo id="carIn34550:1" depart="57734.00" departLane="653473569#5_1" departPos="5.10" departSpeed="0.00" departDelay="3.60" arrival="57765.00" arrivalLane="124812857#0_1" arrivalPos="143.49" arrivalSpeed="10.94" duration="31.00" routeLength="239.18" waitingTime="0.00" waitingCount="0" stopTime="0.00" timeLoss="9.85" rerouteNo="1" devices="tripinfo_carIn34550:1 routing_carIn34550:1" vType="default_016" speedFactor="0.85" vaporized=""/>
    <tripinfo id="carIn41791:1" depart="57737.00" departLane="653473569#5_1" departPos="5.10" departSpeed="0.00" departDelay="4.80" arrival="57767.00" arrivalLane="124812857#0_1" arrivalPos="143.49" arrivalSpeed="12.81" duration="30.00" routeLength="239.18" waitingTime="1.00" waitingCount="1" stopTime="0.00" timeLoss="11.35" rerouteNo="1" devices="tripinfo_carIn41791:1 routing_carIn41791:1" vType="default_016" speedFactor="0.96" vaporized=""/>
    <tripinfo id="carIn13016:1" depart="57740.00" departLane="653473569#5_1" departPos="5.10" departSpeed="0.00" departDelay="4.50" arrival="57770.00" arrivalLane="124812857#0_1" arrivalPos="143.49" arrivalSpeed="12.48" duration="30.00" routeLength="239.18" waitingTime="1.00" waitingCount="1" stopTime="0.00" timeLoss="11.29" rerouteNo="1" devices="tripinfo_carIn13016:1 routing_carIn13016:1" vType="default_016" speedFactor="0.98" vaporized=""/>
    <tripinfo id="carIn70477:1" depart="57743.00" departLane="653473569#5_1" departPos="5.10" departSpeed="0.00" departDelay="5.20" arrival="57772.00" arrivalLane="124812857#0_1" arrivalPos="143.49" arrivalSpeed="13.81" duration="29.00" routeLength="239.18" waitingTime="0.00" waitingCount="0" stopTime="0.00" timeLoss="11.08" rerouteNo="1" devices="tripinfo_carIn70477:1 routing_carIn70477:1" vType="default_016" speedFactor="1.01" vaporized=""/>
    <tripinfo id="randUni26227:1" depart="57746.00" departLane="653473569#5_1" departPos="5.10" departSpeed="0.00" departDelay="5.50" arrival="57775.00" arrivalLane="124812857#0_1" arrivalPos="143.49" arrivalSpeed="13.76" duration="29.00" routeLength="239.18" waitingTime="0.00" waitingCount="0" stopTime="0.00" timeLoss="10.08" rerouteNo="1" devices="tripinfo_randUni26227:1 routing_randUni26227:1" vType="random_016" speedFactor="0.99" vaporized=""/>
    <tripinfo id="carIn86816:1" depart="57769.00" departLane="653473569#5_1" departPos="5.10" departSpeed="0.00" departDelay="0.70" arrival="57792.00" arrivalLane="124812857#0_1" arrivalPos="143.49" arrivalSpeed="13.35" duration="23.00" routeLength="239.18" waitingTime="0.00" waitingCount="0" stopTime="0.00" timeLoss="5.58" rerouteNo="1" devices="tripinfo_carIn86816:1 routing_carIn86816:1" vType="default_016" speedFactor="1.05" vaporized=""/>
    <tripinfo id="carIn102915:1" depart="57811.00" departLane="653473569#5_1" departPos="5.10" departSpeed="0.00" departDelay="0.90" arrival="57835.00" arrivalLane="124812857#0_1" arrivalPos="143.49" arrivalSpeed="12.25" duration="24.00" routeLength="239.18" waitingTime="0.00" waitingCount="0" stopTime="0.00" timeLoss="5.06" rerouteNo="1" devices="tripinfo_carIn102915:1 routing_carIn102915:1" vType="default_016" speedFactor="0.97" vaporized=""/>
    <tripinfo id="randUni33724:1" depart="57814.00" departLane="653473569#5_1" departPos="5.10" departSpeed="0.00" departDelay="2.20" arrival="57838.00" arrivalLane="124812857#0_1" arrivalPos="143.49" arrivalSpeed="13.11" duration="24.00" routeLength="239.18" waitingTime="0.00" waitingCount="0" stopTime="0.00" timeLoss="6.32" rerouteNo="1" devices="tripinfo_randUni33724:1 routing_randUni33724:1" vType="random_016" speedFactor="1.02" vaporized=""/>
    <tripinfo id="50R_frequency3.17" depart="57861.00" departLane="653473569#5_1" departPos="12.10" departSpeed="0.00" departDelay="0.10" arrival="57890.00" arrivalLane="124812857#0_1" arrivalPos="143.49" arrivalSpeed="13.39" duration="29.00" routeLength="232.18" waitingTime="0.00" waitingCount="0" stopTime="0.00" timeLoss="11.41" rerouteNo="1" devices="tripinfo_50R_frequency3.17 routing_50R_frequency3.17" vType="bus" speedFactor="1.00" vaporized=""/>
    <tripinfo id="h6245c2:1" depart="57869.00" departLane="653473569#5_1" departPos="5.10" departSpeed="0.00" departDelay="4.50" arrival="57894.00" arrivalLane="104012170_2" arrivalPos="109.94" arrivalSpeed="12.29" duration="25.00" routeLength="250.58" waitingTime="0.00" waitingCount="0" stopTime="0.00" timeLoss="4.12" rerouteNo="1" devices="tripinfo_h6245c2:1 routing_h6245c2:1" vType="default_016" speedFactor="0.89" vaporized=""/>
    <tripinfo id="h18601c1:3" depart="57866.00" departLane="653473569#5_1" departPos="5.10" departSpeed="0.00" departDelay="2.90" arrival="57895.00" arrivalLane="124812857#0_1" arrivalPos="143.49" arrivalSpeed="11.51" duration="29.00" routeLength="239.18" waitingTime="0.00" waitingCount="0" stopTime="0.00" timeLoss="7.65" rerouteNo="1" devices="tripinfo_h18601c1:3 routing_h18601c1:3" vType="default_016" speedFactor="0.88" vaporized=""/>
    <tripinfo id="carIn75793:1" depart="57884.00" departLane="653473569#5_1" departPos="5.10" departSpeed="0.00" departDelay="0.80" arrival="57908.00" arrivalLane="104012170_2" arrivalPos="109.94" arrivalSpeed="13.14" duration="24.00" routeLength="250.58" waitingTime="0.00" waitingCount="0" stopTime="0.00" timeLoss="4.75" rerouteNo="1" devices="tripinfo_carIn75793:1 routing_carIn75793:1" vType="default_016" speedFactor="1.00" vaporized=""/>
    <tripinfo id="h19571c2:3" depart="57890.00" departLane="25149219#1_1" departPos="5.10" departSpeed="0.00" departDelay="0.60" arrival="57926.00" arrivalLane="-653473569#5_1" arrivalPos="73.05" arrivalSpeed="15.82" duration="36.00" routeLength="246.10" waitingTime="0.00" waitingCount="0" stopTime="0.00" timeLoss="5.61" rerouteNo="1" devices="tripinfo_h19571c2:3 routing_h19571c2:3" vType="default_016" speedFactor="1.17" vaporized=""/>
    <tripinfo id="h8072c1:3" depart="57926.00" departLane="653473569#5_1" departPos="5.10" departSpeed="0.00" departDelay="0.10" arrival="57951.00" arrivalLane="104012170_2" arrivalPos="109.94" arrivalSpeed="12.23" duration="25.00" routeLength="250.58" waitingTime="0.00" waitingCount="0" stopTime="0.00" timeLoss="4.20" rerouteNo="1" devices="tripinfo_h8072c1:3 routing_h8072c1:3" vType="default_016" speedFactor="0.91" vaporized=""/>
    <tripinfo id="h15937c1:3" depart="57963.00" departLane="653473569#5_1" departPos="5.10" departSpeed="0.00" departDelay="0.20" arrival="57989.00" arrivalLane="124812857#0_1" arrivalPos="143.49" arrivalSpeed="12.64" duration="26.00" routeLength="239.18" waitingTime="0.00" waitingCount="0" stopTime="0.00" timeLoss="5.54" rerouteNo="1" devices="tripinfo_h15937c1:3 routing_h15937c1:3" vType="default_016" speedFactor="0.93" vaporized=""/>
    <tripinfo id="carIn85069:1" depart="57966.00" departLane="653473569#5_1" departPos="5.10" departSpeed="0.00" departDelay="1.70" arrival="57989.00" arrivalLane="104012170_2" arrivalPos="109.94" arrivalSpeed="14.06" duration="23.00" routeLength="250.58" waitingTime="0.00" waitingCount="0" stopTime="0.00" timeLoss="4.80" rerouteNo="1" devices="tripinfo_carIn85069:1 routing_carIn85069:1" vType="default_016" speedFactor="1.07" vaporized=""/>
    <tripinfo id="randUni5976:1" depart="57947.00" departLane="25149219#1_1" departPos="5.10" departSpeed="0.00" departDelay="0.40" arrival="57990.00" arrivalLane="-653473569#5_1" arrivalPos="73.05" arrivalSpeed="14.67" duration="43.00" routeLength="246.10" waitingTime="0.00" waitingCount="0" stopTime="0.00" timeLoss="8.93" rerouteNo="1" devices="tripinfo_randUni5976:1 routing_randUni5976:1" vType="random_016" speedFactor="1.07" vaporized=""/>
    <tripinfo id="carIn84877:1" depart="57969.00" departLane="653473569#5_1" departPos="5.10" departSpeed="0.00" departDelay="0.40" arrival="57994.00" arrivalLane="124812857#0_1" arrivalPos="143.49" arrivalSpeed="12.40" duration="25.00" routeLength="239.18" waitingTime="0.00" waitingCount="0" stopTime="0.00" timeLoss="5.54" rerouteNo="1" devices="tripinfo_carIn84877:1 routing_carIn84877:1" vType="default_016" speedFactor="0.95" vaporized=""/>
    <tripinfo id="carIn9903:1" depart="57972.00" departLane="653473569#5_1" departPos="5.10" departSpeed="0.00" departDelay="0.90" arrival="57994.00" arrivalLane="104012170_2" arrivalPos="109.94" arrivalSpeed="14.29" duration="22.00" routeLength="250.58" waitingTime="0.00" waitingCount="0" stopTime="0.00" timeLoss="4.35" rerouteNo="1" devices="tripinfo_carIn9903:1 routing_carIn9903:1" vType="default_016" speedFactor="1.07" vaporized=""/>
    <tripinfo id="carIn56192:1" depart="57981.00" departLane="653473569#5_1" departPos="5.10" departSpeed="0.00" departDelay="0.60" arrival="58001.00" arrivalLane="104012170_2" arrivalPos="109.94" arrivalSpeed="15.43" duration="20.00" routeLength="250.58" waitingTime="0.00" waitingCount="0" stopTime="0.00" timeLoss="3.99" rerouteNo="1" devices="tripinfo_carIn56192:1 routing_carIn56192:1" vType="default_016" speedFactor="1.15" vaporized=""/>
    <tripinfo id="carIn114414:1" depart="57983.00" departLane="653473569#5_1" departPos="5.10" departSpeed="0.00" departDelay="1.00" arrival="58005.00" arrivalLane="104012170_2" arrivalPos="109.94" arrivalSpeed="14.19" duration="22.00" routeLength="250.58" waitingTime="0.00" waitingCount="0" stopTime="0.00" timeLoss="4.37" rerouteNo="1" devices="tripinfo_carIn114414:1 routing_carIn114414:1" vType="default_016" speedFactor="1.08" vaporized=""/>
    <tripinfo id="h14212c1:3" depart="57970.00" departLane="25149219#1_1" departPos="5.10" departSpeed="0.00" departDelay="0.00" arrival="58022.00" arrivalLane="-653473569#5_1" arrivalPos="73.05" arrivalSpeed="10.78" duration="52.00" routeLength="246.10" waitingTime="0.00" waitingCount="0" stopTime="0.00" timeLoss="8.22" rerouteNo="1" devices="tripinfo_h14212c1:3 routing_h14212c1:3" vType="default_016" speedFactor="0.81" vaporized=""/>