<?xml version="1.0" encoding="UTF-8"?>

<!-- generated on 2023-08-31 12:16:17 by Eclipse SUMO libsumo Version 1.18.0
<configuration xmlns:xsi="http://www.w3.org/2001/XMLSchema-instance" xsi:noNamespaceSchemaLocation="http://sumo.dlr.de/xsd/libsumoConfiguration.xsd">

    <input>
        <net-file value="/home/stefan/RESCO/./environments/ingolstadt1/ingolstadt1.net.xml"/>
        <route-files value="/home/stefan/RESCO/./environments/ingolstadt1/ingolstadt1.rou.xml"/>
    </input>

    <output>
        <tripinfo-output value="/home/stefan/results/RAINBOW-tr0-ingolstadt1-0-drq_norm-wait_norm/tripinfo_65.xml"/>
        <tripinfo-output.write-unfinished value="true"/>
    </output>

    <time>
        <begin value="57600"/>
        <end value="61200"/>
    </time>

    <processing>
        <time-to-teleport value="-1"/>
    </processing>

    <report>
        <no-warnings value="True"/>
        <no-step-log value="True"/>
    </report>

    <random_number>
        <random value="true"/>
    </random_number>

</configuration>
-->

<tripinfos xmlns:xsi="http://www.w3.org/2001/XMLSchema-instance" xsi:noNamespaceSchemaLocation="http://sumo.dlr.de/xsd/tripinfo_file.xsd">
    <tripinfo id="carIn105842:1" depart="57601.00" departLane="653473569#5_1" departPos="5.10" departSpeed="0.00" departDelay="0.80" arrival="57625.00" arrivalLane="124812857#0_1" arrivalPos="143.49" arrivalSpeed="13.52" duration="24.00" routeLength="239.18" waitingTime="0.00" waitingCount="0" stopTime="0.00" timeLoss="5.90" rerouteNo="1" devices="tripinfo_carIn105842:1 routing_carIn105842:1" vType="default_016" speedFactor="1.00" vaporized=""/>
    <tripinfo id="carIn28488:1" depart="57611.00" departLane="653473569#5_1" departPos="5.10" departSpeed="0.00" departDelay="0.80" arrival="57633.00" arrivalLane="124812857#0_1" arrivalPos="143.49" arrivalSpeed="14.09" duration="22.00" routeLength="239.18" waitingTime="0.00" waitingCount="0" stopTime="0.00" timeLoss="5.50" rerouteNo="1" devices="tripinfo_carIn28488:1 routing_carIn28488:1" vType="default_016" speedFactor="1.08" vaporized=""/>
    <tripinfo id="carIn106322:1" depart="57614.00" departLane="653473569#5_1" departPos="5.10" departSpeed="0.00" departDelay="2.20" arrival="57638.00" arrivalLane="124812857#0_1" arrivalPos="143.49" arrivalSpeed="12.94" duration="24.00" routeLength="239.18" waitingTime="0.00" waitingCount="0" stopTime="0.00" timeLoss="5.96" rerouteNo="1" devices="tripinfo_carIn106322:1 routing_carIn106322:1" vType="default_016" speedFactor="1.02" vaporized=""/>
    <tripinfo id="carIn5482:1" depart="57617.00" departLane="653473569#5_1" departPos="5.10" departSpeed="0.00" departDelay="3.60" arrival="57644.00" arrivalLane="124812857#0_1" arrivalPos="143.49" arrivalSpeed="10.96" duration="27.00" routeLength="239.18" waitingTime="0.00" waitingCount="0" stopTime="0.00" timeLoss="5.51" rerouteNo="1" devices="tripinfo_carIn5482:1 routing_carIn5482:1" vType="default_016" speedFactor="0.84" vaporized=""/>
    <tripinfo id="carIn36103:1" depart="57620.00" departLane="653473569#5_1" departPos="5.10" departSpeed="0.00" departDelay="4.00" arrival="57646.00" arrivalLane="124812857#0_1" arrivalPos="143.49" arrivalSpeed="15.69" duration="26.00" routeLength="239.18" waitingTime="0.00" waitingCount="0" stopTime="0.00" timeLoss="9.41" rerouteNo="1" devices="tripinfo_carIn36103:1 routing_carIn36103:1" vType="default_016" speedFactor="1.14" vaporized=""/>
    <tripinfo id="carIn102997:1" depart="57623.00" departLane="653473569#5_1" departPos="5.10" departSpeed="0.00" departDelay="4.80" arrival="57649.00" arrivalLane="124812857#0_1" arrivalPos="143.49" arrivalSpeed="13.81" duration="26.00" routeLength="239.18" waitingTime="0.00" waitingCount="0" stopTime="0.00" timeLoss="7.18" rerouteNo="1" devices="tripinfo_carIn102997:1 routing_carIn102997:1" vType="default_016" speedFactor="0.99" vaporized=""/>
    <tripinfo id="carIn75554:1" depart="57626.00" departLane="653473569#5_1" departPos="5.10" departSpeed="0.00" departDelay="5.20" arrival="57651.00" arrivalLane="124812857#0_1" arrivalPos="143.49" arrivalSpeed="14.59" duration="25.00" routeLength="239.18" waitingTime="0.00" waitingCount="0" stopTime="0.00" timeLoss="7.22" rerouteNo="1" devices="tripinfo_carIn75554:1 routing_carIn75554:1" vType="default_016" speedFactor="1.05" vaporized=""/>
    <tripinfo id="randUni20090:1" depart="57629.00" departLane="653473569#5_1" departPos="5.10" departSpeed="0.00" departDelay="1.00" arrival="57654.00" arrivalLane="124812857#0_1" arrivalPos="143.49" arrivalSpeed="13.89" duration="25.00" routeLength="239.18" waitingTime="0.00" waitingCount="0" stopTime="0.00" timeLoss="6.90" rerouteNo="1" devices="tripinfo_randUni20090:1 routing_randUni20090:1" vType="random_016" speedFactor="1.00" vaporized=""/>
    <tripinfo id="carIn37268:1" depart="57636.00" departLane="653473569#5_1" departPos="5.10" departSpeed="0.00" departDelay="0.90" arrival="57659.00" arrivalLane="124812857#0_1" arrivalPos="143.49" arrivalSpeed="13.80" duration="23.00" routeLength="239.18" waitingTime="0.00" waitingCount="0" stopTime="0.00" timeLoss="5.61" rerouteNo="1" devices="tripinfo_carIn37268:1 routing_carIn37268:1" vType="default_016" speedFactor="1.07" vaporized=""/>
    <tripinfo id="carIn129760:1" depart="57661.00" departLane="653473569#5_1" departPos="5.10" departSpeed="0.00" departDelay="0.80" arrival="57688.00" arrivalLane="124812857#0_1" arrivalPos="143.49" arrivalSpeed="10.54" duration="27.00" routeLength="239.18" waitingTime="0.00" waitingCount="0" stopTime="0.00" timeLoss="4.69" rerouteNo="1" devices="tripinfo_carIn129760:1 routing_carIn129760:1" vType="default_016" speedFactor="0.82" vaporized=""/>
    <tripinfo id="carIn129626:1" depart="57664.00" departLane="653473569#5_1" departPos="5.10" departSpeed="0.00" departDelay="1.60" arrival="57690.00" arrivalLane="124812857#0_1" arrivalPos="143.49" arrivalSpeed="13.73" duration="26.00" routeLength="239.18" waitingTime="0.00" waitingCount="0" stopTime="0.00" timeLoss="7.54" rerouteNo="1" devices="tripinfo_carIn129626:1 routing_carIn129626:1" vType="default_016" speedFactor="1.02" vaporized=""/>
    <tripinfo id="h20539c1:3" depart="57667.00" departLane="653473569#5_1" departPos="5.10" departSpeed="0.00" departDelay="2.20" arrival="57692.00" arrivalLane="124812857#0_1" arrivalPos="143.49" arrivalSpeed="12.91" duration="25.00" routeLength="239.18" waitingTime="0.00" waitingCount="0" stopTime="0.00" timeLoss="6.09" rerouteNo="1" devices="tripinfo_h20539c1:3 routing_h20539c1:3" vType="default_016" speedFactor="0.98" vaporized=""/>
    <tripinfo id="carIn91254:1" depart="57696.00" departLane="653473569#5_1" departPos="5.10" departSpeed="0.00" departDelay="0.10" arrival="57723.00" arrivalLane="124812857#0_1" arrivalPos="143.49" arrivalSpeed="10.66" duration="27.00" routeLength="239.18" waitingTime="0.00" waitingCount="0" stopTime="0.00" timeLoss="5.89" rerouteNo="1" devices="tripinfo_carIn91254:1 routing_carIn91254:1" vType="default_016" speedFactor="0.86" vaporized=""/>
    <tripinfo id="carIn21562:1" depart="57611.00" departLane="201963537#1_1" departPos="5.10" departSpeed="0.00" departDelay="0.20" arrival="57746.00" arrivalLane="-653473569#5_1" arrivalPos="73.05" arrivalSpeed="13.16" duration="135.00" routeLength="256.07" waitingTime="105.00" waitingCount="1" stopTime="0.00" timeLoss="114.04" rerouteNo="1" devices="tripinfo_carIn21562:1 routing_carIn21562:1" vType="default_016" speedFactor="0.95" vaporized=""/>
    <tripinfo id="carIn28951:1" depart="57613.00" departLane="201963537#1_1" departPos="5.10" departSpeed="0.00" departDelay="0.30" arrival="57747.00" arrivalLane="-653473569#5_1" arrivalPos="73.05" arrivalSpeed="14.31" duration="134.00" routeLength="256.07" waitingTime="103.00" waitingCount="1" stopTime="0.00" timeLoss="115.41" rerouteNo="1" devices="tripinfo_carIn28951:1 routing_carIn28951:1" vType="default_016" speedFactor="1.04" vaporized=""/>
    <tripinfo id="carIn26332:1" depart="57621.00" departLane="201963537#1_1" departPos="5.10" departSpeed="0.00" departDelay="0.00" arrival="57747.00" arrivalLane="104012170_1" arrivalPos="109.94" arrivalSpeed="15.19" duration="126.00" routeLength="293.69" waitingTime="95.00" waitingCount="1" stopTime="0.00" timeLoss="106.18" rerouteNo="1" devices="tripinfo_carIn26332:1 routing_carIn26332:1" vType="default_015" speedFactor="1.10" vaporized=""/>
    <tripinfo id="carIn115534:1" depart="57624.00" departLane="201963537#1_1" departPos="5.10" departSpeed="0.00" departDelay="2.60" arrival="57747.00" arrivalLane="104012170_2" arrivalPos="109.94" arrivalSpeed="14.93" duration="123.00" routeLength="293.69" waitingTime="91.00" waitingCount="1" stopTime="0.00" timeLoss="103.03" rerouteNo="1" devices="tripinfo_carIn115534:1 routing_carIn115534:1" vType="default_015" speedFactor="1.08" vaporized=""/>
    <tripinfo id="h15808c1:1" depart="57627.00" departLane="201963537#1_1" departPos="5.10" departSpeed="0.00" departDelay="5.40" arrival="57749.00" arrivalLane="104012170_1" arrivalPos="109.94" arrivalSpeed="13.12" duration="122.00" routeLength="293.69" waitingTime="92.00" waitingCount="1" stopTime="0.00" timeLoss="100.84" rerouteNo="1" devices="tripinfo_h15808c1:1 routing_h15808c1:1" vType="default_016" speedFactor="1.02" vaporized=""/>
    <tripinfo id="carIn119141:1" depart="57631.00" departLane="201963537#1_1" departPos="5.10" departSpeed="0.00" departDelay="7.70" arrival="57749.00" arrivalLane="104012170_2" arrivalPos="109.94" arrivalSpeed="13.78" duration="118.00" routeLength="293.69" waitingTime="87.00" waitingCount="1" stopTime="0.00" timeLoss="96.93" rerouteNo="1" devices="tripinfo_carIn119141:1 routing_carIn119141:1" vType="default_015" speedFactor="1.03" vaporized=""/>
    <tripinfo id="carIn106797:1" depart="57726.00" departLane="653473569#5_1" departPos="5.10" departSpeed="0.00" departDelay="1.00" arrival="57753.00" arrivalLane="124812857#0_1" arrivalPos="143.49" arrivalSpeed="12.36" duration="27.00" routeLength="239.18" waitingTime="0.00" waitingCount="0" stopTime="0.00" timeLoss="8.40" rerouteNo="1" devices="tripinfo_carIn106797:1 routing_carIn106797:1" vType="default_016" speedFactor="0.97" vaporized=""/>
    <tripinfo id="carIn70484:1" depart="57724.00" departLane="653473569#5_1" departPos="5.10" departSpeed="0.00" departDelay="0.60" arrival="57754.00" arrivalLane="104012170_2" arrivalPos="109.94" arrivalSpeed="14.09" duration="30.00" routeLength="250.58" waitingTime="0.00" waitingCount="0" stopTime="0.00" timeLoss="11.63" rerouteNo="1" devices="tripinfo_carIn70484:1 routing_carIn70484:1" vType="default_016" speedFactor="1.04" vaporized=""/>
    <tripinfo id="carIn46350:1" depart="57630.00" departLane="201963537#1_1" departPos="5.10" departSpeed="0.00" departDelay="6.80" arrival="57755.00" arrivalLane="-653473569#5_1" arrivalPos="73.05" arrivalSpeed="12.50" duration="125.00" routeLength="256.07" waitingTime="90.00" waitingCount="2" stopTime="0.00" timeLoss="104.71" rerouteNo="1" devices="tripinfo_carIn46350:1 routing_carIn46350:1" vType="default_016" speedFactor="0.96" vaporized=""/>
    <tripinfo id="carIn79970:1" depart="57641.00" departLane="201963537#1_1" departPos="5.10" departSpeed="0.00" departDelay="14.20" arrival="57756.00" arrivalLane="104012170_2" arrivalPos="109.94" arrivalSpeed="14.57" duration="115.00" routeLength="293.69" waitingTime="81.00" waitingCount="2" stopTime="0.00" timeLoss="95.85" rerouteNo="1" devices="tripinfo_carIn79970:1 routing_carIn79970:1" vType="default_016" speedFactor="1.12" vaporized=""/>
    <tripinfo id="carIn119185:1" depart="57636.00" departLane="201963537#1_1" departPos="5.10" departSpeed="0.00" departDelay="10.80" arrival="57757.00" arrivalLane="104012170_1" arrivalPos="109.94" arrivalSpeed="12.65" duration="121.00" routeLength="293.69" waitingTime="87.00" waitingCount="2" stopTime="0.00" timeLoss="99.55" rerouteNo="1" devices="tripinfo_carIn119185:1 routing_carIn119185:1" vType="default_015" speedFactor="0.99" vaporized=""/>
    <tripinfo id="carIn75667:1" depart="57634.00" departLane="201963537#1_1" departPos="5.10" departSpeed="0.00" departDelay="9.40" arrival="57758.00" arrivalLane="-653473569#5_1" arrivalPos="73.05" arrivalSpeed="11.69" duration="124.00" routeLength="256.07" waitingTime="88.00" waitingCount="2" stopTime="0.00" timeLoss="102.38" rerouteNo="1" devices="tripinfo_carIn75667:1 routing_carIn75667:1" vType="default_016" speedFactor="0.91" vaporized=""/>
    <tripinfo id="carIn96537:1" depart="57651.00" departLane="201963537#1_1" departPos="5.10" departSpeed="0.00" departDelay="20.30" arrival="57758.00" arrivalLane="104012170_2" arrivalPos="109.94" arrivalSpeed="14.41" duration="107.00" routeLength="293.69" waitingTime="72.00" waitingCount="2" stopTime="0.00" timeLoss="88.18" rerouteNo="1" devices="tripinfo_carIn96537:1 routing_carIn96537:1" vType="default_016" speedFactor="1.13" vaporized=""/>
    <tripinfo id="carIn27195:1" depart="57645.00" departLane="201963537#1_1" departPos="5.10" departSpeed="0.00" departDelay="16.90" arrival="57759.00" arrivalLane="104012170_1" arrivalPos="109.94" arrivalSpeed="12.59" duration="114.00" routeLength="293.69" waitingTime="77.00" waitingCount="2" stopTime="0.00" timeLoss="92.41" rerouteNo="1" devices="tripinfo_carIn27195:1 routing_carIn27195:1" vType="default_016" speedFactor="0.99" vaporized=""/>
    <tripinfo id="carIn26708:1" depart="57729.00" departLane="653473569#5_1" departPos="5.10" departSpeed="0.00" departDelay="2.40" arrival="57762.00" arrivalLane="124812857#0_1" arrivalPos="143.49" arrivalSpeed="13.74" duration="33.00" routeLength="239.18" waitingTime="4.00" waitingCount="1" stopTime="0.00" timeLoss="16.11" rerouteNo="1" devices="tripinfo_carIn26708:1 routing_carIn26708:1" vType="default_016" speedFactor="1.07" vaporized=""/>
    <tripinfo id="carIn48988:1" depart="57732.00" departLane="653473569#5_1" departPos="5.10" departSpeed="0.00" departDelay="3.90" arrival="57765.00" arrivalLane="104012170_2" arrivalPos="109.94" arrivalSpeed="11.33" duration="33.00" routeLength="250.58" waitingTime="3.00" waitingCount="1" stopTime="0.00" timeLoss="11.56" rerouteNo="1" devices="tripinfo_carIn48988:1 routing_carIn48988:1" vType="default_016" speedFactor="0.87" vaporized=""/>
    <tripinfo id="carIn34550:1" depart="57734.00" departLane="653473569#5_1" departPos="5.10" departSpeed="0.00" departDelay="3.60" arrival="57766.00" arrivalLane="124812857#0_1" arrivalPos="143.49" arrivalSpeed="13.21" duration="32.00" routeLength="239.18" waitingTime="4.00" waitingCount="1" stopTime="0.00" timeLoss="12.97" rerouteNo="1" devices="tripinfo_carIn34550:1 routing_carIn34550:1" vType="default_016" speedFactor="0.98" vaporized=""/>
    <tripinfo id="carIn41791:1" depart="57737.00" departLane="653473569#5_1" departPos="5.10" departSpeed="0.00" departDelay="4.80" arrival="57768.00" arrivalLane="124812857#0_1" arrivalPos="143.49" arrivalSpeed="13.90" duration="31.00" routeLength="239.18" waitingTime="3.00" waitingCount="1" stopTime="0.00" timeLoss="13.88" rerouteNo="1" devices="tripinfo_carIn41791:1 routing_carIn41791:1" vType="default_016" speedFactor="1.04" vaporized=""/>
    <tripinfo id="carIn13016:1" depart="57740.00" departLane="653473569#5_1" departPos="5.10" departSpeed="0.00" departDelay="4.50" arrival="57773.00" arrivalLane="124812857#0_1" arrivalPos="143.49" arrivalSpeed="11.37" duration="33.00" routeLength="239.18" waitingTime="2.00" waitingCount="1" stopTime="0.00" timeLoss="12.53" rerouteNo="1" devices="tripinfo_carIn13016:1 routing_carIn13016:1" vType="default_016" speedFactor="0.89" vaporized=""/>
    <tripinfo id="carIn70477:1" depart="57743.00" departLane="653473569#5_1" departPos="5.10" departSpeed="0.00" departDelay="5.20" arrival="57775.00" arrivalLane="124812857#0_1" arrivalPos="143.49" arrivalSpeed="12.25" duration="32.00" routeLength="239.18" waitingTime="0.00" waitingCount="0" stopTime="0.00" timeLoss="12.66" rerouteNo="1" devices="tripinfo_carIn70477:1 routing_carIn70477:1" vType="default_016" speedFactor="0.94" vaporized=""/>
    <tripinfo id="randUni26227:1" depart="57746.00" departLane="653473569#5_1" departPos="5.10" departSpeed="0.00" departDelay="5.50" arrival="57778.00" arrivalLane="124812857#0_1" arrivalPos="143.49" arrivalSpeed="12.44" duration="32.00" routeLength="239.18" waitingTime="0.00" waitingCount="0" stopTime="0.00" timeLoss="12.21" rerouteNo="1" devices="tripinfo_randUni26227:1 routing_randUni26227:1" vType="random_016" speedFactor="0.92" vaporized=""/>
    <tripinfo id="h8750c1:1" depart="57609.00" departLane="104010354_1" departPos="5.10" departSpeed="0.00" departDelay="0.50" arrival="57787.00" arrivalLane="124812857#0_2" arrivalPos="143.49" arrivalSpeed="13.70" duration="178.00" routeLength="211.78" waitingTime="153.00" waitingCount="1" stopTime="0.00" timeLoss="163.02" rerouteNo="0" devices="tripinfo_h8750c1:1 routing_h8750c1:1" vType="default_016" speedFactor="1.02" vaporized=""/>
    <tripinfo id="carIn26410:1" depart="57655.00" departLane="201963537#1_1" departPos="5.10" departSpeed="0.00" departDelay="22.70" arrival="57787.00" arrivalLane="104012170_1" arrivalPos="109.94" arrivalSpeed="13.34" duration="132.00" routeLength="293.69" waitingTime="93.00" waitingCount="2" stopTime="0.00" timeLoss="109.86" rerouteNo="1" devices="tripinfo_carIn26410:1 routing_carIn26410:1" vType="default_016" speedFactor="0.97" vaporized=""/>
    <tripinfo id="carIn51024:1" depart="57659.00" departLane="201963537#1_1" departPos="5.10" departSpeed="0.00" departDelay="25.00" arrival="57789.00" arrivalLane="104012170_2" arrivalPos="109.94" arrivalSpeed="9.68" duration="130.00" routeLength="293.69" waitingTime="83.00" waitingCount="2" stopTime="0.00" timeLoss="102.70" rerouteNo="1" devices="tripinfo_carIn51024:1 routing_carIn51024:1" vType="default_016" speedFactor="0.78" vaporized=""/>
    <tripinfo id="carIn128705:1" depart="57663.00" departLane="201963537#1_1" departPos="5.10" departSpeed="0.00" departDelay="27.30" arrival="57789.00" arrivalLane="104012170_1" arrivalPos="109.94" arrivalSpeed="15.53" duration="126.00" routeLength="293.69" waitingTime="83.00" waitingCount="2" stopTime="0.00" timeLoss="106.93" rerouteNo="1" devices="tripinfo_carIn128705:1 routing_carIn128705:1" vType="default_016" speedFactor="1.14" vaporized=""/>
    <tripinfo id="carIn13117:1" depart="57638.00" departLane="104010354_1" departPos="5.10" departSpeed="0.00" departDelay="1.40" arrival="57790.00" arrivalLane="124812857#0_2" arrivalPos="143.49" arrivalSpeed="12.24" duration="152.00" routeLength="211.78" waitingTime="126.00" waitingCount="1" stopTime="0.00" timeLoss="135.46" rerouteNo="0" devices="tripinfo_carIn13117:1 routing_carIn13117:1" vType="default_016" speedFactor="0.97" vaporized=""/>
    <tripinfo id="h21989c1:1" depart="57667.00" departLane="201963537#1_1" departPos="5.10" departSpeed="0.00" departDelay="29.70" arrival="57791.00" arrivalLane="104012170_2" arrivalPos="109.94" arrivalSpeed="11.59" duration="124.00" routeLength="293.69" waitingTime="76.00" waitingCount="2" stopTime="0.00" timeLoss="99.07" rerouteNo="1" devices="tripinfo_h21989c1:1 routing_h21989c1:1" vType="default_016" speedFactor="0.86" vaporized=""/>
    <tripinfo id="h21130c2:1" depart="57752.00" departLane="201963537#1_1" departPos="5.10" departSpeed="0.00" departDelay="88.60" arrival="57791.00" arrivalLane="104012170_1" arrivalPos="109.94" arrivalSpeed="13.40" duration="39.00" routeLength="293.69" waitingTime="8.00" waitingCount="1" stopTime="0.00" timeLoss="17.31" rerouteNo="1" devices="tripinfo_h21130c2:1 routing_h21130c2:1" vType="default_016" speedFactor="0.98" vaporized=""/>
    <tripinfo id="carIn76112:1" depart="57639.00" departLane="201963537#1_1" departPos="5.10" departSpeed="0.00" departDelay="13.00" arrival="57792.00" arrivalLane="-653473569#5_1" arrivalPos="73.05" arrivalSpeed="13.18" duration="153.00" routeLength="256.07" waitingTime="109.00" waitingCount="3" stopTime="0.00" timeLoss="134.14" rerouteNo="1" devices="tripinfo_carIn76112:1 routing_carIn76112:1" vType="default_016" speedFactor="1.02" vaporized=""/>
    <tripinfo id="60R.41" depart="57634.00" departLane="104010354_1" departPos="12.10" departSpeed="0.00" departDelay="0.50" arrival="57792.00" arrivalLane="124812857#0_3" arrivalPos="143.49" arrivalSpeed="13.38" duration="158.00" routeLength="204.78" waitingTime="126.00" waitingCount="1" stopTime="0.00" timeLoss="142.36" rerouteNo="0" devices="tripinfo_60R.41 routing_60R.41" vType="bus" speedFactor="1.00" vaporized=""/>
    <tripinfo id="carIn20106:1" depart="57641.00" departLane="104010354_1" departPos="5.10" departSpeed="0.00" departDelay="1.50" arrival="57792.00" arrivalLane="124812857#0_2" arrivalPos="143.49" arrivalSpeed="12.15" duration="151.00" routeLength="211.78" waitingTime="126.00" waitingCount="2" stopTime="0.00" timeLoss="134.11" rerouteNo="0" devices="tripinfo_carIn20106:1 routing_carIn20106:1" vType="default_016" speedFactor="0.95" vaporized=""/>
    <tripinfo id="carIn27521:1" depart="57644.00" departLane="201963537#1_1" departPos="5.10" departSpeed="0.00" departDelay="16.50" arrival="57794.00" arrivalLane="-653473569#5_1" arrivalPos="73.05" arrivalSpeed="14.71" duration="150.00" routeLength="256.07" waitingTime="105.00" waitingCount="4" stopTime="0.00" timeLoss="131.94" rerouteNo="1" devices="tripinfo_carIn27521:1 routing_carIn27521:1" vType="default_015" speedFactor="1.08" vaporized=""/>
    <tripinfo id="randUni27349:1" depart="57646.00" departLane="104010354_1" departPos="5.10" departSpeed="0.00" departDelay="0.90" arrival="57794.00" arrivalLane="124812857#0_3" arrivalPos="143.49" arrivalSpeed="14.52" duration="148.00" routeLength="211.78" waitingTime="118.00" waitingCount="1" stopTime="0.00" timeLoss="132.67" rerouteNo="0" devices="tripinfo_randUni27349:1 routing_randUni27349:1" vType="random_016" speedFactor="1.05" vaporized=""/>
    <tripinfo id="carIn86816:1" depart="57769.00" departLane="653473569#5_1" departPos="5.10" departSpeed="0.00" departDelay="0.70" arrival="57795.00" arrivalLane="124812857#0_1" arrivalPos="143.49" arrivalSpeed="11.38" duration="26.00" routeLength="239.18" waitingTime="0.00" waitingCount="0" stopTime="0.00" timeLoss="4.56" rerouteNo="1" devices="tripinfo_carIn86816:1 routing_carIn86816:1" vType="default_016" speedFactor="0.84" vaporized=""/>
    <tripinfo id="carIn36018:1" depart="57667.00" departLane="104010354_1" departPos="5.10" departSpeed="0.00" departDelay="0.40" arrival="57836.00" arrivalLane="-653473569#5_1" arrivalPos="73.05" arrivalSpeed="13.04" duration="169.00" routeLength="153.51" waitingTime="141.00" waitingCount="2" stopTime="0.00" timeLoss="156.97" rerouteNo="1" devices="tripinfo_carIn36018:1 routing_carIn36018:1" vType="default_016" speedFactor="1.00" vaporized=""/>
    <tripinfo id="carIn102915:1" depart="57811.00" departLane="653473569#5_1" departPos="5.10" departSpeed="0.00" departDelay="0.90" arrival="57836.00" arrivalLane="124812857#0_1" arrivalPos="143.49" arrivalSpeed="12.98" duration="25.00" routeLength="239.18" waitingTime="0.00" waitingCount="0" stopTime="0.00" timeLoss="5.80" rerouteNo="1" devices="tripinfo_carIn102915:1 routing_carIn102915:1" vType="default_016" speedFactor="0.95" vaporized=""/>
    <tripinfo id="h20403c1:5" depart="57649.00" departLane="104010354_1" departPos="5.10" departSpeed="0.00" departDelay="2.40" arrival="57837.00" arrivalLane="124812857#0_2" arrivalPos="143.49" arrivalSpeed="15.48" duration="188.00" routeLength="211.78" waitingTime="158.00" waitingCount="2" stopTime="0.00" timeLoss="174.29" rerouteNo="0" devices="tripinfo_h20403c1:5 routing_h20403c1:5" vType="default_016" speedFactor="1.17" vaporized=""/>
    <tripinfo id="randUni33724:1" depart="57814.00" departLane="653473569#5_1" departPos="5.10" departSpeed="0.00" departDelay="2.20" arrival="57837.00" arrivalLane="124812857#0_1" arrivalPos="143.49" arrivalSpeed="14.36" duration="23.00" routeLength="239.18" waitingTime="0.00" waitingCount="0" stopTime="0.00" timeLoss="9.11" rerouteNo="1" devices="tripinfo_randUni33724:1 routing_randUni33724:1" vType="random_016" speedFactor="1.29" vaporized=""/>
    <tripinfo id="carIn73466:1" depart="57652.00" departLane="104010354_1" departPos="5.10" departSpeed="0.00" departDelay="3.70" arrival="57838.00" arrivalLane="124812857#0_2" arrivalPos="143.49" arrivalSpeed="13.26" duration="186.00" routeLength="211.78" waitingTime="153.00" waitingCount="2" stopTime="0.00" timeLoss="170.62" rerouteNo="0" devices="tripinfo_carIn73466:1 routing_carIn73466:1" vType="default_016" speedFactor="1.00" vaporized=""/>
    <tripinfo id="carIn100220:1" depart="57760.00" departLane="201963537#1_1" departPos="5.10" departSpeed="0.00" departDelay="84.70" arrival="57839.00" arrivalLane="104012170_2" arrivalPos="109.94" arrivalSpeed="14.51" duration="79.00" routeLength="293.69" waitingTime="38.00" waitingCount="2" stopTime="0.00" timeLoss="59.09" rerouteNo="1" devices="tripinfo_carIn100220:1 routing_carIn100220:1" vType="default_016" speedFactor="1.06" vaporized=""/>
    <tripinfo id="h2215c1:1" depart="57670.00" departLane="104010354_1" departPos="5.10" departSpeed="0.00" departDelay="0.10" arrival="57840.00" arrivalLane="124812857#0_3" arrivalPos="143.49" arrivalSpeed="13.31" duration="170.00" routeLength="211.78" waitingTime="136.00" waitingCount="2" stopTime="0.00" timeLoss="154.34" rerouteNo="0" devices="tripinfo_h2215c1:1 routing_h2215c1:1" vType="default_016" speedFactor="1.02" vaporized=""/>
    <tripinfo id="carIn48979:1" depart="57680.00" departLane="201963537#1_1" departPos="5.10" departSpeed="0.00" departDelay="34.80" arrival="57841.00" arrivalLane="-653473569#5_1" arrivalPos="73.05" arrivalSpeed="14.40" duration="161.00" routeLength="256.07" waitingTime="119.00" waitingCount="5" stopTime="0.00" timeLoss="142.09" rerouteNo="1" devices="tripinfo_carIn48979:1 routing_carIn48979:1" vType="default_016" speedFactor="1.05" vaporized=""/>
    <tripinfo id="60.39" depart="57756.00" departLane="201963537#1_1" departPos="12.10" departSpeed="0.00" departDelay="87.50" arrival="57841.00" arrivalLane="104012170_1" arrivalPos="109.94" arrivalSpeed="13.62" duration="85.00" routeLength="286.69" waitingTime="41.00" waitingCount="2" stopTime="0.00" timeLoss="63.70" rerouteNo="1" devices="tripinfo_60.39 routing_60.39" vType="bus" speedFactor="1.00" vaporized=""/>
    <tripinfo id="carIn35345:1" depart="57679.00" departLane="104010354_1" departPos="5.10" departSpeed="0.00" departDelay="1.10" arrival="57841.00" arrivalLane="124812857#0_3" arrivalPos="143.49" arrivalSpeed="14.35" duration="162.00" routeLength="211.78" waitingTime="129.00" waitingCount="2" stopTime="0.00" timeLoss="147.56" rerouteNo="0" devices="tripinfo_carIn35345:1 routing_carIn35345:1" vType="default_016" speedFactor="1.06" vaporized=""/>
    <tripinfo id="carIn102740:1" depart="57676.00" departLane="104010354_1" departPos="5.10" departSpeed="0.00" departDelay="0.50" arrival="57842.00" arrivalLane="124812857#0_2" arrivalPos="143.49" arrivalSpeed="12.56" duration="166.00" routeLength="211.78" waitingTime="135.00" waitingCount="2" stopTime="0.00" timeLoss="149.09" rerouteNo="0" devices="tripinfo_carIn102740:1 routing_carIn102740:1" vType="default_016" speedFactor="0.91" vaporized=""/>
    <tripinfo id="carIn130142:1" depart="57648.00" departLane="201963537#1_1" departPos="5.10" departSpeed="0.00" departDelay="18.90" arrival="57843.00" arrivalLane="-653473569#5_1" arrivalPos="73.05" arrivalSpeed="13.03" duration="195.00" routeLength="256.07" waitingTime="137.00" waitingCount="5" stopTime="0.00" timeLoss="176.02" rerouteNo="1" devices="tripinfo_carIn130142:1 routing_carIn130142:1" vType="default_015" speedFactor="1.01" vaporized=""/>
    <tripinfo id="h19804c1:3" depart="57682.00" departLane="201963537#1_1" departPos="5.10" departSpeed="0.00" departDelay="35.80" arrival="57864.00" arrivalLane="-653473569#5_1" arrivalPos="73.05" arrivalSpeed="14.01" duration="182.00" routeLength="256.07" waitingTime="141.00" waitingCount="4" stopTime="0.00" timeLoss="163.14" rerouteNo="1" devices="tripinfo_h19804c1:3 routing_h19804c1:3" vType="default_016" speedFactor="1.01" vaporized=""/>
    <tripinfo id="carIn88932:1" depart="57740.00" departLane="201963537#1_1" departPos="5.10" departSpeed="0.00" departDelay="93.30" arrival="57866.00" arrivalLane="-653473569#5_1" arrivalPos="73.05" arrivalSpeed="14.22" duration="126.00" routeLength="256.07" waitingTime="87.00" waitingCount="4" stopTime="0.00" timeLoss="107.73" rerouteNo="1" devices="tripinfo_carIn88932:1 routing_carIn88932:1" vType="default_016" speedFactor="1.06" vaporized=""/>
    <tripinfo id="h21189c1:3" depart="57774.00" departLane="201963537#1_1" departPos="5.10" departSpeed="0.00" departDelay="35.60" arrival="57866.00" arrivalLane="104012170_1" arrivalPos="109.94" arrivalSpeed="15.72" duration="92.00" routeLength="293.69" waitingTime="54.00" waitingCount="2" stopTime="0.00" timeLoss="73.39" rerouteNo="1" devices="tripinfo_h21189c1:3 routing_h21189c1:3" vType="default_016" speedFactor="1.17" vaporized=""/>
    <tripinfo id="carIn7365:1" depart="57785.00" departLane="201963537#1_1" departPos="5.10" departSpeed="0.00" departDelay="36.90" arrival="57867.00" arrivalLane="104012170_1" arrivalPos="109.94" arrivalSpeed="13.45" duration="82.00" routeLength="293.69" waitingTime="43.00" waitingCount="2" stopTime="0.00" timeLoss="60.56" rerouteNo="1" devices="tripinfo_carIn7365:1 routing_carIn7365:1" vType="default_016" speedFactor="1.00" vaporized=""/>
    <tripinfo id="50R_frequency3.17" depart="57861.00" departLane="653473569#5_1" departPos="12.10" departSpeed="0.00" departDelay="0.10" arrival="57889.00" arrivalLane="124812857#0_1" arrivalPos="143.49" arrivalSpeed="13.68" duration="28.00" routeLength="232.18" waitingTime="0.00" waitingCount="0" stopTime="0.00" timeLoss="10.12" rerouteNo="1" devices="tripinfo_50R_frequency3.17 routing_50R_frequency3.17" vType="bus" speedFactor="1.00" vaporized=""/>