<?xml version="1.0" encoding="UTF-8"?>

<!-- generated on 2023-08-31 12:56:04 by Eclipse SUMO libsumo Version 1.18.0
<configuration xmlns:xsi="http://www.w3.org/2001/XMLSchema-instance" xsi:noNamespaceSchemaLocation="http://sumo.dlr.de/xsd/libsumoConfiguration.xsd">

    <input>
        <net-file value="/home/stefan/RESCO/./environments/ingolstadt7/ingolstadt7.net.xml"/>
        <route-files value="/home/stefan/RESCO/./environments/ingolstadt7/ingolstadt7.rou.xml"/>
    </input>

    <output>
        <tripinfo-output value="/home/stefan/results/RAINBOW-tr0-ingolstadt7-7-drq_norm-wait_norm/tripinfo_98.xml"/>
        <tripinfo-output.write-unfinished value="true"/>
    </output>

    <time>
        <begin value="57600"/>
        <end value="61200"/>
    </time>

    <processing>
        <time-to-teleport value="-1"/>
    </processing>

    <report>
        <no-warnings value="True"/>
        <no-step-log value="True"/>
    </report>

    <random_number>
        <random value="true"/>
    </random_number>

</configuration>
-->

<tripinfos xmlns:xsi="http://www.w3.org/2001/XMLSchema-instance" xsi:noNamespaceSchemaLocation="http://sumo.dlr.de/xsd/tripinfo_file.xsd">
    <tripinfo id="carIn89578:1" depart="57614.00" departLane="124812856#0_1" departPos="5.10" departSpeed="0.00" departDelay="3.60" arrival="57630.00" arrivalLane="201956810_1" arrivalPos="71.65" arrivalSpeed="14.35" duration="16.00" routeLength="134.91" waitingTime="0.00" waitingCount="0" stopTime="0.00" timeLoss="5.71" rerouteNo="1" devices="tripinfo_carIn89578:1 routing_carIn89578:1" vType="default_016" speedFactor="1.04" vaporized=""/>
    <tripinfo id="carIn25202:1" depart="57629.00" departLane="315358253#1_1" departPos="5.10" departSpeed="0.00" departDelay="1.50" arrival="57666.00" arrivalLane="32978638#0_1" arrivalPos="49.29" arrivalSpeed="13.38" duration="37.00" routeLength="405.15" waitingTime="0.00" waitingCount="0" stopTime="0.00" timeLoss="7.36" rerouteNo="1" devices="tripinfo_carIn25202:1 routing_carIn25202:1" vType="default_016" speedFactor="1.03" vaporized=""/>
    <tripinfo id="carIn925:1" depart="57654.00" departLane="124812856#0_1" departPos="5.10" departSpeed="0.00" departDelay="27.90" arrival="57670.00" arrivalLane="201956810_1" arrivalPos="71.65" arrivalSpeed="13.40" duration="16.00" routeLength="134.91" waitingTime="0.00" waitingCount="0" stopTime="0.00" timeLoss="5.11" rerouteNo="1" devices="tripinfo_carIn925:1 routing_carIn925:1" vType="default_016" speedFactor="0.98" vaporized=""/>
    <tripinfo id="carIn55461:1" depart="57652.00" departLane="10425609#0_1" departPos="5.10" departSpeed="0.00" departDelay="0.30" arrival="57679.00" arrivalLane="201956810_1" arrivalPos="71.65" arrivalSpeed="13.69" duration="27.00" routeLength="255.78" waitingTime="0.00" waitingCount="0" stopTime="0.00" timeLoss="6.87" rerouteNo="1" devices="tripinfo_carIn55461:1 routing_carIn55461:1" vType="default_016" speedFactor="1.01" vaporized=""/>
    <tripinfo id="carIn33538:1" depart="57671.00" departLane="37386279_1" departPos="5.10" departSpeed="0.00" departDelay="0.30" arrival="57686.00" arrivalLane="-24634414#4_1" arrivalPos="22.88" arrivalSpeed="7.30" duration="15.00" routeLength="125.23" waitingTime="0.00" waitingCount="0" stopTime="0.00" timeLoss="3.84" rerouteNo="0" devices="tripinfo_carIn33538:1 routing_carIn33538:1" vType="default_016" speedFactor="0.98" vaporized=""/>
    <tripinfo id="carIn114137:1" depart="57635.00" departLane="27920078#0_1" departPos="5.10" departSpeed="0.00" departDelay="4.10" arrival="57700.00" arrivalLane="-83304175#2_1" arrivalPos="189.34" arrivalSpeed="7.91" duration="65.00" routeLength="501.51" waitingTime="6.00" waitingCount="1" stopTime="0.00" timeLoss="21.89" rerouteNo="1" devices="tripinfo_carIn114137:1 routing_carIn114137:1" vType="default_016" speedFactor="1.10" vaporized=""/>
    <tripinfo id="carIn22637:1" depart="57636.00" departLane="27920078#0_1" departPos="5.10" departSpeed="0.00" departDelay="3.50" arrival="57708.00" arrivalLane="-83304175#2_1" arrivalPos="189.34" arrivalSpeed="6.79" duration="72.00" routeLength="501.51" waitingTime="5.00" waitingCount="1" stopTime="0.00" timeLoss="21.59" rerouteNo="1" devices="tripinfo_carIn22637:1 routing_carIn22637:1" vType="default_016" speedFactor="0.93" vaporized=""/>
    <tripinfo id="carIn131078:1" depart="57679.00" departLane="124812856#0_1" departPos="5.10" departSpeed="0.00" departDelay="43.60" arrival="57712.00" arrivalLane="201956810_1" arrivalPos="71.65" arrivalSpeed="11.25" duration="33.00" routeLength="134.91" waitingTime="7.00" waitingCount="1" stopTime="0.00" timeLoss="20.61" rerouteNo="1" devices="tripinfo_carIn131078:1 routing_carIn131078:1" vType="default_016" speedFactor="0.88" vaporized=""/>
    <tripinfo id="h3688c1:1" depart="57679.00" departLane="315358253#1_1" departPos="5.10" departSpeed="0.00" departDelay="0.50" arrival="57715.00" arrivalLane="32978638#0_1" arrivalPos="49.29" arrivalSpeed="13.34" duration="36.00" routeLength="405.15" waitingTime="0.00" waitingCount="0" stopTime="0.00" timeLoss="5.91" rerouteNo="1" devices="tripinfo_h3688c1:1 routing_h3688c1:1" vType="default_016" speedFactor="1.02" vaporized=""/>
    <tripinfo id="carIn12900:1" depart="57698.00" departLane="124812856#0_1" departPos="5.10" departSpeed="0.00" departDelay="49.80" arrival="57716.00" arrivalLane="201956810_1" arrivalPos="71.65" arrivalSpeed="11.19" duration="18.00" routeLength="134.91" waitingTime="0.00" waitingCount="0" stopTime="0.00" timeLoss="4.38" rerouteNo="1" devices="tripinfo_carIn12900:1 routing_carIn12900:1" vType="default_016" speedFactor="0.82" vaporized=""/>
    <tripinfo id="h317c2:1" depart="57707.00" departLane="-32978638#0_1" departPos="5.10" departSpeed="0.00" departDelay="0.10" arrival="57742.00" arrivalLane="-266565295#5_1" arrivalPos="172.76" arrivalSpeed="12.92" duration="35.00" routeLength="370.53" waitingTime="0.00" waitingCount="0" stopTime="0.00" timeLoss="6.17" rerouteNo="1" devices="tripinfo_h317c2:1 routing_h317c2:1" vType="default_016" speedFactor="0.96" vaporized=""/>
    <tripinfo id="carIn7887:1" depart="57661.00" departLane="27920078#0_1" departPos="5.10" departSpeed="0.00" departDelay="0.50" arrival="57746.00" arrivalLane="-83304175#2_1" arrivalPos="189.34" arrivalSpeed="8.45" duration="85.00" routeLength="501.51" waitingTime="29.00" waitingCount="1" stopTime="0.00" timeLoss="43.10" rerouteNo="1" devices="tripinfo_carIn7887:1 routing_carIn7887:1" vType="default_016" speedFactor="1.13" vaporized=""/>
    <tripinfo id="randUni22709:1" depart="57718.00" departLane="315358253#1_1" departPos="5.10" departSpeed="0.00" departDelay="0.20" arrival="57754.00" arrivalLane="32978638#0_1" arrivalPos="49.29" arrivalSpeed="14.27" duration="36.00" routeLength="405.15" waitingTime="0.00" waitingCount="0" stopTime="0.00" timeLoss="6.88" rerouteNo="1" devices="tripinfo_randUni22709:1 routing_randUni22709:1" vType="random_016" speedFactor="1.05" vaporized=""/>
    <tripinfo id="carIn99509:1" depart="57720.00" departLane="-32978638#0_1" departPos="5.10" departSpeed="0.00" departDelay="0.20" arrival="57761.00" arrivalLane="-315358253#1_1" arrivalPos="63.90" arrivalSpeed="11.59" duration="41.00" routeLength="422.17" waitingTime="0.00" waitingCount="0" stopTime="0.00" timeLoss="6.48" rerouteNo="1" devices="tripinfo_carIn99509:1 routing_carIn99509:1" vType="default_015" speedFactor="0.93" vaporized=""/>
    <tripinfo id="h134c1:3" depart="57721.00" departLane="315358253#1_1" departPos="5.10" departSpeed="0.00" departDelay="1.60" arrival="57762.00" arrivalLane="32978638#0_1" arrivalPos="49.29" arrivalSpeed="12.06" duration="41.00" routeLength="405.15" waitingTime="0.00" waitingCount="0" stopTime="0.00" timeLoss="7.02" rerouteNo="1" devices="tripinfo_h134c1:3 routing_h134c1:3" vType="default_016" speedFactor="0.91" vaporized=""/>
    <tripinfo id="carIn74045:1" depart="57724.00" departLane="315358253#1_1" departPos="5.10" departSpeed="0.00" departDelay="3.00" arrival="57764.00" arrivalLane="32978638#0_1" arrivalPos="49.29" arrivalSpeed="14.99" duration="40.00" routeLength="405.15" waitingTime="0.00" waitingCount="0" stopTime="0.00" timeLoss="12.54" rerouteNo="1" devices="tripinfo_carIn74045:1 routing_carIn74045:1" vType="default_016" speedFactor="1.15" vaporized=""/>
    <tripinfo id="h330c1:1" depart="57736.00" departLane="-32978638#0_1" departPos="5.10" departSpeed="0.00" departDelay="0.20" arrival="57768.00" arrivalLane="-266565295#5_1" arrivalPos="172.76" arrivalSpeed="14.62" duration="32.00" routeLength="370.53" waitingTime="0.00" waitingCount="0" stopTime="0.00" timeLoss="6.80" rerouteNo="1" devices="tripinfo_h330c1:1 routing_h330c1:1" vType="default_016" speedFactor="1.08" vaporized=""/>
    <tripinfo id="11_frequency1.42" depart="57739.00" departLane="315358253#1_1" departPos="12.10" departSpeed="0.00" departDelay="0.30" arrival="57781.00" arrivalLane="32978638#0_1" arrivalPos="49.29" arrivalSpeed="13.33" duration="42.00" routeLength="398.15" waitingTime="0.00" waitingCount="0" stopTime="0.00" timeLoss="11.14" rerouteNo="1" devices="tripinfo_11_frequency1.42 routing_11_frequency1.42" vType="bus" speedFactor="1.00" vaporized=""/>
    <tripinfo id="carIn98605:1" depart="57743.00" departLane="315358253#1_1" departPos="5.10" departSpeed="0.00" departDelay="2.20" arrival="57783.00" arrivalLane="32978638#0_1" arrivalPos="49.29" arrivalSpeed="13.68" duration="40.00" routeLength="405.15" waitingTime="1.00" waitingCount="1" stopTime="0.00" timeLoss="9.67" rerouteNo="1" devices="tripinfo_carIn98605:1 routing_carIn98605:1" vType="default_016" speedFactor="1.01" vaporized=""/>
    <tripinfo id="carIn106325:1" depart="57713.00" departLane="27920078#0_1" departPos="5.10" departSpeed="0.00" departDelay="0.10" arrival="57789.00" arrivalLane="-83304175#2_1" arrivalPos="189.34" arrivalSpeed="6.62" duration="76.00" routeLength="501.51" waitingTime="9.00" waitingCount="1" stopTime="0.00" timeLoss="22.18" rerouteNo="1" devices="tripinfo_carIn106325:1 routing_carIn106325:1" vType="default_016" speedFactor="0.87" vaporized=""/>
    <tripinfo id="h319c1:3" depart="57747.00" departLane="315358253#1_1" departPos="5.10" departSpeed="0.00" departDelay="4.70" arrival="57790.00" arrivalLane="32978638#0_1" arrivalPos="49.29" arrivalSpeed="11.39" duration="43.00" routeLength="405.15" waitingTime="0.00" waitingCount="0" stopTime="0.00" timeLoss="6.84" rerouteNo="1" devices="tripinfo_h319c1:3 routing_h319c1:3" vType="default_016" speedFactor="0.85" vaporized=""/>
    <tripinfo id="carIn99738:1" depart="57718.00" departLane="27920078#0_1" departPos="5.10" departSpeed="0.00" departDelay="0.30" arrival="57791.00" arrivalLane="-83304175#2_1" arrivalPos="189.34" arrivalSpeed="9.05" duration="73.00" routeLength="501.51" waitingTime="7.00" waitingCount="1" stopTime="0.00" timeLoss="31.64" rerouteNo="1" devices="tripinfo_carIn99738:1 routing_carIn99738:1" vType="default_016" speedFactor="1.14" vaporized=""/>
    <tripinfo id="carIn107250:1" depart="57753.00" departLane="315358253#1_1" departPos="5.10" departSpeed="0.00" departDelay="7.70" arrival="57792.00" arrivalLane="32978638#0_1" arrivalPos="49.29" arrivalSpeed="12.84" duration="39.00" routeLength="405.15" waitingTime="0.00" waitingCount="0" stopTime="0.00" timeLoss="7.44" rerouteNo="1" devices="tripinfo_carIn107250:1 routing_carIn107250:1" vType="default_016" speedFactor="1.00" vaporized=""/>
    <tripinfo id="carIn117869:1" depart="57758.00" departLane="-32978638#0_1" departPos="5.10" departSpeed="0.00" departDelay="0.60" arrival="57795.00" arrivalLane="-315358253#1_1" arrivalPos="63.90" arrivalSpeed="13.91" duration="37.00" routeLength="422.17" waitingTime="0.00" waitingCount="0" stopTime="0.00" timeLoss="5.53" rerouteNo="1" devices="tripinfo_carIn117869:1 routing_carIn117869:1" vType="default_016" speedFactor="1.01" vaporized=""/>
    <tripinfo id="h14316c1:3" depart="57759.00" departLane="315358253#1_1" departPos="5.10" departSpeed="0.00" departDelay="10.00" arrival="57799.00" arrivalLane="32978638#0_1" arrivalPos="49.29" arrivalSpeed="11.52" duration="40.00" routeLength="405.15" waitingTime="0.00" waitingCount="0" stopTime="0.00" timeLoss="6.10" rerouteNo="1" devices="tripinfo_h14316c1:3 routing_h14316c1:3" vType="default_016" speedFactor="0.90" vaporized=""/>
    <tripinfo id="carIn7631:1" depart="57786.00" departLane="-32978638#0_1" departPos="5.10" departSpeed="0.00" departDelay="0.70" arrival="57827.00" arrivalLane="-315358253#1_1" arrivalPos="63.90" arrivalSpeed="12.47" duration="41.00" routeLength="422.17" waitingTime="0.00" waitingCount="0" stopTime="0.00" timeLoss="6.71" rerouteNo="1" devices="tripinfo_carIn7631:1 routing_carIn7631:1" vType="default_016" speedFactor="0.92" vaporized=""/>
    <tripinfo id="randUni31145:1" depart="57814.00" departLane="10425609#0_1" departPos="5.10" departSpeed="0.00" departDelay="0.30" arrival="57840.00" arrivalLane="201956810_1" arrivalPos="71.65" arrivalSpeed="13.26" duration="26.00" routeLength="255.78" waitingTime="0.00" waitingCount="0" stopTime="0.00" timeLoss="5.74" rerouteNo="1" devices="tripinfo_randUni31145:1 routing_randUni31145:1" vType="random_016" speedFactor="0.99" vaporized=""/>
    <tripinfo id="carIn46110:1" depart="57804.00" departLane="315358253#1_1" departPos="5.10" departSpeed="0.00" departDelay="0.40" arrival="57844.00" arrivalLane="32978638#0_1" arrivalPos="49.29" arrivalSpeed="12.29" duration="40.00" routeLength="405.15" waitingTime="0.00" waitingCount="0" stopTime="0.00" timeLoss="5.88" rerouteNo="1" devices="tripinfo_carIn46110:1 routing_carIn46110:1" vType="default_016" speedFactor="0.89" vaporized=""/>
    <tripinfo id="h19105c2:3" depart="57795.00" departLane="10425609#0_1" departPos="5.10" departSpeed="0.00" departDelay="0.60" arrival="57846.00" arrivalLane="-653473569#5_1" arrivalPos="73.05" arrivalSpeed="13.44" duration="51.00" routeLength="323.56" waitingTime="0.00" waitingCount="0" stopTime="0.00" timeLoss="9.79" rerouteNo="1" devices="tripinfo_h19105c2:3 routing_h19105c2:3" vType="default_016" speedFactor="1.04" vaporized=""/>
    <tripinfo id="randUni2407:1" depart="57820.00" departLane="10425609#0_1" departPos="5.10" departSpeed="0.00" departDelay="0.80" arrival="57846.00" arrivalLane="201956810_1" arrivalPos="71.65" arrivalSpeed="14.01" duration="26.00" routeLength="255.78" waitingTime="0.00" waitingCount="0" stopTime="0.00" timeLoss="6.35" rerouteNo="1" devices="tripinfo_randUni2407:1 routing_randUni2407:1" vType="random_016" speedFactor="1.04" vaporized=""/>
    <tripinfo id="h6541c1:3" depart="57807.00" departLane="315358253#1_1" departPos="5.10" departSpeed="0.00" departDelay="0.60" arrival="57847.00" arrivalLane="32978638#0_1" arrivalPos="49.29" arrivalSpeed="13.52" duration="40.00" routeLength="405.15" waitingTime="0.00" waitingCount="0" stopTime="0.00" timeLoss="7.59" rerouteNo="1" devices="tripinfo_h6541c1:3 routing_h6541c1:3" vType="default_016" speedFactor="0.97" vaporized=""/>
    <tripinfo id="carIn9810:1" depart="57820.00" departLane="315358253#1_1" departPos="5.10" departSpeed="0.00" departDelay="0.80" arrival="57861.00" arrivalLane="32978638#0_1" arrivalPos="49.29" arrivalSpeed="11.64" duration="41.00" routeLength="405.15" waitingTime="0.00" waitingCount="0" stopTime="0.00" timeLoss="6.67" rerouteNo="1" devices="tripinfo_carIn9810:1 routing_carIn9810:1" vType="default_016" speedFactor="0.90" vaporized=""/>
    <tripinfo id="carIn114105:1" depart="57821.00" departLane="10425609#0_1" departPos="5.10" departSpeed="0.00" departDelay="0.20" arrival="57873.00" arrivalLane="-653473569#5_1" arrivalPos="73.05" arrivalSpeed="13.27" duration="52.00" routeLength="323.56" waitingTime="0.00" waitingCount="0" stopTime="0.00" timeLoss="8.71" rerouteNo="1" devices="tripinfo_carIn114105:1 routing_carIn114105:1" vType="default_016" speedFactor="1.00" vaporized=""/>
    <tripinfo id="h3536c1:1" depart="57836.00" departLane="315358253#1_1" departPos="5.10" departSpeed="0.00" departDelay="0.80" arrival="57874.00" arrivalLane="32978638#0_1" arrivalPos="49.29" arrivalSpeed="13.37" duration="38.00" routeLength="405.15" waitingTime="0.00" waitingCount="0" stopTime="0.00" timeLoss="6.88" rerouteNo="1" devices="tripinfo_h3536c1:1 routing_h3536c1:1" vType="default_016" speedFactor="0.99" vaporized=""/>
    <tripinfo id="carIn72316:1" depart="57826.00" departLane="10425609#0_1" departPos="5.10" departSpeed="0.00" departDelay="0.50" arrival="57885.00" arrivalLane="-653473569#5_1" arrivalPos="73.05" arrivalSpeed="12.25" duration="59.00" routeLength="323.56" waitingTime="1.00" waitingCount="1" stopTime="0.00" timeLoss="12.48" rerouteNo="1" devices="tripinfo_carIn72316:1 routing_carIn72316:1" vType="default_016" speedFactor="0.94" vaporized=""/>
    <tripinfo id="carIn101921:1" depart="57856.00" departLane="-32978638#0_1" departPos="5.10" departSpeed="0.00" departDelay="5.90" arrival="57893.00" arrivalLane="-315358253#1_1" arrivalPos="63.90" arrivalSpeed="13.30" duration="37.00" routeLength="422.17" waitingTime="0.00" waitingCount="0" stopTime="0.00" timeLoss="6.10" rerouteNo="1" devices="tripinfo_carIn101921:1 routing_carIn101921:1" vType="default_016" speedFactor="1.01" vaporized=""/>
    <tripinfo id="h13311c1:3" depart="57861.00" departLane="315358253#1_1" departPos="5.10" departSpeed="0.00" departDelay="0.00" arrival="57893.00" arrivalLane="32978638#0_1" arrivalPos="49.29" arrivalSpeed="16.64" duration="32.00" routeLength="405.15" waitingTime="0.00" waitingCount="0" stopTime="0.00" timeLoss="6.34" rerouteNo="1" devices="tripinfo_h13311c1:3 routing_h13311c1:3" vType="default_016" speedFactor="1.20" vaporized=""/>
    <tripinfo id="h7759c1:3" depart="57859.00" departLane="-32978638#0_1" departPos="5.10" departSpeed="0.00" departDelay="7.20" arrival="57896.00" arrivalLane="-315358253#1_1" arrivalPos="63.90" arrivalSpeed="14.83" duration="37.00" routeLength="422.17" waitingTime="0.00" waitingCount="0" stopTime="0.00" timeLoss="7.10" rerouteNo="1" devices="tripinfo_h7759c1:3 routing_h7759c1:3" vType="default_016" speedFactor="1.09" vaporized=""/>
    <tripinfo id="carIn88912:1" depart="57867.00" departLane="-32978638#0_1" departPos="5.10" departSpeed="0.00" departDelay="0.20" arrival="57905.00" arrivalLane="-315358253#1_1" arrivalPos="63.90" arrivalSpeed="12.85" duration="38.00" routeLength="422.17" waitingTime="0.00" waitingCount="0" stopTime="0.00" timeLoss="6.15" rerouteNo="1" devices="tripinfo_carIn88912:1 routing_carIn88912:1" vType="default_016" speedFactor="0.99" vaporized=""/>
    <tripinfo id="carIn126072:1" depart="57870.00" departLane="315358253#1_1" departPos="5.10" departSpeed="0.00" departDelay="0.80" arrival="57906.00" arrivalLane="32978638#0_1" arrivalPos="49.29" arrivalSpeed="13.99" duration="36.00" routeLength="405.15" waitingTime="0.00" waitingCount="0" stopTime="0.00" timeLoss="6.84" rerouteNo="1" devices="tripinfo_carIn126072:1 routing_carIn126072:1" vType="default_016" speedFactor="1.06" vaporized=""/>
    <tripinfo id="carIn82399:1" depart="57828.00" departLane="10425609#0_1" departPos="5.10" departSpeed="0.00" departDelay="0.70" arrival="57907.00" arrivalLane="202070434#2_1" arrivalPos="39.03" arrivalSpeed="13.13" duration="79.00" routeLength="500.67" waitingTime="1.00" waitingCount="1" stopTime="0.00" timeLoss="20.05" rerouteNo="1" devices="tripinfo_carIn82399:1 routing_carIn82399:1" vType="default_016" speedFactor="0.95" vaporized=""/>
    <tripinfo id="carIn64958:1" depart="57857.00" departLane="10425609#0_1" departPos="5.10" departSpeed="0.00" departDelay="0.60" arrival="57907.00" arrivalLane="-653473569#5_1" arrivalPos="73.05" arrivalSpeed="14.34" duration="50.00" routeLength="323.56" waitingTime="0.00" waitingCount="0" stopTime="0.00" timeLoss="9.11" rerouteNo="1" devices="tripinfo_carIn64958:1 routing_carIn64958:1" vType="default_016" speedFactor="1.06" vaporized=""/>
    <tripinfo id="randUni6170:1" depart="57835.00" departLane="10425609#0_1" departPos="5.10" departSpeed="0.00" departDelay="0.20" arrival="57909.00" arrivalLane="202070434#2_1" arrivalPos="39.03" arrivalSpeed="13.69" duration="74.00" routeLength="500.67" waitingTime="0.00" waitingCount="0" stopTime="0.00" timeLoss="18.49" rerouteNo="1" devices="tripinfo_randUni6170:1 routing_randUni6170:1" vType="random_016" speedFactor="1.01" vaporized=""/>
    <tripinfo id="carIn133015:1" depart="57864.00" departLane="10425609#0_1" departPos="5.10" departSpeed="0.00" departDelay="0.00" arrival="57909.00" arrivalLane="-653473569#5_1" arrivalPos="73.05" arrivalSpeed="16.23" duration="45.00" routeLength="323.56" waitingTime="0.00" waitingCount="0" stopTime="0.00" timeLoss="9.06" rerouteNo="1" devices="tripinfo_carIn133015:1 routing_carIn133015:1" vType="default_016" speedFactor="1.20" vaporized=""/>
    <tripinfo id="h15564c1:1" depart="57843.00" departLane="10425609#0_1" departPos="5.10" departSpeed="0.00" departDelay="0.50" arrival="57912.00" arrivalLane="202070434#2_1" arrivalPos="39.03" arrivalSpeed="14.66" duration="69.00" routeLength="500.67" waitingTime="0.00" waitingCount="0" stopTime="0.00" timeLoss="16.97" rerouteNo="1" devices="tripinfo_h15564c1:1 routing_h15564c1:1" vType="default_016" speedFactor="1.08" vaporized=""/>
    <tripinfo id="carIn69046:1" depart="57887.00" departLane="-32978638#0_1" departPos="5.10" departSpeed="0.00" departDelay="0.40" arrival="57923.00" arrivalLane="-315358253#1_1" arrivalPos="63.90" arrivalSpeed="14.33" duration="36.00" routeLength="422.17" waitingTime="0.00" waitingCount="0" stopTime="0.00" timeLoss="5.80" rerouteNo="1" devices="tripinfo_carIn69046:1 routing_carIn69046:1" vType="default_016" speedFactor="1.08" vaporized=""/>
    <tripinfo id="h21699c2:1" depart="57890.00" departLane="-32978638#0_1" departPos="5.10" departSpeed="0.00" departDelay="1.90" arrival="57931.00" arrivalLane="-315358253#1_1" arrivalPos="63.90" arrivalSpeed="11.75" duration="41.00" routeLength="422.17" waitingTime="0.00" waitingCount="0" stopTime="0.00" timeLoss="6.46" rerouteNo="1" devices="tripinfo_h21699c2:1 routing_h21699c2:1" vType="default_016" speedFactor="0.93" vaporized=""/>
    <tripinfo id="h19571c2:3" depart="57882.00" departLane="10425609#0_1" departPos="5.10" departSpeed="0.00" departDelay="0.30" arrival="57934.00" arrivalLane="-653473569#5_1" arrivalPos="73.05" arrivalSpeed="13.17" duration="52.00" routeLength="323.56" waitingTime="0.00" waitingCount="0" stopTime="0.00" timeLoss="9.02" rerouteNo="1" devices="tripinfo_h19571c2:3 routing_h19571c2:3" vType="default_016" speedFactor="1.01" vaporized=""/>
    <tripinfo id="h17890c1:3" depart="57893.00" departLane="315358253#1_1" departPos="5.10" departSpeed="0.00" departDelay="0.90" arrival="57935.00" arrivalLane="32978638#0_1" arrivalPos="49.29" arrivalSpeed="11.21" duration="42.00" routeLength="405.15" waitingTime="0.00" waitingCount="0" stopTime="0.00" timeLoss="6.02" rerouteNo="1" devices="tripinfo_h17890c1:3 routing_h17890c1:3" vType="default_016" speedFactor="0.85" vaporized=""/>
    <tripinfo id="randUni16001:1" depart="57912.00" departLane="10425609#0_1" departPos="5.10" departSpeed="0.00" departDelay="0.30" arrival="57937.00" arrivalLane="201956810_1" arrivalPos="71.65" arrivalSpeed="15.09" duration="25.00" routeLength="255.78" waitingTime="0.00" waitingCount="0" stopTime="0.00" timeLoss="6.48" rerouteNo="1" devices="tripinfo_randUni16001:1 routing_randUni16001:1" vType="random_016" speedFactor="1.09" vaporized=""/>
    <tripinfo id="h4784c1:3" depart="57899.00" departLane="315358253#1_1" departPos="5.10" departSpeed="0.00" departDelay="0.10" arrival="57938.00" arrivalLane="32978638#0_1" arrivalPos="49.29" arrivalSpeed="12.47" duration="39.00" routeLength="405.15" waitingTime="0.00" waitingCount="0" stopTime="0.00" timeLoss="6.72" rerouteNo="1" devices="tripinfo_h4784c1:3 routing_h4784c1:3" vType="default_016" speedFactor="0.96" vaporized=""/>
    <tripinfo id="carIn48137:1" depart="57903.00" departLane="315358253#1_1" departPos="5.10" departSpeed="0.00" departDelay="0.20" arrival="57940.00" arrivalLane="32978638#0_1" arrivalPos="49.29" arrivalSpeed="14.32" duration="37.00" routeLength="405.15" waitingTime="0.00" waitingCount="0" stopTime="0.00" timeLoss="6.47" rerouteNo="1" devices="tripinfo_carIn48137:1 routing_carIn48137:1" vType="default_016" speedFactor="1.04" vaporized=""/>
    <tripinfo id="h21872c1:1" depart="57901.00" departLane="-32978638#0_1" departPos="5.10" departSpeed="0.00" departDelay="0.70" arrival="57941.00" arrivalLane="-315358253#1_1" arrivalPos="63.90" arrivalSpeed="13.08" duration="40.00" routeLength="422.17" waitingTime="0.00" waitingCount="0" stopTime="0.00" timeLoss="6.64" rerouteNo="1" devices="tripinfo_h21872c1:1 routing_h21872c1:1" vType="default_016" speedFactor="0.94" vaporized=""/>
    <tripinfo id="h3847c1:3" depart="57907.00" departLane="315358253#1_1" departPos="5.10" departSpeed="0.00" departDelay="0.40" arrival="57941.00" arrivalLane="32978638#0_1" arrivalPos="49.29" arrivalSpeed="14.98" duration="34.00" routeLength="405.15" waitingTime="0.00" waitingCount="0" stopTime="0.00" timeLoss="7.51" rerouteNo="1" devices="tripinfo_h3847c1:3 routing_h3847c1:3" vType="default_016" speedFactor="1.14" vaporized=""/>
    <tripinfo id="carIn41236:1" depart="57904.00" departLane="-32978638#0_1" departPos="5.10" departSpeed="0.00" departDelay="2.10" arrival="57943.00" arrivalLane="-315358253#1_1" arrivalPos="63.90" arrivalSpeed="12.84" duration="39.00" routeLength="422.17" waitingTime="0.00" waitingCount="0" stopTime="0.00" timeLoss="7.13" rerouteNo="1" devices="tripinfo_carIn41236:1 routing_carIn41236:1" vType="default_016" speedFactor="0.99" vaporized=""/>
    <tripinfo id="carIn101809:1" depart="57912.00" departLane="-32978638#0_1" departPos="5.10" departSpeed="0.00" departDelay="4.60" arrival="57948.00" arrivalLane="-315358253#1_1" arrivalPos="63.90" arrivalSpeed="14.41" duration="36.00" routeLength="422.17" waitingTime="0.00" waitingCount="0" stopTime="0.00" timeLoss="8.14" rerouteNo="1" devices="tripinfo_carIn101809:1 routing_carIn101809:1" vType="default_016" speedFactor="1.12" vaporized=""/>
    <tripinfo id="carIn88487:1" depart="57915.00" departLane="-32978638#0_1" departPos="5.10" departSpeed="0.00" departDelay="5.80" arrival="57951.00" arrivalLane="-315358253#1_1" arrivalPos="63.90" arrivalSpeed="14.81" duration="36.00" routeLength="420.12" waitingTime="0.00" waitingCount="0" stopTime="0.00" timeLoss="8.09" rerouteNo="1" devices="tripinfo_carIn88487:1 routing_carIn88487:1" vType="default_016" speedFactor="1.14" vaporized=""/>
    <tripinfo id="h17593c1:1" depart="57907.00" departLane="10425609#0_1" departPos="5.10" departSpeed="0.00" departDelay="0.90" arrival="57954.00" arrivalLane="-653473569#5_1" arrivalPos="73.05" arrivalSpeed="14.60" duration="47.00" routeLength="323.56" waitingTime="0.00" waitingCount="0" stopTime="0.00" timeLoss="8.23" rerouteNo="1" devices="tripinfo_h17593c1:1 routing_h17593c1:1" vType="default_016" speedFactor="1.11" vaporized=""/>
    <tripinfo id="h19505c1:1" depart="57930.00" departLane="315358253#1_1" departPos="5.10" departSpeed="0.00" departDelay="0.30" arrival="57969.00" arrivalLane="32978638#0_1" arrivalPos="49.29" arrivalSpeed="11.63" duration="39.00" routeLength="405.15" waitingTime="0.00" waitingCount="0" stopTime="0.00" timeLoss="5.74" rerouteNo="1" devices="tripinfo_h19505c1:1 routing_h19505c1:1" vType="default_016" speedFactor="0.91" vaporized=""/>
    <tripinfo id="randUni33912:1" depart="57873.00" departLane="-22716549#6_1" departPos="5.10" departSpeed="0.00" departDelay="0.00" arrival="57970.00" arrivalLane="202070434#2_1" arrivalPos="39.03" arrivalSpeed="15.16" duration="97.00" routeLength="632.93" waitingTime="31.00" waitingCount="1" stopTime="0.00" timeLoss="44.47" rerouteNo="1" devices="tripinfo_randUni33912:1 routing_randUni33912:1" vType="random_016" speedFactor="1.13" vaporized=""/>
    <tripinfo id="carIn92238:1" depart="57936.00" departLane="-32978638#0_1" departPos="5.10" departSpeed="0.00" departDelay="0.40" arrival="57977.00" arrivalLane="-315358253#1_1" arrivalPos="63.90" arrivalSpeed="11.67" duration="41.00" routeLength="422.17" waitingTime="0.00" waitingCount="0" stopTime="0.00" timeLoss="5.72" rerouteNo="1" devices="tripinfo_carIn92238:1 routing_carIn92238:1" vType="default_016" speedFactor="0.92" vaporized=""/>
    <tripinfo id="carIn14948:1" depart="57945.00" departLane="-32978638#0_1" departPos="5.10" departSpeed="0.00" departDelay="4.10" arrival="57984.00" arrivalLane="-315358253#1_1" arrivalPos="63.90" arrivalSpeed="13.01" duration="39.00" routeLength="422.17" waitingTime="0.00" waitingCount="0" stopTime="0.00" timeLoss="6.32" rerouteNo="1" devices="tripinfo_carIn14948:1 routing_carIn14948:1" vType="default_016" speedFactor="0.98" vaporized=""/>
    <tripinfo id="carIn36876:1" depart="57948.00" departLane="-32978638#0_1" departPos="5.10" departSpeed="0.00" departDelay="5.40" arrival="57986.00" arrivalLane="-315358253#1_1" arrivalPos="63.90" arrivalSpeed="13.15" duration="38.00" routeLength="422.17" waitingTime="0.00" waitingCount="0" stopTime="0.00" timeLoss="6.06" rerouteNo="1" devices="tripinfo_carIn36876:1 routing_carIn36876:1" vType="default_016" speedFactor="1.01" vaporized=""/>
    <tripinfo id="carIn113750:1" depart="57961.00" departLane="24599188#0.94_1" departPos="5.10" departSpeed="0.00" departDelay="0.30" arrival="57988.00" arrivalLane="24599188#0.94_1" arrivalPos="186.59" arrivalSpeed="7.73" duration="27.00" routeLength="181.49" waitingTime="0.00" waitingCount="0" stopTime="0.00" timeLoss="3.18" rerouteNo="1" devices="tripinfo_carIn113750:1 routing_carIn113750:1" vType="default_016" speedFactor="0.95" vaporized=""/>