<?xml version="1.0" encoding="UTF-8"?>

<!-- generated on 2023-08-31 12:42:02 by Eclipse SUMO libsumo Version 1.18.0
<configuration xmlns:xsi="http://www.w3.org/2001/XMLSchema-instance" xsi:noNamespaceSchemaLocation="http://sumo.dlr.de/xsd/libsumoConfiguration.xsd">

    <input>
        <net-file value="/home/stefan/RESCO/./environments/ingolstadt7/ingolstadt7.net.xml"/>
        <route-files value="/home/stefan/RESCO/./environments/ingolstadt7/ingolstadt7.rou.xml"/>
    </input>

    <output>
        <tripinfo-output value="/home/stefan/results/RAINBOW-tr0-ingolstadt7-7-drq_norm-wait_norm/tripinfo_66.xml"/>
        <tripinfo-output.write-unfinished value="true"/>
    </output>

    <time>
        <begin value="57600"/>
        <end value="61200"/>
    </time>

    <processing>
        <time-to-teleport value="-1"/>
    </processing>

    <report>
        <no-warnings value="True"/>
        <no-step-log value="True"/>
    </report>

    <random_number>
        <random value="true"/>
    </random_number>

</configuration>
-->

<tripinfos xmlns:xsi="http://www.w3.org/2001/XMLSchema-instance" xsi:noNamespaceSchemaLocation="http://sumo.dlr.de/xsd/tripinfo_file.xsd">
    <tripinfo id="carIn89578:1" depart="57614.00" departLane="124812856#0_1" departPos="5.10" departSpeed="0.00" departDelay="3.60" arrival="57632.00" arrivalLane="201956810_1" arrivalPos="71.65" arrivalSpeed="12.71" duration="18.00" routeLength="134.91" waitingTime="0.00" waitingCount="0" stopTime="0.00" timeLoss="7.16" rerouteNo="1" devices="tripinfo_carIn89578:1 routing_carIn89578:1" vType="default_016" speedFactor="0.96" vaporized=""/>
    <tripinfo id="carIn105842:1" depart="57601.00" departLane="653473569#5_1" departPos="5.10" departSpeed="0.00" departDelay="0.80" arrival="57639.00" arrivalLane="201956811#0_1" arrivalPos="40.40" arrivalSpeed="13.71" duration="38.00" routeLength="313.24" waitingTime="5.00" waitingCount="1" stopTime="0.00" timeLoss="14.88" rerouteNo="1" devices="tripinfo_carIn105842:1 routing_carIn105842:1" vType="default_016" speedFactor="1.03" vaporized=""/>
    <tripinfo id="carIn28951:1" depart="57606.00" departLane="10425609#0_1" departPos="5.10" departSpeed="0.00" departDelay="0.20" arrival="57645.00" arrivalLane="-653473569#5_1" arrivalPos="73.05" arrivalSpeed="12.07" duration="39.00" routeLength="312.95" waitingTime="5.00" waitingCount="1" stopTime="0.00" timeLoss="12.86" rerouteNo="1" devices="tripinfo_carIn28951:1 routing_carIn28951:1" vType="default_016" speedFactor="0.93" vaporized=""/>
    <tripinfo id="carIn106322:1" depart="57614.00" departLane="653473569#5_1" departPos="5.10" departSpeed="0.00" departDelay="2.20" arrival="57659.00" arrivalLane="201956811#0_1" arrivalPos="40.40" arrivalSpeed="13.91" duration="45.00" routeLength="313.24" waitingTime="10.00" waitingCount="2" stopTime="0.00" timeLoss="22.23" rerouteNo="1" devices="tripinfo_carIn106322:1 routing_carIn106322:1" vType="default_016" speedFactor="1.06" vaporized=""/>
    <tripinfo id="h20540c1:1" depart="57634.00" departLane="10425609#0_1" departPos="5.10" departSpeed="0.00" departDelay="0.50" arrival="57664.00" arrivalLane="-653473569#5_1" arrivalPos="73.05" arrivalSpeed="13.34" duration="30.00" routeLength="312.95" waitingTime="0.00" waitingCount="0" stopTime="0.00" timeLoss="6.44" rerouteNo="1" devices="tripinfo_h20540c1:1 routing_h20540c1:1" vType="default_016" speedFactor="1.04" vaporized=""/>
    <tripinfo id="carIn25202:1" depart="57629.00" departLane="315358253#1_1" departPos="5.10" departSpeed="0.00" departDelay="1.50" arrival="57666.00" arrivalLane="32978638#0_1" arrivalPos="49.29" arrivalSpeed="13.17" duration="37.00" routeLength="405.15" waitingTime="0.00" waitingCount="0" stopTime="0.00" timeLoss="5.63" rerouteNo="1" devices="tripinfo_carIn25202:1 routing_carIn25202:1" vType="default_016" speedFactor="0.99" vaporized=""/>
    <tripinfo id="carIn925:1" depart="57654.00" departLane="124812856#0_1" departPos="5.10" departSpeed="0.00" departDelay="27.90" arrival="57670.00" arrivalLane="201956810_1" arrivalPos="71.65" arrivalSpeed="13.81" duration="16.00" routeLength="134.91" waitingTime="0.00" waitingCount="0" stopTime="0.00" timeLoss="5.55" rerouteNo="1" devices="tripinfo_carIn925:1 routing_carIn925:1" vType="default_016" speedFactor="1.01" vaporized=""/>
    <tripinfo id="carIn5482:1" depart="57617.00" departLane="653473569#5_1" departPos="5.10" departSpeed="0.00" departDelay="3.60" arrival="57671.00" arrivalLane="201956811#0_1" arrivalPos="40.40" arrivalSpeed="11.59" duration="54.00" routeLength="313.24" waitingTime="13.00" waitingCount="3" stopTime="0.00" timeLoss="27.42" rerouteNo="1" devices="tripinfo_carIn5482:1 routing_carIn5482:1" vType="default_016" speedFactor="0.90" vaporized=""/>
    <tripinfo id="h21130c2:1" depart="57630.00" departLane="10425609#0_1" departPos="5.10" departSpeed="0.00" departDelay="0.10" arrival="57676.00" arrivalLane="202070434#2_1" arrivalPos="39.03" arrivalSpeed="14.51" duration="46.00" routeLength="432.30" waitingTime="0.00" waitingCount="0" stopTime="0.00" timeLoss="17.85" rerouteNo="1" devices="tripinfo_h21130c2:1 routing_h21130c2:1" vType="default_016" speedFactor="1.13" vaporized=""/>
    <tripinfo id="carIn36103:1" depart="57620.00" departLane="653473569#5_1" departPos="5.10" departSpeed="0.00" departDelay="4.00" arrival="57680.00" arrivalLane="201956811#0_1" arrivalPos="40.40" arrivalSpeed="11.78" duration="60.00" routeLength="313.24" waitingTime="16.00" waitingCount="4" stopTime="0.00" timeLoss="34.61" rerouteNo="1" devices="tripinfo_carIn36103:1 routing_carIn36103:1" vType="default_016" speedFactor="0.93" vaporized=""/>
    <tripinfo id="carIn55461:1" depart="57652.00" departLane="10425609#0_1" departPos="5.10" departSpeed="0.00" departDelay="0.30" arrival="57680.00" arrivalLane="201956810_1" arrivalPos="71.65" arrivalSpeed="11.83" duration="28.00" routeLength="255.78" waitingTime="0.00" waitingCount="0" stopTime="0.00" timeLoss="6.09" rerouteNo="1" devices="tripinfo_carIn55461:1 routing_carIn55461:1" vType="default_016" speedFactor="0.91" vaporized=""/>
    <tripinfo id="carIn33538:1" depart="57671.00" departLane="37386279_1" departPos="5.10" departSpeed="0.00" departDelay="0.30" arrival="57687.00" arrivalLane="-24634414#4_1" arrivalPos="22.88" arrivalSpeed="6.86" duration="16.00" routeLength="125.23" waitingTime="0.00" waitingCount="0" stopTime="0.00" timeLoss="3.77" rerouteNo="0" devices="tripinfo_carIn33538:1 routing_carIn33538:1" vType="default_016" speedFactor="0.93" vaporized=""/>
    <tripinfo id="carIn102997:1" depart="57623.00" departLane="653473569#5_1" departPos="5.10" departSpeed="0.00" departDelay="4.80" arrival="57691.00" arrivalLane="201956811#0_1" arrivalPos="40.40" arrivalSpeed="12.04" duration="68.00" routeLength="313.24" waitingTime="14.00" waitingCount="4" stopTime="0.00" timeLoss="41.88" rerouteNo="1" devices="tripinfo_carIn102997:1 routing_carIn102997:1" vType="default_016" speedFactor="0.92" vaporized=""/>
    <tripinfo id="carIn131078:1" depart="57679.00" departLane="124812856#0_1" departPos="5.10" departSpeed="0.00" departDelay="43.60" arrival="57695.00" arrivalLane="201956810_1" arrivalPos="71.65" arrivalSpeed="12.27" duration="16.00" routeLength="134.91" waitingTime="0.00" waitingCount="0" stopTime="0.00" timeLoss="3.97" rerouteNo="1" devices="tripinfo_carIn131078:1 routing_carIn131078:1" vType="default_016" speedFactor="0.91" vaporized=""/>
    <tripinfo id="60.39" depart="57643.00" departLane="10425609#0_1" departPos="12.10" departSpeed="0.00" departDelay="0.50" arrival="57697.00" arrivalLane="202070434#2_1" arrivalPos="39.03" arrivalSpeed="13.70" duration="54.00" routeLength="425.30" waitingTime="6.00" waitingCount="1" stopTime="0.00" timeLoss="22.44" rerouteNo="1" devices="tripinfo_60.39 routing_60.39" vType="bus" speedFactor="1.00" vaporized=""/>
    <tripinfo id="carIn75554:1" depart="57626.00" departLane="653473569#5_1" departPos="5.10" departSpeed="0.00" departDelay="5.20" arrival="57698.00" arrivalLane="201956811#0_1" arrivalPos="40.40" arrivalSpeed="17.12" duration="72.00" routeLength="313.24" waitingTime="17.00" waitingCount="5" stopTime="0.00" timeLoss="52.96" rerouteNo="1" devices="tripinfo_carIn75554:1 routing_carIn75554:1" vType="default_016" speedFactor="1.26" vaporized=""/>
    <tripinfo id="carIn114137:1" depart="57634.00" departLane="27920078#0_1" departPos="5.10" departSpeed="0.00" departDelay="3.10" arrival="57699.00" arrivalLane="-83304175#2_1" arrivalPos="189.34" arrivalSpeed="9.99" duration="65.00" routeLength="501.51" waitingTime="8.00" waitingCount="1" stopTime="0.00" timeLoss="25.54" rerouteNo="1" devices="tripinfo_carIn114137:1 routing_carIn114137:1" vType="default_016" speedFactor="1.23" vaporized=""/>
    <tripinfo id="carIn22637:1" depart="57635.00" departLane="27920078#0_1" departPos="5.10" departSpeed="0.00" departDelay="2.50" arrival="57704.00" arrivalLane="-83304175#2_1" arrivalPos="189.34" arrivalSpeed="8.47" duration="69.00" routeLength="501.51" waitingTime="6.00" waitingCount="1" stopTime="0.00" timeLoss="24.75" rerouteNo="1" devices="tripinfo_carIn22637:1 routing_carIn22637:1" vType="default_016" speedFactor="1.08" vaporized=""/>
    <tripinfo id="h20232c1:2" depart="57634.00" departLane="-173169611#0_1" departPos="5.10" departSpeed="0.00" departDelay="0.50" arrival="57706.00" arrivalLane="201956820_1" arrivalPos="48.33" arrivalSpeed="13.14" duration="72.00" routeLength="122.35" waitingTime="55.00" waitingCount="1" stopTime="0.00" timeLoss="62.19" rerouteNo="0" devices="tripinfo_h20232c1:2 routing_h20232c1:2" vType="default_016" speedFactor="1.00" vaporized=""/>
    <tripinfo id="randUni20090:1" depart="57629.00" departLane="653473569#5_1" departPos="5.10" departSpeed="0.00" departDelay="1.00" arrival="57710.00" arrivalLane="201956811#0_1" arrivalPos="40.40" arrivalSpeed="12.60" duration="81.00" routeLength="313.24" waitingTime="20.00" waitingCount="6" stopTime="0.00" timeLoss="55.86" rerouteNo="1" devices="tripinfo_randUni20090:1 routing_randUni20090:1" vType="random_016" speedFactor="0.93" vaporized=""/>
    <tripinfo id="carIn12775:1" depart="57676.00" departLane="10425609#0_1" departPos="5.10" departSpeed="0.00" departDelay="0.60" arrival="57712.00" arrivalLane="-653473569#5_1" arrivalPos="73.05" arrivalSpeed="14.62" duration="36.00" routeLength="312.95" waitingTime="4.00" waitingCount="1" stopTime="0.00" timeLoss="13.99" rerouteNo="1" devices="tripinfo_carIn12775:1 routing_carIn12775:1" vType="default_016" speedFactor="1.10" vaporized=""/>
    <tripinfo id="h15454c2:3" depart="57612.00" departLane="24608844_1" departPos="5.10" departSpeed="0.00" departDelay="0.50" arrival="57717.00" arrivalLane="32978638#0_1" arrivalPos="49.29" arrivalSpeed="13.67" duration="105.00" routeLength="354.79" waitingTime="60.00" waitingCount="1" stopTime="0.00" timeLoss="70.17" rerouteNo="1" devices="tripinfo_h15454c2:3 routing_h15454c2:3" vType="default_016" speedFactor="0.98" vaporized=""/>
    <tripinfo id="h3688c1:1" depart="57679.00" departLane="315358253#1_1" departPos="5.10" departSpeed="0.00" departDelay="0.50" arrival="57720.00" arrivalLane="32978638#0_1" arrivalPos="49.29" arrivalSpeed="12.81" duration="41.00" routeLength="405.15" waitingTime="1.00" waitingCount="1" stopTime="0.00" timeLoss="9.84" rerouteNo="1" devices="tripinfo_h3688c1:1 routing_h3688c1:1" vType="default_016" speedFactor="0.98" vaporized=""/>
    <tripinfo id="carIn37268:1" depart="57636.00" departLane="653473569#5_1" departPos="5.10" departSpeed="0.00" departDelay="0.90" arrival="57722.00" arrivalLane="201956811#0_1" arrivalPos="40.40" arrivalSpeed="11.64" duration="86.00" routeLength="313.24" waitingTime="21.00" waitingCount="6" stopTime="0.00" timeLoss="57.54" rerouteNo="1" devices="tripinfo_carIn37268:1 routing_carIn37268:1" vType="default_016" speedFactor="0.84" vaporized=""/>
    <tripinfo id="h645c1:1" depart="57622.00" departLane="266565295#5_1" departPos="5.10" departSpeed="0.00" departDelay="0.40" arrival="57729.00" arrivalLane="-315358253#1_1" arrivalPos="63.90" arrivalSpeed="14.29" duration="107.00" routeLength="547.76" waitingTime="58.00" waitingCount="1" stopTime="0.00" timeLoss="67.81" rerouteNo="1" devices="tripinfo_h645c1:1 routing_h645c1:1" vType="default_016" speedFactor="1.03" vaporized=""/>
    <tripinfo id="carIn124416:1" depart="57663.00" departLane="-173169611#0_1" departPos="5.10" departSpeed="0.00" departDelay="0.50" arrival="57736.00" arrivalLane="201956820_1" arrivalPos="48.33" arrivalSpeed="14.63" duration="73.00" routeLength="122.35" waitingTime="51.00" waitingCount="2" stopTime="0.00" timeLoss="64.40" rerouteNo="0" devices="tripinfo_carIn124416:1 routing_carIn124416:1" vType="default_016" speedFactor="1.14" vaporized=""/>
    <tripinfo id="h317c2:1" depart="57707.00" departLane="-32978638#0_1" departPos="5.10" departSpeed="0.00" departDelay="0.10" arrival="57737.00" arrivalLane="-266565295#5_1" arrivalPos="172.76" arrivalSpeed="16.12" duration="30.00" routeLength="370.53" waitingTime="0.00" waitingCount="0" stopTime="0.00" timeLoss="6.18" rerouteNo="1" devices="tripinfo_h317c2:1 routing_h317c2:1" vType="default_016" speedFactor="1.18" vaporized=""/>
    <tripinfo id="carIn129760:1" depart="57661.00" departLane="653473569#5_1" departPos="5.10" departSpeed="0.00" departDelay="0.80" arrival="57741.00" arrivalLane="201956811#0_1" arrivalPos="40.40" arrivalSpeed="12.60" duration="80.00" routeLength="313.24" waitingTime="25.00" waitingCount="6" stopTime="0.00" timeLoss="55.55" rerouteNo="1" devices="tripinfo_carIn129760:1 routing_carIn129760:1" vType="default_016" speedFactor="0.98" vaporized=""/>
    <tripinfo id="carIn129626:1" depart="57664.00" departLane="653473569#5_1" departPos="5.10" departSpeed="0.00" departDelay="1.60" arrival="57743.00" arrivalLane="201956811#0_1" arrivalPos="40.40" arrivalSpeed="13.19" duration="79.00" routeLength="313.24" waitingTime="23.00" waitingCount="5" stopTime="0.00" timeLoss="55.53" rerouteNo="1" devices="tripinfo_carIn129626:1 routing_carIn129626:1" vType="default_016" speedFactor="1.02" vaporized=""/>
    <tripinfo id="h20539c1:3" depart="57667.00" departLane="653473569#5_1" departPos="5.10" departSpeed="0.00" departDelay="2.20" arrival="57751.00" arrivalLane="201956811#0_1" arrivalPos="40.40" arrivalSpeed="12.05" duration="84.00" routeLength="313.24" waitingTime="25.00" waitingCount="6" stopTime="0.00" timeLoss="57.62" rerouteNo="1" devices="tripinfo_h20539c1:3 routing_h20539c1:3" vType="default_016" speedFactor="0.90" vaporized=""/>
    <tripinfo id="carIn91254:1" depart="57696.00" departLane="653473569#5_1" departPos="5.10" departSpeed="0.00" departDelay="0.10" arrival="57761.00" arrivalLane="201956811#0_1" arrivalPos="40.40" arrivalSpeed="11.48" duration="65.00" routeLength="313.24" waitingTime="15.00" waitingCount="4" stopTime="0.00" timeLoss="38.67" rerouteNo="1" devices="tripinfo_carIn91254:1 routing_carIn91254:1" vType="default_016" speedFactor="0.90" vaporized=""/>
    <tripinfo id="randUni22709:1" depart="57718.00" departLane="315358253#1_1" departPos="5.10" departSpeed="0.00" departDelay="0.20" arrival="57761.00" arrivalLane="32978638#0_1" arrivalPos="49.29" arrivalSpeed="11.11" duration="43.00" routeLength="405.15" waitingTime="0.00" waitingCount="0" stopTime="0.00" timeLoss="6.17" rerouteNo="1" devices="tripinfo_randUni22709:1 routing_randUni22709:1" vType="random_016" speedFactor="0.83" vaporized=""/>
    <tripinfo id="h134c1:3" depart="57721.00" departLane="315358253#1_1" departPos="5.10" departSpeed="0.00" departDelay="1.60" arrival="57762.00" arrivalLane="32978638#0_2" arrivalPos="49.29" arrivalSpeed="11.87" duration="41.00" routeLength="409.47" waitingTime="0.00" waitingCount="0" stopTime="0.00" timeLoss="7.73" rerouteNo="1" devices="tripinfo_h134c1:3 routing_h134c1:3" vType="default_016" speedFactor="0.93" vaporized=""/>
    <tripinfo id="carIn74045:1" depart="57724.00" departLane="315358253#1_1" departPos="5.10" departSpeed="0.00" departDelay="3.00" arrival="57763.00" arrivalLane="32978638#0_1" arrivalPos="49.29" arrivalSpeed="15.78" duration="39.00" routeLength="405.15" waitingTime="0.00" waitingCount="0" stopTime="0.00" timeLoss="11.50" rerouteNo="1" devices="tripinfo_carIn74045:1 routing_carIn74045:1" vType="default_016" speedFactor="1.15" vaporized=""/>
    <tripinfo id="carIn99509:1" depart="57720.00" departLane="-32978638#0_1" departPos="5.10" departSpeed="0.00" departDelay="0.20" arrival="57764.00" arrivalLane="-315358253#1_1" arrivalPos="63.90" arrivalSpeed="14.44" duration="44.00" routeLength="422.17" waitingTime="5.00" waitingCount="1" stopTime="0.00" timeLoss="15.63" rerouteNo="1" devices="tripinfo_carIn99509:1 routing_carIn99509:1" vType="default_015" speedFactor="1.10" vaporized=""/>
    <tripinfo id="h21189c1:3" depart="57722.00" departLane="10425609#0_1" departPos="5.10" departSpeed="0.00" departDelay="0.10" arrival="57767.00" arrivalLane="202070434#2_1" arrivalPos="39.03" arrivalSpeed="14.37" duration="45.00" routeLength="432.30" waitingTime="0.00" waitingCount="0" stopTime="0.00" timeLoss="13.81" rerouteNo="1" devices="tripinfo_h21189c1:3 routing_h21189c1:3" vType="default_016" speedFactor="1.04" vaporized=""/>
    <tripinfo id="h330c1:1" depart="57736.00" departLane="-32978638#0_1" departPos="5.10" departSpeed="0.00" departDelay="0.20" arrival="57767.00" arrivalLane="-266565295#5_1" arrivalPos="172.76" arrivalSpeed="15.25" duration="31.00" routeLength="370.53" waitingTime="0.00" waitingCount="0" stopTime="0.00" timeLoss="5.77" rerouteNo="1" devices="tripinfo_h330c1:1 routing_h330c1:1" vType="default_016" speedFactor="1.11" vaporized=""/>
    <tripinfo id="h19989c1:1" depart="57730.00" departLane="10425609#0_1" departPos="5.10" departSpeed="0.00" departDelay="0.60" arrival="57776.00" arrivalLane="-653473569#5_1" arrivalPos="73.05" arrivalSpeed="14.90" duration="46.00" routeLength="312.95" waitingTime="8.00" waitingCount="1" stopTime="0.00" timeLoss="24.85" rerouteNo="1" devices="tripinfo_h19989c1:1 routing_h19989c1:1" vType="default_016" speedFactor="1.17" vaporized=""/>
    <tripinfo id="carIn28488:1" depart="57611.00" departLane="653473569#5_1" departPos="5.10" departSpeed="0.00" departDelay="0.80" arrival="57779.00" arrivalLane="201956820_1" arrivalPos="48.33" arrivalSpeed="14.30" duration="168.00" routeLength="437.07" waitingTime="124.00" waitingCount="2" stopTime="0.00" timeLoss="138.41" rerouteNo="1" devices="tripinfo_carIn28488:1 routing_carIn28488:1" vType="default_016" speedFactor="1.10" vaporized=""/>
    <tripinfo id="carIn92858:1" depart="57733.00" departLane="10425609#0_1" departPos="5.10" departSpeed="0.00" departDelay="0.80" arrival="57779.00" arrivalLane="-653473569#5_1" arrivalPos="73.05" arrivalSpeed="12.48" duration="46.00" routeLength="312.95" waitingTime="5.00" waitingCount="1" stopTime="0.00" timeLoss="18.40" rerouteNo="1" devices="tripinfo_carIn92858:1 routing_carIn92858:1" vType="default_016" speedFactor="0.90" vaporized=""/>
    <tripinfo id="11_frequency1.42" depart="57739.00" departLane="315358253#1_1" departPos="12.10" departSpeed="0.00" departDelay="0.30" arrival="57780.00" arrivalLane="32978638#0_1" arrivalPos="49.29" arrivalSpeed="13.53" duration="41.00" routeLength="398.15" waitingTime="0.00" waitingCount="0" stopTime="0.00" timeLoss="10.69" rerouteNo="1" devices="tripinfo_11_frequency1.42 routing_11_frequency1.42" vType="bus" speedFactor="1.00" vaporized=""/>
    <tripinfo id="carIn101439:1" depart="57736.00" departLane="10425609#0_1" departPos="5.10" departSpeed="0.00" departDelay="1.70" arrival="57783.00" arrivalLane="-653473569#5_1" arrivalPos="73.05" arrivalSpeed="13.67" duration="47.00" routeLength="312.95" waitingTime="10.00" waitingCount="2" stopTime="0.00" timeLoss="23.56" rerouteNo="1" devices="tripinfo_carIn101439:1 routing_carIn101439:1" vType="default_016" speedFactor="1.02" vaporized=""/>
    <tripinfo id="carIn7887:1" depart="57661.00" departLane="27920078#0_1" departPos="5.10" departSpeed="0.00" departDelay="0.50" arrival="57784.00" arrivalLane="-83304175#2_1" arrivalPos="189.34" arrivalSpeed="7.55" duration="123.00" routeLength="501.51" waitingTime="61.00" waitingCount="1" stopTime="0.00" timeLoss="72.36" rerouteNo="1" devices="tripinfo_carIn7887:1 routing_carIn7887:1" vType="default_016" speedFactor="0.94" vaporized=""/>
    <tripinfo id="carIn98605:1" depart="57743.00" departLane="315358253#1_1" departPos="5.10" departSpeed="0.00" departDelay="2.20" arrival="57784.00" arrivalLane="32978638#0_1" arrivalPos="49.29" arrivalSpeed="13.28" duration="41.00" routeLength="405.15" waitingTime="0.00" waitingCount="0" stopTime="0.00" timeLoss="8.83" rerouteNo="1" devices="tripinfo_carIn98605:1 routing_carIn98605:1" vType="default_016" speedFactor="0.96" vaporized=""/>
    <tripinfo id="h319c1:3" depart="57747.00" departLane="315358253#1_1" departPos="5.10" departSpeed="0.00" departDelay="4.70" arrival="57785.00" arrivalLane="32978638#0_1" arrivalPos="49.29" arrivalSpeed="14.52" duration="38.00" routeLength="405.15" waitingTime="0.00" waitingCount="0" stopTime="0.00" timeLoss="10.66" rerouteNo="1" devices="tripinfo_h319c1:3 routing_h319c1:3" vType="default_016" speedFactor="1.11" vaporized=""/>
    <tripinfo id="carIn106325:1" depart="57713.00" departLane="27920078#0_1" departPos="5.10" departSpeed="0.00" departDelay="0.10" arrival="57786.00" arrivalLane="-83304175#2_1" arrivalPos="189.34" arrivalSpeed="7.29" duration="73.00" routeLength="501.51" waitingTime="8.00" waitingCount="1" stopTime="0.00" timeLoss="22.73" rerouteNo="1" devices="tripinfo_carIn106325:1 routing_carIn106325:1" vType="default_016" speedFactor="0.93" vaporized=""/>
    <tripinfo id="carIn13117:1" depart="57627.00" departLane="27920078#0_1" departPos="5.10" departSpeed="0.00" departDelay="1.80" arrival="57787.00" arrivalLane="201956820_2" arrivalPos="48.33" arrivalSpeed="11.75" duration="160.00" routeLength="552.44" waitingTime="102.00" waitingCount="1" stopTime="0.00" timeLoss="113.21" rerouteNo="1" devices="tripinfo_carIn13117:1 routing_carIn13117:1" vType="default_016" speedFactor="0.86" vaporized=""/>
    <tripinfo id="carIn107250:1" depart="57753.00" departLane="315358253#1_1" departPos="5.10" departSpeed="0.00" departDelay="7.70" arrival="57789.00" arrivalLane="32978638#0_1" arrivalPos="49.29" arrivalSpeed="13.76" duration="36.00" routeLength="405.15" waitingTime="0.00" waitingCount="0" stopTime="0.00" timeLoss="6.44" rerouteNo="1" devices="tripinfo_carIn107250:1 routing_carIn107250:1" vType="default_016" speedFactor="1.06" vaporized=""/>
    <tripinfo id="carIn106797:1" depart="57725.00" departLane="653473569#5_1" departPos="5.10" departSpeed="0.00" departDelay="0.00" arrival="57790.00" arrivalLane="201956811#0_1" arrivalPos="40.40" arrivalSpeed="14.02" duration="65.00" routeLength="313.24" waitingTime="22.00" waitingCount="3" stopTime="0.00" timeLoss="42.13" rerouteNo="1" devices="tripinfo_carIn106797:1 routing_carIn106797:1" vType="default_016" speedFactor="1.05" vaporized=""/>
    <tripinfo id="carIn20106:1" depart="57630.00" departLane="27920078#0_1" departPos="5.10" departSpeed="0.00" departDelay="2.70" arrival="57791.00" arrivalLane="201956820_1" arrivalPos="48.33" arrivalSpeed="11.30" duration="161.00" routeLength="552.44" waitingTime="98.00" waitingCount="2" stopTime="0.00" timeLoss="114.23" rerouteNo="1" devices="tripinfo_carIn20106:1 routing_carIn20106:1" vType="default_016" speedFactor="0.86" vaporized=""/>
    <tripinfo id="carIn26708:1" depart="57728.00" departLane="653473569#5_1" departPos="5.10" departSpeed="0.00" departDelay="1.40" arrival="57792.00" arrivalLane="201956811#0_1" arrivalPos="40.40" arrivalSpeed="12.74" duration="64.00" routeLength="313.24" waitingTime="19.00" waitingCount="3" stopTime="0.00" timeLoss="38.76" rerouteNo="1" devices="tripinfo_carIn26708:1 routing_carIn26708:1" vType="default_016" speedFactor="0.95" vaporized=""/>
    <tripinfo id="carIn34550:1" depart="57733.00" departLane="653473569#5_1" departPos="5.10" departSpeed="0.00" departDelay="2.60" arrival="57794.00" arrivalLane="201956811#0_1" arrivalPos="40.40" arrivalSpeed="13.04" duration="61.00" routeLength="313.24" waitingTime="15.00" waitingCount="2" stopTime="0.00" timeLoss="36.98" rerouteNo="1" devices="tripinfo_carIn34550:1 routing_carIn34550:1" vType="default_016" speedFactor="1.00" vaporized=""/>
    <tripinfo id="carIn107084:1" depart="57601.00" departLane="124812856#0_1" departPos="5.10" departSpeed="0.00" departDelay="0.70" arrival="57795.00" arrivalLane="-653473569#5_1" arrivalPos="73.05" arrivalSpeed="11.29" duration="194.00" routeLength="450.40" waitingTime="142.00" waitingCount="1" stopTime="0.00" timeLoss="156.46" rerouteNo="1" devices="tripinfo_carIn107084:1 routing_carIn107084:1" vType="default_016" speedFactor="0.89" vaporized=""/>
    <tripinfo id="randUni10474:1" depart="57605.00" departLane="124812856#0_1" departPos="5.10" departSpeed="0.00" departDelay="0.20" arrival="57797.00" arrivalLane="-653473569#5_1" arrivalPos="73.05" arrivalSpeed="12.86" duration="192.00" routeLength="450.40" waitingTime="142.00" waitingCount="1" stopTime="0.00" timeLoss="158.26" rerouteNo="1" devices="tripinfo_randUni10474:1 routing_randUni10474:1" vType="random_016" speedFactor="1.00" vaporized=""/>
    <tripinfo id="carIn12900:1" depart="57697.00" departLane="124812856#0_1" departPos="5.10" departSpeed="0.00" departDelay="48.80" arrival="57797.00" arrivalLane="201956810_1" arrivalPos="71.65" arrivalSpeed="14.59" duration="100.00" routeLength="134.91" waitingTime="69.00" waitingCount="3" stopTime="0.00" timeLoss="89.15" rerouteNo="1" devices="tripinfo_carIn12900:1 routing_carIn12900:1" vType="default_016" speedFactor="1.05" vaporized=""/>
    <tripinfo id="carIn96537:1" depart="57615.00" departLane="124812856#0_1" departPos="5.10" departSpeed="0.00" departDelay="3.80" arrival="57798.00" arrivalLane="202070434#2_1" arrivalPos="39.03" arrivalSpeed="13.50" duration="183.00" routeLength="569.75" waitingTime="127.00" waitingCount="1" stopTime="0.00" timeLoss="142.87" rerouteNo="1" devices="tripinfo_carIn96537:1 routing_carIn96537:1" vType="default_016" speedFactor="1.05" vaporized=""/>
    <tripinfo id="h19804c1:3" depart="57624.00" departLane="124812856#0_1" departPos="5.10" departSpeed="0.00" departDelay="8.50" arrival="57799.00" arrivalLane="-653473569#5_1" arrivalPos="73.05" arrivalSpeed="14.32" duration="175.00" routeLength="450.40" waitingTime="121.00" waitingCount="2" stopTime="0.00" timeLoss="142.67" rerouteNo="1" devices="tripinfo_h19804c1:3 routing_h19804c1:3" vType="default_016" speedFactor="1.05" vaporized=""/>
    <tripinfo id="h14316c1:3" depart="57759.00" departLane="315358253#1_1" departPos="5.10" departSpeed="0.00" departDelay="10.00" arrival="57801.00" arrivalLane="32978638#0_1" arrivalPos="49.29" arrivalSpeed="11.24" duration="42.00" routeLength="405.15" waitingTime="0.00" waitingCount="0" stopTime="0.00" timeLoss="5.35" rerouteNo="1" devices="tripinfo_h14316c1:3 routing_h14316c1:3" vType="default_016" speedFactor="0.85" vaporized=""/>
    <tripinfo id="carIn117869:1" depart="57758.00" departLane="-32978638#0_1" departPos="5.10" departSpeed="0.00" departDelay="0.60" arrival="57801.00" arrivalLane="-315358253#1_1" arrivalPos="63.90" arrivalSpeed="11.39" duration="43.00" routeLength="422.17" waitingTime="0.00" waitingCount="0" stopTime="0.00" timeLoss="6.08" rerouteNo="1" devices="tripinfo_carIn117869:1 routing_carIn117869:1" vType="default_016" speedFactor="0.86" vaporized=""/>
    <tripinfo id="60R.41" depart="57623.00" departLane="27920078#0_1" departPos="12.10" departSpeed="0.00" departDelay="0.30" arrival="57804.00" arrivalLane="201956811#0_1" arrivalPos="40.40" arrivalSpeed="12.29" duration="181.00" routeLength="425.03" waitingTime="116.00" waitingCount="3" stopTime="0.00" timeLoss="149.85" rerouteNo="1" devices="tripinfo_60R.41 routing_60R.41" vType="bus" speedFactor="1.00" vaporized=""/>
    <tripinfo id="h9894c1:3" depart="57698.00" departLane="-24693977#1_1" departPos="5.10" departSpeed="0.00" departDelay="0.20" arrival="57804.00" arrivalLane="32978638#0_1" arrivalPos="49.29" arrivalSpeed="12.95" duration="106.00" routeLength="677.49" waitingTime="39.00" waitingCount="1" stopTime="0.00" timeLoss="53.66" rerouteNo="1" devices="tripinfo_h9894c1:3 routing_h9894c1:3" vType="default_016" speedFactor="0.98" vaporized=""/>
    <tripinfo id="carIn767:1" depart="57633.00" departLane="124812856#0_1" departPos="5.10" departSpeed="0.00" departDelay="14.50" arrival="57805.00" arrivalLane="-653473569#5_1" arrivalPos="73.05" arrivalSpeed="12.02" duration="172.00" routeLength="450.40" waitingTime="111.00" waitingCount="4" stopTime="0.00" timeLoss="134.75" rerouteNo="1" devices="tripinfo_carIn767:1 routing_carIn767:1" vType="default_016" speedFactor="0.89" vaporized=""/>
    <tripinfo id="h9878c1:3" depart="57686.00" departLane="-24693977#1_1" departPos="5.10" departSpeed="0.00" departDelay="0.70" arrival="57805.00" arrivalLane="32978638#0_1" arrivalPos="49.29" arrivalSpeed="13.75" duration="119.00" routeLength="677.49" waitingTime="54.00" waitingCount="1" stopTime="0.00" timeLoss="72.13" rerouteNo="1" devices="tripinfo_h9878c1:3 routing_h9878c1:3" vType="default_016" speedFactor="1.07" vaporized=""/>
    <tripinfo id="carIn107842:1" depart="57639.00" departLane="124812856#0_1" departPos="5.10" departSpeed="0.00" departDelay="17.90" arrival="57807.00" arrivalLane="-653473569#5_1" arrivalPos="73.05" arrivalSpeed="12.65" duration="168.00" routeLength="450.40" waitingTime="104.00" waitingCount="3" stopTime="0.00" timeLoss="134.41" rerouteNo="1" devices="tripinfo_carIn107842:1 routing_carIn107842:1" vType="default_016" speedFactor="1.00" vaporized=""/>