<?xml version="1.0" encoding="UTF-8"?>

<!-- generated on 2023-08-31 12:35:48 by Eclipse SUMO libsumo Version 1.18.0
<configuration xmlns:xsi="http://www.w3.org/2001/XMLSchema-instance" xsi:noNamespaceSchemaLocation="http://sumo.dlr.de/xsd/libsumoConfiguration.xsd">

    <input>
        <net-file value="/home/stefan/RESCO/./environments/ingolstadt7/ingolstadt7.net.xml"/>
        <route-files value="/home/stefan/RESCO/./environments/ingolstadt7/ingolstadt7.rou.xml"/>
    </input>

    <output>
        <tripinfo-output value="/home/stefan/results/RAINBOW-tr0-ingolstadt7-7-drq_norm-wait_norm/tripinfo_49.xml"/>
        <tripinfo-output.write-unfinished value="true"/>
    </output>

    <time>
        <begin value="57600"/>
        <end value="61200"/>
    </time>

    <processing>
        <time-to-teleport value="-1"/>
    </processing>

    <report>
        <no-warnings value="True"/>
        <no-step-log value="True"/>
    </report>

    <random_number>
        <random value="true"/>
    </random_number>

</configuration>
-->

<tripinfos xmlns:xsi="http://www.w3.org/2001/XMLSchema-instance" xsi:noNamespaceSchemaLocation="http://sumo.dlr.de/xsd/tripinfo_file.xsd">
    <tripinfo id="carIn105842:1" depart="57601.00" departLane="653473569#5_1" departPos="5.10" departSpeed="0.00" departDelay="0.80" arrival="57641.00" arrivalLane="201956811#0_1" arrivalPos="40.40" arrivalSpeed="14.33" duration="40.00" routeLength="313.24" waitingTime="4.00" waitingCount="1" stopTime="0.00" timeLoss="17.92" rerouteNo="1" devices="tripinfo_carIn105842:1 routing_carIn105842:1" vType="default_016" speedFactor="1.06" vaporized=""/>
    <tripinfo id="carIn89578:1" depart="57614.00" departLane="124812856#0_1" departPos="5.10" departSpeed="0.00" departDelay="3.60" arrival="57647.00" arrivalLane="201956810_1" arrivalPos="71.65" arrivalSpeed="13.19" duration="33.00" routeLength="134.91" waitingTime="12.00" waitingCount="1" stopTime="0.00" timeLoss="22.37" rerouteNo="1" devices="tripinfo_carIn89578:1 routing_carIn89578:1" vType="default_016" speedFactor="1.02" vaporized=""/>
    <tripinfo id="carIn106322:1" depart="57614.00" departLane="653473569#5_1" departPos="5.10" departSpeed="0.00" departDelay="2.20" arrival="57647.00" arrivalLane="201956811#0_1" arrivalPos="40.40" arrivalSpeed="11.72" duration="33.00" routeLength="313.24" waitingTime="0.00" waitingCount="0" stopTime="0.00" timeLoss="6.79" rerouteNo="1" devices="tripinfo_carIn106322:1 routing_carIn106322:1" vType="default_016" speedFactor="0.91" vaporized=""/>
    <tripinfo id="h20232c1:2" depart="57634.00" departLane="-173169611#0_1" departPos="5.10" departSpeed="0.00" departDelay="0.50" arrival="57650.00" arrivalLane="201956820_1" arrivalPos="48.33" arrivalSpeed="12.84" duration="16.00" routeLength="122.35" waitingTime="0.00" waitingCount="0" stopTime="0.00" timeLoss="6.02" rerouteNo="0" devices="tripinfo_h20232c1:2 routing_h20232c1:2" vType="default_016" speedFactor="0.99" vaporized=""/>
    <tripinfo id="h15454c2:3" depart="57612.00" departLane="24608844_1" departPos="5.10" departSpeed="0.00" departDelay="0.50" arrival="57658.00" arrivalLane="32978638#0_1" arrivalPos="49.29" arrivalSpeed="13.77" duration="46.00" routeLength="354.79" waitingTime="0.00" waitingCount="0" stopTime="0.00" timeLoss="11.38" rerouteNo="1" devices="tripinfo_h15454c2:3 routing_h15454c2:3" vType="default_016" speedFactor="1.01" vaporized=""/>
    <tripinfo id="h645c1:1" depart="57622.00" departLane="266565295#5_1" departPos="5.10" departSpeed="0.00" departDelay="0.40" arrival="57666.00" arrivalLane="-315358253#1_1" arrivalPos="63.90" arrivalSpeed="14.99" duration="44.00" routeLength="547.76" waitingTime="0.00" waitingCount="0" stopTime="0.00" timeLoss="7.85" rerouteNo="1" devices="tripinfo_h645c1:1 routing_h645c1:1" vType="default_016" speedFactor="1.13" vaporized=""/>
    <tripinfo id="carIn25202:1" depart="57629.00" departLane="315358253#1_1" departPos="5.10" departSpeed="0.00" departDelay="1.50" arrival="57668.00" arrivalLane="32978638#0_1" arrivalPos="49.29" arrivalSpeed="12.54" duration="39.00" routeLength="405.15" waitingTime="0.00" waitingCount="0" stopTime="0.00" timeLoss="7.29" rerouteNo="1" devices="tripinfo_carIn25202:1 routing_carIn25202:1" vType="default_016" speedFactor="0.96" vaporized=""/>
    <tripinfo id="carIn28951:1" depart="57606.00" departLane="10425609#0_1" departPos="5.10" departSpeed="0.00" departDelay="0.20" arrival="57669.00" arrivalLane="-653473569#5_1" arrivalPos="73.05" arrivalSpeed="13.20" duration="63.00" routeLength="312.95" waitingTime="27.00" waitingCount="1" stopTime="0.00" timeLoss="37.69" rerouteNo="1" devices="tripinfo_carIn28951:1 routing_carIn28951:1" vType="default_016" speedFactor="0.96" vaporized=""/>
    <tripinfo id="carIn5482:1" depart="57617.00" departLane="653473569#5_1" departPos="5.10" departSpeed="0.00" departDelay="3.60" arrival="57671.00" arrivalLane="201956811#0_1" arrivalPos="40.40" arrivalSpeed="12.25" duration="54.00" routeLength="313.24" waitingTime="11.00" waitingCount="2" stopTime="0.00" timeLoss="27.01" rerouteNo="1" devices="tripinfo_carIn5482:1 routing_carIn5482:1" vType="default_016" speedFactor="0.89" vaporized=""/>
    <tripinfo id="carIn36103:1" depart="57620.00" departLane="653473569#5_1" departPos="5.10" departSpeed="0.00" departDelay="4.00" arrival="57673.00" arrivalLane="201956811#0_1" arrivalPos="40.40" arrivalSpeed="14.61" duration="53.00" routeLength="313.24" waitingTime="8.00" waitingCount="2" stopTime="0.00" timeLoss="30.39" rerouteNo="1" devices="tripinfo_carIn36103:1 routing_carIn36103:1" vType="default_016" speedFactor="1.08" vaporized=""/>
    <tripinfo id="carIn102997:1" depart="57623.00" departLane="653473569#5_1" departPos="5.10" departSpeed="0.00" departDelay="4.80" arrival="57675.00" arrivalLane="201956811#0_1" arrivalPos="40.40" arrivalSpeed="14.45" duration="52.00" routeLength="313.24" waitingTime="8.00" waitingCount="2" stopTime="0.00" timeLoss="30.40" rerouteNo="1" devices="tripinfo_carIn102997:1 routing_carIn102997:1" vType="default_016" speedFactor="1.10" vaporized=""/>
    <tripinfo id="carIn75554:1" depart="57626.00" departLane="653473569#5_1" departPos="5.10" departSpeed="0.00" departDelay="5.20" arrival="57678.00" arrivalLane="201956811#0_1" arrivalPos="40.40" arrivalSpeed="12.08" duration="52.00" routeLength="313.24" waitingTime="5.00" waitingCount="2" stopTime="0.00" timeLoss="26.63" rerouteNo="1" devices="tripinfo_carIn75554:1 routing_carIn75554:1" vType="default_016" speedFactor="0.92" vaporized=""/>
    <tripinfo id="carIn124416:1" depart="57663.00" departLane="-173169611#0_1" departPos="5.10" departSpeed="0.00" departDelay="0.50" arrival="57679.00" arrivalLane="201956820_1" arrivalPos="48.33" arrivalSpeed="11.78" duration="16.00" routeLength="122.35" waitingTime="0.00" waitingCount="0" stopTime="0.00" timeLoss="5.68" rerouteNo="0" devices="tripinfo_carIn124416:1 routing_carIn124416:1" vType="default_016" speedFactor="0.90" vaporized=""/>
    <tripinfo id="randUni20090:1" depart="57629.00" departLane="653473569#5_1" departPos="5.10" departSpeed="0.00" departDelay="1.00" arrival="57680.00" arrivalLane="201956811#0_1" arrivalPos="40.40" arrivalSpeed="12.95" duration="51.00" routeLength="313.24" waitingTime="6.00" waitingCount="1" stopTime="0.00" timeLoss="27.65" rerouteNo="1" devices="tripinfo_randUni20090:1 routing_randUni20090:1" vType="random_016" speedFactor="1.02" vaporized=""/>
    <tripinfo id="carIn37268:1" depart="57636.00" departLane="653473569#5_1" departPos="5.10" departSpeed="0.00" departDelay="0.90" arrival="57682.00" arrivalLane="201956811#0_1" arrivalPos="40.40" arrivalSpeed="12.30" duration="46.00" routeLength="313.24" waitingTime="5.00" waitingCount="2" stopTime="0.00" timeLoss="19.74" rerouteNo="1" devices="tripinfo_carIn37268:1 routing_carIn37268:1" vType="default_016" speedFactor="0.90" vaporized=""/>
    <tripinfo id="carIn55090:1" depart="57666.00" departLane="-173169611#0_1" departPos="5.10" departSpeed="0.00" departDelay="1.40" arrival="57682.00" arrivalLane="201956820_1" arrivalPos="48.33" arrivalSpeed="15.61" duration="16.00" routeLength="122.35" waitingTime="0.00" waitingCount="0" stopTime="0.00" timeLoss="7.86" rerouteNo="0" devices="tripinfo_carIn55090:1 routing_carIn55090:1" vType="default_016" speedFactor="1.27" vaporized=""/>
    <tripinfo id="carIn114137:1" depart="57634.00" departLane="27920078#0_1" departPos="5.10" departSpeed="0.00" departDelay="3.10" arrival="57684.00" arrivalLane="-83304175#2_1" arrivalPos="189.34" arrivalSpeed="9.02" duration="50.00" routeLength="501.51" waitingTime="0.00" waitingCount="0" stopTime="0.00" timeLoss="8.82" rerouteNo="1" devices="tripinfo_carIn114137:1 routing_carIn114137:1" vType="default_016" speedFactor="1.16" vaporized=""/>
    <tripinfo id="h20540c1:1" depart="57634.00" departLane="10425609#0_1" departPos="5.10" departSpeed="0.00" departDelay="0.50" arrival="57686.00" arrivalLane="-653473569#5_1" arrivalPos="73.05" arrivalSpeed="10.32" duration="52.00" routeLength="312.95" waitingTime="9.00" waitingCount="2" stopTime="0.00" timeLoss="22.24" rerouteNo="1" devices="tripinfo_h20540c1:1 routing_h20540c1:1" vType="default_016" speedFactor="0.80" vaporized=""/>
    <tripinfo id="carIn33538:1" depart="57671.00" departLane="37386279_1" departPos="5.10" departSpeed="0.00" departDelay="0.30" arrival="57687.00" arrivalLane="-24634414#4_1" arrivalPos="22.88" arrivalSpeed="7.55" duration="16.00" routeLength="125.23" waitingTime="0.00" waitingCount="0" stopTime="0.00" timeLoss="4.07" rerouteNo="0" devices="tripinfo_carIn33538:1 routing_carIn33538:1" vType="default_016" speedFactor="0.98" vaporized=""/>
    <tripinfo id="randUni10474:1" depart="57605.00" departLane="124812856#0_1" departPos="5.10" departSpeed="0.00" departDelay="0.20" arrival="57688.00" arrivalLane="-653473569#5_1" arrivalPos="73.05" arrivalSpeed="13.74" duration="83.00" routeLength="450.40" waitingTime="25.00" waitingCount="3" stopTime="0.00" timeLoss="51.75" rerouteNo="1" devices="tripinfo_randUni10474:1 routing_randUni10474:1" vType="random_016" speedFactor="1.08" vaporized=""/>
    <tripinfo id="carIn107084:1" depart="57601.00" departLane="124812856#0_1" departPos="5.10" departSpeed="0.00" departDelay="0.70" arrival="57690.00" arrivalLane="-653473569#5_1" arrivalPos="73.05" arrivalSpeed="12.98" duration="89.00" routeLength="450.40" waitingTime="28.00" waitingCount="3" stopTime="0.00" timeLoss="53.60" rerouteNo="1" devices="tripinfo_carIn107084:1 routing_carIn107084:1" vType="default_016" speedFactor="0.95" vaporized=""/>
    <tripinfo id="carIn81046:1" depart="57611.00" departLane="124812856#0_1" departPos="5.10" departSpeed="0.00" departDelay="2.50" arrival="57694.00" arrivalLane="-653473569#5_1" arrivalPos="73.05" arrivalSpeed="13.62" duration="83.00" routeLength="450.40" waitingTime="20.00" waitingCount="3" stopTime="0.00" timeLoss="50.09" rerouteNo="1" devices="tripinfo_carIn81046:1 routing_carIn81046:1" vType="default_016" speedFactor="1.02" vaporized=""/>
    <tripinfo id="carIn22637:1" depart="57635.00" departLane="27920078#0_1" departPos="5.10" departSpeed="0.00" departDelay="2.50" arrival="57695.00" arrivalLane="-83304175#2_1" arrivalPos="189.34" arrivalSpeed="7.12" duration="60.00" routeLength="501.51" waitingTime="2.00" waitingCount="1" stopTime="0.00" timeLoss="10.15" rerouteNo="1" devices="tripinfo_carIn22637:1 routing_carIn22637:1" vType="default_016" speedFactor="0.95" vaporized=""/>
    <tripinfo id="carIn77943:1" depart="57608.00" departLane="124812856#0_1" departPos="5.10" departSpeed="0.00" departDelay="2.50" arrival="57696.00" arrivalLane="-653473569#5_1" arrivalPos="73.05" arrivalSpeed="14.02" duration="88.00" routeLength="450.40" waitingTime="21.00" waitingCount="3" stopTime="0.00" timeLoss="55.07" rerouteNo="1" devices="tripinfo_carIn77943:1 routing_carIn77943:1" vType="default_016" speedFactor="1.02" vaporized=""/>
    <tripinfo id="carIn115641:1" depart="57614.00" departLane="-24693977#1_1" departPos="5.10" departSpeed="0.00" departDelay="0.90" arrival="57698.00" arrivalLane="-266565295#5_1" arrivalPos="172.76" arrivalSpeed="14.24" duration="84.00" routeLength="840.03" waitingTime="9.00" waitingCount="2" stopTime="0.00" timeLoss="27.59" rerouteNo="1" devices="tripinfo_carIn115641:1 routing_carIn115641:1" vType="default_016" speedFactor="1.11" vaporized=""/>
    <tripinfo id="carIn113711:1" depart="57601.00" departLane="-24693977#1_1" departPos="5.10" departSpeed="0.00" departDelay="0.70" arrival="57706.00" arrivalLane="-266565295#5_1" arrivalPos="172.76" arrivalSpeed="10.95" duration="105.00" routeLength="840.03" waitingTime="18.00" waitingCount="2" stopTime="0.00" timeLoss="34.33" rerouteNo="1" devices="tripinfo_carIn113711:1 routing_carIn113711:1" vType="default_016" speedFactor="0.87" vaporized=""/>
    <tripinfo id="carIn79400:1" depart="57604.00" departLane="-24693977#1_1" departPos="5.10" departSpeed="0.00" departDelay="0.10" arrival="57710.00" arrivalLane="-266565295#5_1" arrivalPos="172.76" arrivalSpeed="10.94" duration="106.00" routeLength="840.03" waitingTime="17.00" waitingCount="1" stopTime="0.00" timeLoss="33.05" rerouteNo="1" devices="tripinfo_carIn79400:1 routing_carIn79400:1" vType="default_016" speedFactor="0.85" vaporized=""/>
    <tripinfo id="carIn129760:1" depart="57661.00" departLane="653473569#5_1" departPos="5.10" departSpeed="0.00" departDelay="0.80" arrival="57717.00" arrivalLane="201956811#0_1" arrivalPos="40.40" arrivalSpeed="11.88" duration="56.00" routeLength="313.24" waitingTime="13.00" waitingCount="3" stopTime="0.00" timeLoss="29.38" rerouteNo="1" devices="tripinfo_carIn129760:1 routing_carIn129760:1" vType="default_016" speedFactor="0.92" vaporized=""/>
    <tripinfo id="carIn96537:1" depart="57615.00" departLane="124812856#0_1" departPos="5.10" departSpeed="0.00" departDelay="3.80" arrival="57718.00" arrivalLane="202070434#2_2" arrivalPos="39.03" arrivalSpeed="13.61" duration="103.00" routeLength="569.75" waitingTime="31.00" waitingCount="3" stopTime="0.00" timeLoss="63.92" rerouteNo="1" devices="tripinfo_carIn96537:1 routing_carIn96537:1" vType="default_016" speedFactor="1.06" vaporized=""/>
    <tripinfo id="h21130c2:1" depart="57630.00" departLane="10425609#0_1" departPos="5.10" departSpeed="0.00" departDelay="0.10" arrival="57718.00" arrivalLane="202070434#2_1" arrivalPos="39.03" arrivalSpeed="14.85" duration="88.00" routeLength="432.30" waitingTime="39.00" waitingCount="3" stopTime="0.00" timeLoss="59.08" rerouteNo="1" devices="tripinfo_h21130c2:1 routing_h21130c2:1" vType="default_016" speedFactor="1.10" vaporized=""/>
    <tripinfo id="carIn129626:1" depart="57664.00" departLane="653473569#5_1" departPos="5.10" departSpeed="0.00" departDelay="1.60" arrival="57719.00" arrivalLane="201956811#0_1" arrivalPos="40.40" arrivalSpeed="11.25" duration="55.00" routeLength="313.24" waitingTime="6.00" waitingCount="2" stopTime="0.00" timeLoss="28.75" rerouteNo="1" devices="tripinfo_carIn129626:1 routing_carIn129626:1" vType="default_016" speedFactor="0.90" vaporized=""/>
    <tripinfo id="carIn52610:1" depart="57615.00" departLane="-24693977#1_1" departPos="5.10" departSpeed="0.00" departDelay="0.10" arrival="57721.00" arrivalLane="-266565295#5_1" arrivalPos="172.76" arrivalSpeed="13.01" duration="106.00" routeLength="840.03" waitingTime="26.00" waitingCount="2" stopTime="0.00" timeLoss="44.86" rerouteNo="1" devices="tripinfo_carIn52610:1 routing_carIn52610:1" vType="default_016" speedFactor="1.01" vaporized=""/>
    <tripinfo id="h20539c1:3" depart="57667.00" departLane="653473569#5_1" departPos="5.10" departSpeed="0.00" departDelay="2.20" arrival="57721.00" arrivalLane="201956811#0_1" arrivalPos="40.40" arrivalSpeed="13.80" duration="54.00" routeLength="313.24" waitingTime="5.00" waitingCount="2" stopTime="0.00" timeLoss="31.40" rerouteNo="1" devices="tripinfo_h20539c1:3 routing_h20539c1:3" vType="default_016" speedFactor="1.06" vaporized=""/>
    <tripinfo id="carIn10158:1" depart="57622.00" departLane="-24693977#1_1" departPos="5.10" departSpeed="0.00" departDelay="0.80" arrival="57722.00" arrivalLane="-266565295#5_2" arrivalPos="172.76" arrivalSpeed="13.71" duration="100.00" routeLength="840.03" waitingTime="19.00" waitingCount="2" stopTime="0.00" timeLoss="40.46" rerouteNo="1" devices="tripinfo_carIn10158:1 routing_carIn10158:1" vType="default_016" speedFactor="1.05" vaporized=""/>
    <tripinfo id="carIn7887:1" depart="57661.00" departLane="27920078#0_1" departPos="5.10" departSpeed="0.00" departDelay="0.50" arrival="57722.00" arrivalLane="-83304175#2_1" arrivalPos="189.34" arrivalSpeed="7.00" duration="61.00" routeLength="501.51" waitingTime="0.00" waitingCount="0" stopTime="0.00" timeLoss="7.37" rerouteNo="1" devices="tripinfo_carIn7887:1 routing_carIn7887:1" vType="default_016" speedFactor="0.88" vaporized=""/>
    <tripinfo id="h5292c2:1" depart="57656.00" departLane="-24693977#1_1" departPos="5.10" departSpeed="0.00" departDelay="0.00" arrival="57723.00" arrivalLane="-266565295#5_1" arrivalPos="172.76" arrivalSpeed="15.35" duration="67.00" routeLength="840.03" waitingTime="0.00" waitingCount="0" stopTime="0.00" timeLoss="12.51" rerouteNo="1" devices="tripinfo_h5292c2:1 routing_h5292c2:1" vType="default_016" speedFactor="1.14" vaporized=""/>
    <tripinfo id="carIn106665:1" depart="57659.00" departLane="266565295#5_1" departPos="5.10" departSpeed="0.00" departDelay="1.80" arrival="57729.00" arrivalLane="24693977#1_1" arrivalPos="96.83" arrivalSpeed="13.51" duration="70.00" routeLength="834.40" waitingTime="0.00" waitingCount="0" stopTime="0.00" timeLoss="9.91" rerouteNo="1" devices="tripinfo_carIn106665:1 routing_carIn106665:1" vType="default_016" speedFactor="1.03" vaporized=""/>
    <tripinfo id="h3688c1:1" depart="57679.00" departLane="315358253#1_1" departPos="5.10" departSpeed="0.00" departDelay="0.50" arrival="57729.00" arrivalLane="32978638#0_1" arrivalPos="49.29" arrivalSpeed="15.48" duration="50.00" routeLength="405.15" waitingTime="11.00" waitingCount="1" stopTime="0.00" timeLoss="22.71" rerouteNo="1" devices="tripinfo_h3688c1:1 routing_h3688c1:1" vType="default_016" speedFactor="1.13" vaporized=""/>
    <tripinfo id="carIn28488:1" depart="57611.00" departLane="653473569#5_1" departPos="5.10" departSpeed="0.00" departDelay="0.80" arrival="57731.00" arrivalLane="201956820_1" arrivalPos="48.33" arrivalSpeed="13.96" duration="120.00" routeLength="437.07" waitingTime="75.00" waitingCount="1" stopTime="0.00" timeLoss="88.65" rerouteNo="1" devices="tripinfo_carIn28488:1 routing_carIn28488:1" vType="default_016" speedFactor="1.05" vaporized=""/>
    <tripinfo id="carIn12152:1" depart="57647.00" departLane="24599188#0.94_1" departPos="5.10" departSpeed="0.00" departDelay="0.50" arrival="57731.00" arrivalLane="24693977#1_1" arrivalPos="96.83" arrivalSpeed="14.52" duration="84.00" routeLength="511.77" waitingTime="19.00" waitingCount="1" stopTime="0.00" timeLoss="38.56" rerouteNo="1" devices="tripinfo_carIn12152:1 routing_carIn12152:1" vType="default_016" speedFactor="1.06" vaporized=""/>
    <tripinfo id="carIn55461:1" depart="57652.00" departLane="10425609#0_1" departPos="5.10" departSpeed="0.00" departDelay="0.30" arrival="57733.00" arrivalLane="201956810_1" arrivalPos="71.65" arrivalSpeed="15.19" duration="81.00" routeLength="255.78" waitingTime="48.00" waitingCount="2" stopTime="0.00" timeLoss="63.85" rerouteNo="1" devices="tripinfo_carIn55461:1 routing_carIn55461:1" vType="default_016" speedFactor="1.15" vaporized=""/>
    <tripinfo id="h3568c1:3" depart="57656.00" departLane="266565295#5_1" departPos="5.10" departSpeed="0.00" departDelay="0.80" arrival="57734.00" arrivalLane="-24634415_1" arrivalPos="64.03" arrivalSpeed="13.30" duration="78.00" routeLength="810.20" waitingTime="0.00" waitingCount="0" stopTime="0.00" timeLoss="14.16" rerouteNo="1" devices="tripinfo_h3568c1:3 routing_h3568c1:3" vType="default_016" speedFactor="1.02" vaporized=""/>
    <tripinfo id="carIn12775:1" depart="57676.00" departLane="10425609#0_1" departPos="5.10" departSpeed="0.00" departDelay="0.60" arrival="57734.00" arrivalLane="-653473569#5_1" arrivalPos="73.05" arrivalSpeed="12.65" duration="58.00" routeLength="312.95" waitingTime="17.00" waitingCount="2" stopTime="0.00" timeLoss="33.98" rerouteNo="1" devices="tripinfo_carIn12775:1 routing_carIn12775:1" vType="default_016" speedFactor="0.99" vaporized=""/>
    <tripinfo id="carIn77438:1" depart="57618.00" departLane="124812856#0_1" departPos="5.10" departSpeed="0.00" departDelay="5.10" arrival="57736.00" arrivalLane="-653473569#5_1" arrivalPos="73.05" arrivalSpeed="13.34" duration="118.00" routeLength="450.40" waitingTime="60.00" waitingCount="4" stopTime="0.00" timeLoss="84.54" rerouteNo="1" devices="tripinfo_carIn77438:1 routing_carIn77438:1" vType="default_016" speedFactor="0.99" vaporized=""/>
    <tripinfo id="carIn91254:1" depart="57696.00" departLane="653473569#5_1" departPos="5.10" departSpeed="0.00" departDelay="0.10" arrival="57736.00" arrivalLane="201956811#0_1" arrivalPos="40.40" arrivalSpeed="12.13" duration="40.00" routeLength="313.24" waitingTime="0.00" waitingCount="0" stopTime="0.00" timeLoss="13.37" rerouteNo="1" devices="tripinfo_carIn91254:1 routing_carIn91254:1" vType="default_016" speedFactor="0.90" vaporized=""/>
    <tripinfo id="carIn925:1" depart="57690.00" departLane="124812856#0_1" departPos="5.10" departSpeed="0.00" departDelay="63.90" arrival="57738.00" arrivalLane="201956810_1" arrivalPos="71.65" arrivalSpeed="10.35" duration="48.00" routeLength="134.91" waitingTime="21.00" waitingCount="2" stopTime="0.00" timeLoss="35.38" rerouteNo="1" devices="tripinfo_carIn925:1 routing_carIn925:1" vType="default_016" speedFactor="0.83" vaporized=""/>
    <tripinfo id="h19804c1:3" depart="57623.00" departLane="124812856#0_1" departPos="5.10" departSpeed="0.00" departDelay="7.50" arrival="57744.00" arrivalLane="-653473569#5_1" arrivalPos="73.05" arrivalSpeed="14.93" duration="121.00" routeLength="450.40" waitingTime="55.00" waitingCount="5" stopTime="0.00" timeLoss="91.20" rerouteNo="1" devices="tripinfo_h19804c1:3 routing_h19804c1:3" vType="default_016" speedFactor="1.12" vaporized=""/>
    <tripinfo id="carIn767:1" depart="57640.00" departLane="124812856#0_1" departPos="5.10" departSpeed="0.00" departDelay="21.50" arrival="57748.00" arrivalLane="-653473569#5_1" arrivalPos="73.05" arrivalSpeed="13.24" duration="108.00" routeLength="450.40" waitingTime="52.00" waitingCount="3" stopTime="0.00" timeLoss="76.04" rerouteNo="1" devices="tripinfo_carIn767:1 routing_carIn767:1" vType="default_016" speedFactor="1.04" vaporized=""/>
    <tripinfo id="carIn90263:1" depart="57677.00" departLane="-24693977#1_1" departPos="5.10" departSpeed="0.00" departDelay="0.60" arrival="57748.00" arrivalLane="-266565295#5_1" arrivalPos="172.76" arrivalSpeed="14.84" duration="71.00" routeLength="840.03" waitingTime="0.00" waitingCount="0" stopTime="0.00" timeLoss="13.54" rerouteNo="1" devices="tripinfo_carIn90263:1 routing_carIn90263:1" vType="default_016" speedFactor="1.07" vaporized=""/>
    <tripinfo id="h9878c1:3" depart="57686.00" departLane="-24693977#1_1" departPos="5.10" departSpeed="0.00" departDelay="0.70" arrival="57748.00" arrivalLane="32978638#0_1" arrivalPos="49.29" arrivalSpeed="12.62" duration="62.00" routeLength="677.49" waitingTime="0.00" waitingCount="0" stopTime="0.00" timeLoss="8.95" rerouteNo="1" devices="tripinfo_h9878c1:3 routing_h9878c1:3" vType="default_016" speedFactor="0.96" vaporized=""/>
    <tripinfo id="60.39" depart="57643.00" departLane="10425609#0_1" departPos="12.10" departSpeed="0.00" departDelay="0.50" arrival="57752.00" arrivalLane="202070434#2_1" arrivalPos="39.03" arrivalSpeed="13.29" duration="109.00" routeLength="425.30" waitingTime="47.00" waitingCount="3" stopTime="0.00" timeLoss="77.49" rerouteNo="1" devices="tripinfo_60.39 routing_60.39" vType="bus" speedFactor="1.00" vaporized=""/>
    <tripinfo id="carIn21160:1" depart="57674.00" departLane="-24693977#1_1" departPos="5.10" departSpeed="0.00" departDelay="0.10" arrival="57753.00" arrivalLane="-266565295#5_1" arrivalPos="172.76" arrivalSpeed="11.97" duration="79.00" routeLength="840.03" waitingTime="0.00" waitingCount="0" stopTime="0.00" timeLoss="13.27" rerouteNo="1" devices="tripinfo_carIn21160:1 routing_carIn21160:1" vType="default_016" speedFactor="0.94" vaporized=""/>
    <tripinfo id="carIn107842:1" depart="57644.00" departLane="124812856#0_1" departPos="5.10" departSpeed="0.00" departDelay="22.90" arrival="57755.00" arrivalLane="-653473569#5_1" arrivalPos="73.05" arrivalSpeed="11.55" duration="111.00" routeLength="450.40" waitingTime="50.00" waitingCount="3" stopTime="0.00" timeLoss="72.38" rerouteNo="1" devices="tripinfo_carIn107842:1 routing_carIn107842:1" vType="default_016" speedFactor="0.87" vaporized=""/>
    <tripinfo id="h3154c1:1" depart="57681.00" departLane="-24693977#1_1" departPos="5.10" departSpeed="0.00" departDelay="0.40" arrival="57757.00" arrivalLane="-266565295#5_1" arrivalPos="172.76" arrivalSpeed="11.85" duration="76.00" routeLength="840.03" waitingTime="0.00" waitingCount="0" stopTime="0.00" timeLoss="7.83" rerouteNo="1" devices="tripinfo_h3154c1:1 routing_h3154c1:1" vType="default_016" speedFactor="0.90" vaporized=""/>
    <tripinfo id="h9894c1:3" depart="57698.00" departLane="-24693977#1_1" departPos="5.10" departSpeed="0.00" departDelay="0.20" arrival="57757.00" arrivalLane="32978638#0_1" arrivalPos="49.29" arrivalSpeed="13.12" duration="59.00" routeLength="677.49" waitingTime="0.00" waitingCount="0" stopTime="0.00" timeLoss="8.35" rerouteNo="1" devices="tripinfo_h9894c1:3 routing_h9894c1:3" vType="default_016" speedFactor="1.01" vaporized=""/>
    <tripinfo id="carIn3969:1" depart="57648.00" departLane="124812856#0_1" departPos="5.10" departSpeed="0.00" departDelay="24.30" arrival="57759.00" arrivalLane="-653473569#5_1" arrivalPos="73.05" arrivalSpeed="13.13" duration="111.00" routeLength="450.40" waitingTime="56.00" waitingCount="3" stopTime="0.00" timeLoss="76.23" rerouteNo="1" devices="tripinfo_carIn3969:1 routing_carIn3969:1" vType="default_016" speedFactor="0.97" vaporized=""/>
    <tripinfo id="carIn131078:1" depart="57733.00" departLane="124812856#0_1" departPos="5.10" departSpeed="0.00" departDelay="97.60" arrival="57762.00" arrivalLane="201956810_1" arrivalPos="71.65" arrivalSpeed="15.09" duration="29.00" routeLength="134.91" waitingTime="11.00" waitingCount="1" stopTime="0.00" timeLoss="19.73" rerouteNo="1" devices="tripinfo_carIn131078:1 routing_carIn131078:1" vType="default_016" speedFactor="1.18" vaporized=""/>
    <tripinfo id="h15382c1:3" depart="57645.00" departLane="124812856#0_1" departPos="5.10" departSpeed="0.00" departDelay="22.80" arrival="57765.00" arrivalLane="-653473569#5_1" arrivalPos="73.05" arrivalSpeed="12.38" duration="120.00" routeLength="450.40" waitingTime="57.00" waitingCount="3" stopTime="0.00" timeLoss="82.50" rerouteNo="1" devices="tripinfo_h15382c1:3 routing_h15382c1:3" vType="default_016" speedFactor="0.89" vaporized=""/>
    <tripinfo id="carIn75079:1" depart="57747.00" departLane="-173169611#0_1" departPos="5.10" departSpeed="0.00" departDelay="0.60" arrival="57766.00" arrivalLane="201956820_1" arrivalPos="48.33" arrivalSpeed="14.29" duration="19.00" routeLength="122.35" waitingTime="0.00" waitingCount="0" stopTime="0.00" timeLoss="9.35" rerouteNo="0" devices="tripinfo_carIn75079:1 routing_carIn75079:1" vType="default_016" speedFactor="1.06" vaporized=""/>
    <tripinfo id="carIn38625:1" depart="57669.00" departLane="124812856#0_1" departPos="5.10" departSpeed="0.00" departDelay="43.50" arrival="57767.00" arrivalLane="-653473569#5_1" arrivalPos="73.05" arrivalSpeed="14.37" duration="98.00" routeLength="450.40" waitingTime="35.00" waitingCount="3" stopTime="0.00" timeLoss="66.27" rerouteNo="1" devices="tripinfo_carIn38625:1 routing_carIn38625:1" vType="default_016" speedFactor="1.07" vaporized=""/>
    <tripinfo id="carIn111853:1" depart="57633.00" departLane="27920078#0_1" departPos="5.10" departSpeed="0.00" departDelay="3.80" arrival="57767.00" arrivalLane="-266565295#5_1" arrivalPos="172.76" arrivalSpeed="14.59" duration="134.00" routeLength="1204.91" waitingTime="40.00" waitingCount="1" stopTime="0.00" timeLoss="53.86" rerouteNo="1" devices="tripinfo_carIn111853:1 routing_carIn111853:1" vType="default_016" speedFactor="1.09" vaporized=""/>
    <tripinfo id="randUni22709:1" depart="57718.00" departLane="315358253#1_1" departPos="5.10" departSpeed="0.00" departDelay="0.20" arrival="57768.00" arrivalLane="32978638#0_1" arrivalPos="49.29" arrivalSpeed="13.75" duration="50.00" routeLength="405.15" waitingTime="8.00" waitingCount="1" stopTime="0.00" timeLoss="18.78" rerouteNo="1" devices="tripinfo_randUni22709:1 routing_randUni22709:1" vType="random_016" speedFactor="0.99" vaporized=""/>
    <tripinfo id="h19699c1:3" depart="57647.00" departLane="27920078#0_1" departPos="5.10" departSpeed="0.00" departDelay="8.60" arrival="57770.00" arrivalLane="-266565295#5_1" arrivalPos="172.76" arrivalSpeed="13.42" duration="123.00" routeLength="1204.91" waitingTime="25.00" waitingCount="1" stopTime="0.00" timeLoss="38.67" rerouteNo="1" devices="tripinfo_h19699c1:3 routing_h19699c1:3" vType="default_016" speedFactor="1.03" vaporized=""/>
    <tripinfo id="carIn106325:1" depart="57713.00" departLane="27920078#0_1" departPos="5.10" departSpeed="0.00" departDelay="0.10" arrival="57772.00" arrivalLane="-83304175#2_1" arrivalPos="189.34" arrivalSpeed="6.69" duration="59.00" routeLength="501.51" waitingTime="0.00" waitingCount="0" stopTime="0.00" timeLoss="8.82" rerouteNo="1" devices="tripinfo_carIn106325:1 routing_carIn106325:1" vType="default_016" speedFactor="0.94" vaporized=""/>