<?xml version="1.0" encoding="UTF-8"?>

<!-- generated on 2023-08-31 12:39:21 by Eclipse SUMO libsumo Version 1.18.0
<configuration xmlns:xsi="http://www.w3.org/2001/XMLSchema-instance" xsi:noNamespaceSchemaLocation="http://sumo.dlr.de/xsd/libsumoConfiguration.xsd">

    <input>
        <net-file value="/home/stefan/RESCO/./environments/ingolstadt7/ingolstadt7.net.xml"/>
        <route-files value="/home/stefan/RESCO/./environments/ingolstadt7/ingolstadt7.rou.xml"/>
    </input>

    <output>
        <tripinfo-output value="/home/stefan/results/RAINBOW-tr0-ingolstadt7-7-drq_norm-wait_norm/tripinfo_59.xml"/>
        <tripinfo-output.write-unfinished value="true"/>
    </output>

    <time>
        <begin value="57600"/>
        <end value="61200"/>
    </time>

    <processing>
        <time-to-teleport value="-1"/>
    </processing>

    <report>
        <no-warnings value="True"/>
        <no-step-log value="True"/>
    </report>

    <random_number>
        <random value="true"/>
    </random_number>

</configuration>
-->

<tripinfos xmlns:xsi="http://www.w3.org/2001/XMLSchema-instance" xsi:noNamespaceSchemaLocation="http://sumo.dlr.de/xsd/tripinfo_file.xsd">
    <tripinfo id="carIn89578:1" depart="57614.00" departLane="124812856#0_1" departPos="5.10" departSpeed="0.00" departDelay="3.60" arrival="57643.00" arrivalLane="201956810_1" arrivalPos="71.65" arrivalSpeed="12.34" duration="29.00" routeLength="134.91" waitingTime="10.00" waitingCount="1" stopTime="0.00" timeLoss="17.18" rerouteNo="1" devices="tripinfo_carIn89578:1 routing_carIn89578:1" vType="default_016" speedFactor="0.94" vaporized=""/>
    <tripinfo id="carIn28951:1" depart="57606.00" departLane="10425609#0_1" departPos="5.10" departSpeed="0.00" departDelay="0.20" arrival="57645.00" arrivalLane="-653473569#5_1" arrivalPos="73.05" arrivalSpeed="14.73" duration="39.00" routeLength="312.95" waitingTime="8.00" waitingCount="1" stopTime="0.00" timeLoss="17.65" rerouteNo="1" devices="tripinfo_carIn28951:1 routing_carIn28951:1" vType="default_016" speedFactor="1.12" vaporized=""/>
    <tripinfo id="carIn105842:1" depart="57601.00" departLane="653473569#5_1" departPos="5.10" departSpeed="0.00" departDelay="0.80" arrival="57649.00" arrivalLane="201956811#0_1" arrivalPos="40.40" arrivalSpeed="10.56" duration="48.00" routeLength="313.24" waitingTime="10.00" waitingCount="2" stopTime="0.00" timeLoss="19.71" rerouteNo="1" devices="tripinfo_carIn105842:1 routing_carIn105842:1" vType="default_016" speedFactor="0.84" vaporized=""/>
    <tripinfo id="h15454c2:3" depart="57612.00" departLane="24608844_1" departPos="5.10" departSpeed="0.00" departDelay="0.50" arrival="57655.00" arrivalLane="32978638#0_1" arrivalPos="49.29" arrivalSpeed="12.61" duration="43.00" routeLength="354.79" waitingTime="0.00" waitingCount="0" stopTime="0.00" timeLoss="5.80" rerouteNo="1" devices="tripinfo_h15454c2:3 routing_h15454c2:3" vType="default_016" speedFactor="0.92" vaporized=""/>
    <tripinfo id="h20232c1:2" depart="57634.00" departLane="-173169611#0_1" departPos="5.10" departSpeed="0.00" departDelay="0.50" arrival="57660.00" arrivalLane="201956820_1" arrivalPos="48.33" arrivalSpeed="14.61" duration="26.00" routeLength="122.35" waitingTime="7.00" waitingCount="1" stopTime="0.00" timeLoss="17.10" rerouteNo="0" devices="tripinfo_h20232c1:2 routing_h20232c1:2" vType="default_016" speedFactor="1.14" vaporized=""/>
    <tripinfo id="carIn25202:1" depart="57628.00" departLane="315358253#1_1" departPos="5.10" departSpeed="0.00" departDelay="0.50" arrival="57663.00" arrivalLane="32978638#0_1" arrivalPos="49.29" arrivalSpeed="14.25" duration="35.00" routeLength="405.15" waitingTime="0.00" waitingCount="0" stopTime="0.00" timeLoss="6.77" rerouteNo="1" devices="tripinfo_carIn25202:1 routing_carIn25202:1" vType="default_016" speedFactor="1.09" vaporized=""/>
    <tripinfo id="randUni10474:1" depart="57605.00" departLane="124812856#0_1" departPos="5.10" departSpeed="0.00" departDelay="0.20" arrival="57664.00" arrivalLane="-653473569#5_1" arrivalPos="73.05" arrivalSpeed="13.39" duration="59.00" routeLength="450.40" waitingTime="12.00" waitingCount="2" stopTime="0.00" timeLoss="25.66" rerouteNo="1" devices="tripinfo_randUni10474:1 routing_randUni10474:1" vType="random_016" speedFactor="1.01" vaporized=""/>
    <tripinfo id="carIn107084:1" depart="57601.00" departLane="124812856#0_1" departPos="5.10" departSpeed="0.00" departDelay="0.70" arrival="57666.00" arrivalLane="-653473569#5_1" arrivalPos="73.05" arrivalSpeed="16.30" duration="65.00" routeLength="450.40" waitingTime="15.00" waitingCount="3" stopTime="0.00" timeLoss="36.14" rerouteNo="1" devices="tripinfo_carIn107084:1 routing_carIn107084:1" vType="default_016" speedFactor="1.18" vaporized=""/>
    <tripinfo id="h645c1:1" depart="57622.00" departLane="266565295#5_1" departPos="5.10" departSpeed="0.00" departDelay="0.40" arrival="57672.00" arrivalLane="-315358253#1_1" arrivalPos="63.90" arrivalSpeed="11.69" duration="50.00" routeLength="547.76" waitingTime="0.00" waitingCount="0" stopTime="0.00" timeLoss="6.00" rerouteNo="1" devices="tripinfo_h645c1:1 routing_h645c1:1" vType="default_016" speedFactor="0.93" vaporized=""/>
    <tripinfo id="carIn77943:1" depart="57608.00" departLane="124812856#0_1" departPos="5.10" departSpeed="0.00" departDelay="2.50" arrival="57674.00" arrivalLane="-653473569#5_1" arrivalPos="73.05" arrivalSpeed="13.18" duration="66.00" routeLength="450.40" waitingTime="9.00" waitingCount="3" stopTime="0.00" timeLoss="31.61" rerouteNo="1" devices="tripinfo_carIn77943:1 routing_carIn77943:1" vType="default_016" speedFactor="0.97" vaporized=""/>
    <tripinfo id="carIn106322:1" depart="57614.00" departLane="653473569#5_1" departPos="5.10" departSpeed="0.00" departDelay="2.20" arrival="57676.00" arrivalLane="201956811#0_1" arrivalPos="40.40" arrivalSpeed="14.86" duration="62.00" routeLength="313.24" waitingTime="18.00" waitingCount="3" stopTime="0.00" timeLoss="39.87" rerouteNo="1" devices="tripinfo_carIn106322:1 routing_carIn106322:1" vType="default_016" speedFactor="1.08" vaporized=""/>
    <tripinfo id="carIn5482:1" depart="57617.00" departLane="653473569#5_1" departPos="5.10" departSpeed="0.00" departDelay="3.60" arrival="57678.00" arrivalLane="201956811#0_1" arrivalPos="40.40" arrivalSpeed="12.55" duration="61.00" routeLength="313.24" waitingTime="13.00" waitingCount="4" stopTime="0.00" timeLoss="36.75" rerouteNo="1" devices="tripinfo_carIn5482:1 routing_carIn5482:1" vType="default_016" speedFactor="0.97" vaporized=""/>
    <tripinfo id="carIn28488:1" depart="57611.00" departLane="653473569#5_1" departPos="5.10" departSpeed="0.00" departDelay="0.80" arrival="57681.00" arrivalLane="201956820_1" arrivalPos="48.33" arrivalSpeed="12.79" duration="70.00" routeLength="437.07" waitingTime="13.00" waitingCount="3" stopTime="0.00" timeLoss="35.18" rerouteNo="1" devices="tripinfo_carIn28488:1 routing_carIn28488:1" vType="default_016" speedFactor="0.95" vaporized=""/>
    <tripinfo id="carIn36103:1" depart="57620.00" departLane="653473569#5_1" departPos="5.10" departSpeed="0.00" departDelay="4.00" arrival="57681.00" arrivalLane="201956811#0_1" arrivalPos="40.40" arrivalSpeed="13.36" duration="61.00" routeLength="313.24" waitingTime="13.00" waitingCount="4" stopTime="0.00" timeLoss="37.32" rerouteNo="1" devices="tripinfo_carIn36103:1 routing_carIn36103:1" vType="default_016" speedFactor="1.01" vaporized=""/>
    <tripinfo id="carIn81046:1" depart="57611.00" departLane="124812856#0_1" departPos="5.10" departSpeed="0.00" departDelay="2.50" arrival="57685.00" arrivalLane="-653473569#5_1" arrivalPos="73.05" arrivalSpeed="10.64" duration="74.00" routeLength="450.40" waitingTime="13.00" waitingCount="2" stopTime="0.00" timeLoss="35.04" rerouteNo="1" devices="tripinfo_carIn81046:1 routing_carIn81046:1" vType="default_016" speedFactor="0.85" vaporized=""/>
    <tripinfo id="carIn925:1" depart="57650.00" departLane="124812856#0_1" departPos="5.10" departSpeed="0.00" departDelay="23.90" arrival="57685.00" arrivalLane="201956810_1" arrivalPos="71.65" arrivalSpeed="11.77" duration="35.00" routeLength="134.91" waitingTime="14.00" waitingCount="2" stopTime="0.00" timeLoss="23.71" rerouteNo="1" devices="tripinfo_carIn925:1 routing_carIn925:1" vType="default_016" speedFactor="0.94" vaporized=""/>
    <tripinfo id="carIn33538:1" depart="57671.00" departLane="37386279_1" departPos="5.10" departSpeed="0.00" departDelay="0.30" arrival="57685.00" arrivalLane="-24634414#4_1" arrivalPos="22.88" arrivalSpeed="8.28" duration="14.00" routeLength="125.23" waitingTime="0.00" waitingCount="0" stopTime="0.00" timeLoss="3.58" rerouteNo="0" devices="tripinfo_carIn33538:1 routing_carIn33538:1" vType="default_016" speedFactor="1.08" vaporized=""/>
    <tripinfo id="carIn77438:1" depart="57618.00" departLane="124812856#0_1" departPos="5.10" departSpeed="0.00" departDelay="5.10" arrival="57687.00" arrivalLane="-653473569#5_1" arrivalPos="73.05" arrivalSpeed="15.56" duration="69.00" routeLength="450.40" waitingTime="13.00" waitingCount="2" stopTime="0.00" timeLoss="40.20" rerouteNo="1" devices="tripinfo_carIn77438:1 routing_carIn77438:1" vType="default_016" speedFactor="1.17" vaporized=""/>
    <tripinfo id="h19804c1:3" depart="57624.00" departLane="124812856#0_1" departPos="5.10" departSpeed="0.00" departDelay="8.50" arrival="57689.00" arrivalLane="-653473569#5_1" arrivalPos="73.05" arrivalSpeed="12.73" duration="65.00" routeLength="450.40" waitingTime="8.00" waitingCount="2" stopTime="0.00" timeLoss="30.30" rerouteNo="1" devices="tripinfo_h19804c1:3 routing_h19804c1:3" vType="default_016" speedFactor="0.97" vaporized=""/>
    <tripinfo id="carIn113711:1" depart="57601.00" departLane="-24693977#1_1" departPos="5.10" departSpeed="0.00" departDelay="0.70" arrival="57690.00" arrivalLane="-266565295#5_1" arrivalPos="172.76" arrivalSpeed="12.86" duration="89.00" routeLength="840.03" waitingTime="16.00" waitingCount="1" stopTime="0.00" timeLoss="27.23" rerouteNo="1" devices="tripinfo_carIn113711:1 routing_carIn113711:1" vType="default_016" speedFactor="0.99" vaporized=""/>
    <tripinfo id="carIn79400:1" depart="57604.00" departLane="-24693977#1_1" departPos="5.10" departSpeed="0.00" departDelay="0.10" arrival="57691.00" arrivalLane="-266565295#5_1" arrivalPos="172.76" arrivalSpeed="13.72" duration="87.00" routeLength="840.03" waitingTime="12.00" waitingCount="1" stopTime="0.00" timeLoss="25.85" rerouteNo="1" devices="tripinfo_carIn79400:1 routing_carIn79400:1" vType="default_016" speedFactor="1.02" vaporized=""/>
    <tripinfo id="carIn115641:1" depart="57614.00" departLane="-24693977#1_1" departPos="5.10" departSpeed="0.00" departDelay="0.90" arrival="57692.00" arrivalLane="-266565295#5_2" arrivalPos="172.76" arrivalSpeed="15.97" duration="78.00" routeLength="840.03" waitingTime="7.00" waitingCount="1" stopTime="0.00" timeLoss="24.45" rerouteNo="1" devices="tripinfo_carIn115641:1 routing_carIn115641:1" vType="default_016" speedFactor="1.15" vaporized=""/>
    <tripinfo id="carIn767:1" depart="57633.00" departLane="124812856#0_1" departPos="5.10" departSpeed="0.00" departDelay="14.50" arrival="57694.00" arrivalLane="-653473569#5_1" arrivalPos="73.05" arrivalSpeed="14.19" duration="61.00" routeLength="450.40" waitingTime="4.00" waitingCount="2" stopTime="0.00" timeLoss="29.11" rerouteNo="1" devices="tripinfo_carIn767:1 routing_carIn767:1" vType="default_016" speedFactor="1.05" vaporized=""/>
    <tripinfo id="carIn52610:1" depart="57615.00" departLane="-24693977#1_1" departPos="5.10" departSpeed="0.00" departDelay="0.10" arrival="57696.00" arrivalLane="-266565295#5_1" arrivalPos="172.76" arrivalSpeed="11.81" duration="81.00" routeLength="840.03" waitingTime="0.00" waitingCount="0" stopTime="0.00" timeLoss="13.33" rerouteNo="1" devices="tripinfo_carIn52610:1 routing_carIn52610:1" vType="default_016" speedFactor="0.92" vaporized=""/>
    <tripinfo id="carIn107842:1" depart="57637.00" departLane="124812856#0_1" departPos="5.10" departSpeed="0.00" departDelay="15.90" arrival="57697.00" arrivalLane="-653473569#5_1" arrivalPos="73.05" arrivalSpeed="13.59" duration="60.00" routeLength="450.40" waitingTime="2.00" waitingCount="1" stopTime="0.00" timeLoss="25.80" rerouteNo="1" devices="tripinfo_carIn107842:1 routing_carIn107842:1" vType="default_016" speedFactor="0.99" vaporized=""/>
    <tripinfo id="carIn131078:1" depart="57677.00" departLane="124812856#0_1" departPos="5.10" departSpeed="0.00" departDelay="41.60" arrival="57699.00" arrivalLane="201956810_1" arrivalPos="71.65" arrivalSpeed="14.29" duration="22.00" routeLength="134.91" waitingTime="2.00" waitingCount="1" stopTime="0.00" timeLoss="11.62" rerouteNo="1" devices="tripinfo_carIn131078:1 routing_carIn131078:1" vType="default_016" speedFactor="1.06" vaporized=""/>
    <tripinfo id="h15382c1:3" depart="57638.00" departLane="124812856#0_1" departPos="5.10" departSpeed="0.00" departDelay="15.80" arrival="57704.00" arrivalLane="-653473569#5_1" arrivalPos="73.05" arrivalSpeed="13.26" duration="66.00" routeLength="450.40" waitingTime="4.00" waitingCount="2" stopTime="0.00" timeLoss="33.55" rerouteNo="1" devices="tripinfo_h15382c1:3 routing_h15382c1:3" vType="default_016" speedFactor="1.01" vaporized=""/>
    <tripinfo id="carIn124416:1" depart="57663.00" departLane="-173169611#0_1" departPos="5.10" departSpeed="0.00" departDelay="0.50" arrival="57706.00" arrivalLane="201956820_1" arrivalPos="48.33" arrivalSpeed="12.62" duration="43.00" routeLength="122.35" waitingTime="25.00" waitingCount="1" stopTime="0.00" timeLoss="33.41" rerouteNo="0" devices="tripinfo_carIn124416:1 routing_carIn124416:1" vType="default_016" speedFactor="0.99" vaporized=""/>
    <tripinfo id="carIn3969:1" depart="57641.00" departLane="124812856#0_1" departPos="5.10" departSpeed="0.00" departDelay="17.30" arrival="57707.00" arrivalLane="-653473569#5_1" arrivalPos="73.05" arrivalSpeed="12.01" duration="66.00" routeLength="450.40" waitingTime="3.00" waitingCount="2" stopTime="0.00" timeLoss="31.05" rerouteNo="1" devices="tripinfo_carIn3969:1 routing_carIn3969:1" vType="default_016" speedFactor="0.96" vaporized=""/>
    <tripinfo id="carIn26410:1" depart="57621.00" departLane="124812856#0_1" departPos="5.10" departSpeed="0.00" departDelay="7.50" arrival="57709.00" arrivalLane="202070434#2_2" arrivalPos="39.03" arrivalSpeed="12.57" duration="88.00" routeLength="569.75" waitingTime="18.00" waitingCount="3" stopTime="0.00" timeLoss="45.61" rerouteNo="1" devices="tripinfo_carIn26410:1 routing_carIn26410:1" vType="default_016" speedFactor="0.99" vaporized=""/>
    <tripinfo id="carIn51024:1" depart="57627.00" departLane="124812856#0_1" departPos="5.10" departSpeed="0.00" departDelay="10.90" arrival="57710.00" arrivalLane="202070434#2_2" arrivalPos="39.03" arrivalSpeed="14.14" duration="83.00" routeLength="569.75" waitingTime="7.00" waitingCount="2" stopTime="0.00" timeLoss="45.82" rerouteNo="1" devices="tripinfo_carIn51024:1 routing_carIn51024:1" vType="default_016" speedFactor="1.11" vaporized=""/>
    <tripinfo id="h21130c2:1" depart="57630.00" departLane="10425609#0_1" departPos="5.10" departSpeed="0.00" departDelay="0.10" arrival="57710.00" arrivalLane="202070434#2_1" arrivalPos="39.03" arrivalSpeed="10.92" duration="80.00" routeLength="432.30" waitingTime="25.00" waitingCount="2" stopTime="0.00" timeLoss="43.22" rerouteNo="1" devices="tripinfo_h21130c2:1 routing_h21130c2:1" vType="default_016" speedFactor="0.87" vaporized=""/>
    <tripinfo id="carIn10158:1" depart="57622.00" departLane="-24693977#1_1" departPos="5.10" departSpeed="0.00" departDelay="0.80" arrival="57711.00" arrivalLane="-266565295#5_1" arrivalPos="172.76" arrivalSpeed="10.26" duration="89.00" routeLength="840.03" waitingTime="0.00" waitingCount="0" stopTime="0.00" timeLoss="8.98" rerouteNo="1" devices="tripinfo_carIn10158:1 routing_carIn10158:1" vType="default_016" speedFactor="0.77" vaporized=""/>
    <tripinfo id="carIn114137:1" depart="57634.00" departLane="27920078#0_1" departPos="5.10" departSpeed="0.00" departDelay="3.10" arrival="57711.00" arrivalLane="-83304175#2_1" arrivalPos="189.34" arrivalSpeed="8.53" duration="77.00" routeLength="501.51" waitingTime="16.00" waitingCount="1" stopTime="0.00" timeLoss="31.43" rerouteNo="1" devices="tripinfo_carIn114137:1 routing_carIn114137:1" vType="default_016" speedFactor="1.04" vaporized=""/>
    <tripinfo id="carIn96537:1" depart="57615.00" departLane="124812856#0_1" departPos="5.10" departSpeed="0.00" departDelay="3.80" arrival="57712.00" arrivalLane="202070434#2_1" arrivalPos="39.03" arrivalSpeed="13.94" duration="97.00" routeLength="569.75" waitingTime="25.00" waitingCount="4" stopTime="0.00" timeLoss="56.80" rerouteNo="1" devices="tripinfo_carIn96537:1 routing_carIn96537:1" vType="default_016" speedFactor="1.04" vaporized=""/>
    <tripinfo id="carIn128705:1" depart="57630.00" departLane="124812856#0_1" departPos="5.10" departSpeed="0.00" departDelay="11.60" arrival="57713.00" arrivalLane="202070434#2_1" arrivalPos="39.03" arrivalSpeed="14.56" duration="83.00" routeLength="569.75" waitingTime="5.00" waitingCount="2" stopTime="0.00" timeLoss="48.30" rerouteNo="1" devices="tripinfo_carIn128705:1 routing_carIn128705:1" vType="default_016" speedFactor="1.18" vaporized=""/>
    <tripinfo id="h21989c1:1" depart="57634.00" departLane="124812856#0_1" departPos="5.10" departSpeed="0.00" departDelay="13.60" arrival="57713.00" arrivalLane="202070434#2_2" arrivalPos="39.03" arrivalSpeed="14.60" duration="79.00" routeLength="569.75" waitingTime="3.00" waitingCount="1" stopTime="0.00" timeLoss="39.97" rerouteNo="1" devices="tripinfo_h21989c1:1 routing_h21989c1:1" vType="default_016" speedFactor="1.06" vaporized=""/>
    <tripinfo id="carIn22637:1" depart="57635.00" departLane="27920078#0_1" departPos="5.10" departSpeed="0.00" departDelay="2.50" arrival="57713.00" arrivalLane="-83304175#2_1" arrivalPos="189.34" arrivalSpeed="8.25" duration="78.00" routeLength="501.51" waitingTime="16.00" waitingCount="2" stopTime="0.00" timeLoss="35.04" rerouteNo="1" devices="tripinfo_carIn22637:1 routing_carIn22637:1" vType="default_016" speedFactor="1.10" vaporized=""/>
    <tripinfo id="carIn38625:1" depart="57646.00" departLane="124812856#0_1" departPos="5.10" departSpeed="0.00" departDelay="20.50" arrival="57714.00" arrivalLane="-653473569#5_1" arrivalPos="73.05" arrivalSpeed="15.97" duration="68.00" routeLength="450.40" waitingTime="21.00" waitingCount="2" stopTime="0.00" timeLoss="39.37" rerouteNo="1" devices="tripinfo_carIn38625:1 routing_carIn38625:1" vType="default_016" speedFactor="1.18" vaporized=""/>
    <tripinfo id="carIn12900:1" depart="57697.00" departLane="124812856#0_1" departPos="5.10" departSpeed="0.00" departDelay="48.80" arrival="57715.00" arrivalLane="201956810_1" arrivalPos="71.65" arrivalSpeed="15.23" duration="18.00" routeLength="134.91" waitingTime="0.00" waitingCount="0" stopTime="0.00" timeLoss="7.92" rerouteNo="1" devices="tripinfo_carIn12900:1 routing_carIn12900:1" vType="default_016" speedFactor="1.11" vaporized=""/>
    <tripinfo id="carIn56649:1" depart="57644.00" departLane="124812856#0_1" departPos="5.10" departSpeed="0.00" departDelay="20.10" arrival="57716.00" arrivalLane="-653473569#5_1" arrivalPos="73.05" arrivalSpeed="14.14" duration="72.00" routeLength="450.40" waitingTime="21.00" waitingCount="2" stopTime="0.00" timeLoss="40.98" rerouteNo="1" devices="tripinfo_carIn56649:1 routing_carIn56649:1" vType="default_016" speedFactor="1.08" vaporized=""/>
    <tripinfo id="h3688c1:1" depart="57679.00" departLane="315358253#1_1" departPos="5.10" departSpeed="0.00" departDelay="0.50" arrival="57716.00" arrivalLane="32978638#0_1" arrivalPos="49.29" arrivalSpeed="13.41" duration="37.00" routeLength="405.15" waitingTime="0.00" waitingCount="0" stopTime="0.00" timeLoss="6.73" rerouteNo="1" devices="tripinfo_h3688c1:1 routing_h3688c1:1" vType="default_016" speedFactor="1.00" vaporized=""/>
    <tripinfo id="carIn102997:1" depart="57623.00" departLane="653473569#5_1" departPos="5.10" departSpeed="0.00" departDelay="4.80" arrival="57724.00" arrivalLane="201956811#0_1" arrivalPos="40.40" arrivalSpeed="12.93" duration="101.00" routeLength="313.24" waitingTime="45.00" waitingCount="5" stopTime="0.00" timeLoss="77.64" rerouteNo="1" devices="tripinfo_carIn102997:1 routing_carIn102997:1" vType="default_016" speedFactor="1.01" vaporized=""/>
    <tripinfo id="carIn64859:1" depart="57654.00" departLane="124812856#0_1" departPos="5.10" departSpeed="0.00" departDelay="25.60" arrival="57725.00" arrivalLane="-653473569#5_1" arrivalPos="73.05" arrivalSpeed="12.46" duration="71.00" routeLength="450.40" waitingTime="15.00" waitingCount="2" stopTime="0.00" timeLoss="33.66" rerouteNo="1" devices="tripinfo_carIn64859:1 routing_carIn64859:1" vType="default_016" speedFactor="0.90" vaporized=""/>
    <tripinfo id="h5292c2:1" depart="57656.00" departLane="-24693977#1_1" departPos="5.10" departSpeed="0.00" departDelay="0.00" arrival="57725.00" arrivalLane="-266565295#5_1" arrivalPos="172.76" arrivalSpeed="15.15" duration="69.00" routeLength="840.03" waitingTime="1.00" waitingCount="1" stopTime="0.00" timeLoss="14.00" rerouteNo="1" devices="tripinfo_h5292c2:1 routing_h5292c2:1" vType="default_016" speedFactor="1.12" vaporized=""/>
    <tripinfo id="carIn75554:1" depart="57626.00" departLane="653473569#5_1" departPos="5.10" departSpeed="0.00" departDelay="5.20" arrival="57726.00" arrivalLane="201956811#0_1" arrivalPos="40.40" arrivalSpeed="15.07" duration="100.00" routeLength="313.24" waitingTime="40.00" waitingCount="6" stopTime="0.00" timeLoss="78.95" rerouteNo="1" devices="tripinfo_carIn75554:1 routing_carIn75554:1" vType="default_016" speedFactor="1.14" vaporized=""/>
    <tripinfo id="carIn17767:1" depart="57651.00" departLane="124812856#0_1" departPos="5.10" departSpeed="0.00" departDelay="23.80" arrival="57726.00" arrivalLane="-653473569#5_1" arrivalPos="73.05" arrivalSpeed="13.14" duration="75.00" routeLength="450.40" waitingTime="17.00" waitingCount="2" stopTime="0.00" timeLoss="42.88" rerouteNo="1" devices="tripinfo_carIn17767:1 routing_carIn17767:1" vType="default_016" speedFactor="1.03" vaporized=""/>
    <tripinfo id="carIn12152:1" depart="57647.00" departLane="24599188#0.94_1" departPos="5.10" departSpeed="0.00" departDelay="0.50" arrival="57726.00" arrivalLane="24693977#1_1" arrivalPos="96.83" arrivalSpeed="12.91" duration="79.00" routeLength="511.77" waitingTime="19.00" waitingCount="1" stopTime="0.00" timeLoss="31.35" rerouteNo="1" devices="tripinfo_carIn12152:1 routing_carIn12152:1" vType="default_016" speedFactor="1.02" vaporized=""/>
    <tripinfo id="randUni20090:1" depart="57629.00" departLane="653473569#5_1" departPos="5.10" departSpeed="0.00" departDelay="1.00" arrival="57728.00" arrivalLane="201956811#0_1" arrivalPos="40.40" arrivalSpeed="13.66" duration="99.00" routeLength="313.24" waitingTime="35.00" waitingCount="7" stopTime="0.00" timeLoss="74.73" rerouteNo="1" devices="tripinfo_randUni20090:1 routing_randUni20090:1" vType="random_016" speedFactor="1.00" vaporized=""/>
    <tripinfo id="carIn37268:1" depart="57636.00" departLane="653473569#5_1" departPos="5.10" departSpeed="0.00" departDelay="0.90" arrival="57729.00" arrivalLane="201956811#0_1" arrivalPos="40.40" arrivalSpeed="15.45" duration="93.00" routeLength="313.24" waitingTime="29.00" waitingCount="7" stopTime="0.00" timeLoss="73.58" rerouteNo="1" devices="tripinfo_carIn37268:1 routing_carIn37268:1" vType="default_016" speedFactor="1.20" vaporized=""/>
    <tripinfo id="carIn129760:1" depart="57661.00" departLane="653473569#5_1" departPos="5.10" departSpeed="0.00" departDelay="0.80" arrival="57733.00" arrivalLane="201956811#0_1" arrivalPos="40.40" arrivalSpeed="13.43" duration="72.00" routeLength="313.24" waitingTime="20.00" waitingCount="5" stopTime="0.00" timeLoss="48.21" rerouteNo="1" devices="tripinfo_carIn129760:1 routing_carIn129760:1" vType="default_016" speedFactor="0.99" vaporized=""/>
    <tripinfo id="carIn7887:1" depart="57661.00" departLane="27920078#0_1" departPos="5.10" departSpeed="0.00" departDelay="0.50" arrival="57733.00" arrivalLane="-83304175#2_1" arrivalPos="189.34" arrivalSpeed="6.93" duration="72.00" routeLength="501.51" waitingTime="9.00" waitingCount="1" stopTime="0.00" timeLoss="22.42" rerouteNo="1" devices="tripinfo_carIn7887:1 routing_carIn7887:1" vType="default_016" speedFactor="0.96" vaporized=""/>
    <tripinfo id="carIn48979:1" depart="57657.00" departLane="124812856#0_1" departPos="5.10" departSpeed="0.00" departDelay="28.10" arrival="57734.00" arrivalLane="-653473569#5_1" arrivalPos="73.05" arrivalSpeed="13.47" duration="77.00" routeLength="450.40" waitingTime="14.00" waitingCount="3" stopTime="0.00" timeLoss="45.41" rerouteNo="1" devices="tripinfo_carIn48979:1 routing_carIn48979:1" vType="default_016" speedFactor="1.04" vaporized=""/>
    <tripinfo id="carIn88932:1" depart="57659.00" departLane="124812856#0_1" departPos="5.10" departSpeed="0.00" departDelay="28.40" arrival="57736.00" arrivalLane="-653473569#5_1" arrivalPos="73.05" arrivalSpeed="13.77" duration="77.00" routeLength="450.40" waitingTime="12.00" waitingCount="2" stopTime="0.00" timeLoss="46.05" rerouteNo="1" devices="tripinfo_carIn88932:1 routing_carIn88932:1" vType="default_016" speedFactor="1.08" vaporized=""/>
    <tripinfo id="carIn44740:1" depart="57663.00" departLane="124812856#0_1" departPos="5.10" departSpeed="0.00" departDelay="30.70" arrival="57746.00" arrivalLane="-653473569#5_1" arrivalPos="73.05" arrivalSpeed="10.79" duration="83.00" routeLength="450.40" waitingTime="12.00" waitingCount="2" stopTime="0.00" timeLoss="44.24" rerouteNo="1" devices="tripinfo_carIn44740:1 routing_carIn44740:1" vType="default_016" speedFactor="0.87" vaporized=""/>
    <tripinfo id="carIn13362:1" depart="57679.00" departLane="124812856#0_1" departPos="5.10" departSpeed="0.00" departDelay="43.40" arrival="57747.00" arrivalLane="-653473569#5_1" arrivalPos="73.05" arrivalSpeed="13.47" duration="68.00" routeLength="450.40" waitingTime="2.00" waitingCount="1" stopTime="0.00" timeLoss="34.26" rerouteNo="1" devices="tripinfo_carIn13362:1 routing_carIn13362:1" vType="default_016" speedFactor="0.98" vaporized=""/>
    <tripinfo id="carIn90263:1" depart="57677.00" departLane="-24693977#1_1" departPos="5.10" departSpeed="0.00" departDelay="0.60" arrival="57749.00" arrivalLane="-266565295#5_1" arrivalPos="172.76" arrivalSpeed="12.67" duration="72.00" routeLength="840.03" waitingTime="0.00" waitingCount="0" stopTime="0.00" timeLoss="9.97" rerouteNo="1" devices="tripinfo_carIn90263:1 routing_carIn90263:1" vType="default_016" speedFactor="1.00" vaporized=""/>
    <tripinfo id="h3154c1:1" depart="57681.00" departLane="-24693977#1_1" departPos="5.10" departSpeed="0.00" departDelay="0.40" arrival="57750.00" arrivalLane="-266565295#5_2" arrivalPos="172.76" arrivalSpeed="14.19" duration="69.00" routeLength="840.03" waitingTime="0.00" waitingCount="0" stopTime="0.00" timeLoss="8.50" rerouteNo="1" devices="tripinfo_h3154c1:1 routing_h3154c1:1" vType="default_016" speedFactor="1.03" vaporized=""/>
    <tripinfo id="h9878c1:3" depart="57686.00" departLane="-24693977#1_1" departPos="5.10" departSpeed="0.00" departDelay="0.70" arrival="57750.00" arrivalLane="32978638#0_1" arrivalPos="49.29" arrivalSpeed="13.06" duration="64.00" routeLength="677.49" waitingTime="4.00" waitingCount="1" stopTime="0.00" timeLoss="14.92" rerouteNo="1" devices="tripinfo_h9878c1:3 routing_h9878c1:3" vType="default_016" speedFactor="1.03" vaporized=""/>
    <tripinfo id="carIn129626:1" depart="57664.00" departLane="653473569#5_1" departPos="5.10" departSpeed="0.00" departDelay="1.60" arrival="57752.00" arrivalLane="201956811#0_1" arrivalPos="40.40" arrivalSpeed="13.90" duration="88.00" routeLength="313.24" waitingTime="25.00" waitingCount="6" stopTime="0.00" timeLoss="65.21" rerouteNo="1" devices="tripinfo_carIn129626:1 routing_carIn129626:1" vType="default_016" speedFactor="1.06" vaporized=""/>
    <tripinfo id="carIn21160:1" depart="57674.00" departLane="-24693977#1_1" departPos="5.10" departSpeed="0.00" departDelay="0.10" arrival="57752.00" arrivalLane="-266565295#5_1" arrivalPos="172.76" arrivalSpeed="12.86" duration="78.00" routeLength="840.03" waitingTime="4.00" waitingCount="1" stopTime="0.00" timeLoss="14.34" rerouteNo="1" devices="tripinfo_carIn21160:1 routing_carIn21160:1" vType="default_016" speedFactor="0.97" vaporized=""/>
    <tripinfo id="carIn64490:1" depart="57667.00" departLane="124812856#0_1" departPos="5.10" departSpeed="0.00" departDelay="33.10" arrival="57754.00" arrivalLane="-653473569#5_1" arrivalPos="73.05" arrivalSpeed="14.49" duration="87.00" routeLength="450.40" waitingTime="9.00" waitingCount="3" stopTime="0.00" timeLoss="56.65" rerouteNo="1" devices="tripinfo_carIn64490:1 routing_carIn64490:1" vType="default_016" speedFactor="1.09" vaporized=""/>
    <tripinfo id="carIn55461:1" depart="57652.00" departLane="10425609#0_1" departPos="5.10" departSpeed="0.00" departDelay="0.30" arrival="57755.00" arrivalLane="201956810_1" arrivalPos="71.65" arrivalSpeed="12.49" duration="103.00" routeLength="255.78" waitingTime="72.00" waitingCount="1" stopTime="0.00" timeLoss="82.21" rerouteNo="1" devices="tripinfo_carIn55461:1 routing_carIn55461:1" vType="default_016" speedFactor="0.96" vaporized=""/>
    <tripinfo id="carIn99385:1" depart="57682.00" departLane="124812856#0_1" departPos="5.10" departSpeed="0.00" departDelay="44.90" arrival="57756.00" arrivalLane="-653473569#5_1" arrivalPos="73.05" arrivalSpeed="14.86" duration="74.00" routeLength="450.40" waitingTime="1.00" waitingCount="1" stopTime="0.00" timeLoss="43.99" rerouteNo="1" devices="tripinfo_carIn99385:1 routing_carIn99385:1" vType="default_016" speedFactor="1.12" vaporized=""/>