<?xml version="1.0" encoding="UTF-8"?>

<!-- generated on 2023-08-31 12:36:50 by Eclipse SUMO libsumo Version 1.18.0
<configuration xmlns:xsi="http://www.w3.org/2001/XMLSchema-instance" xsi:noNamespaceSchemaLocation="http://sumo.dlr.de/xsd/libsumoConfiguration.xsd">

    <input>
        <net-file value="/home/stefan/RESCO/./environments/ingolstadt7/ingolstadt7.net.xml"/>
        <route-files value="/home/stefan/RESCO/./environments/ingolstadt7/ingolstadt7.rou.xml"/>
    </input>

    <output>
        <tripinfo-output value="/home/stefan/results/RAINBOW-tr0-ingolstadt7-7-drq_norm-wait_norm/tripinfo_52.xml"/>
        <tripinfo-output.write-unfinished value="true"/>
    </output>

    <time>
        <begin value="57600"/>
        <end value="61200"/>
    </time>

    <processing>
        <time-to-teleport value="-1"/>
    </processing>

    <report>
        <no-warnings value="True"/>
        <no-step-log value="True"/>
    </report>

    <random_number>
        <random value="true"/>
    </random_number>

</configuration>
-->

<tripinfos xmlns:xsi="http://www.w3.org/2001/XMLSchema-instance" xsi:noNamespaceSchemaLocation="http://sumo.dlr.de/xsd/tripinfo_file.xsd">
    <tripinfo id="carIn89578:1" depart="57614.00" departLane="124812856#0_1" departPos="5.10" departSpeed="0.00" departDelay="3.60" arrival="57635.00" arrivalLane="201956810_1" arrivalPos="71.65" arrivalSpeed="12.82" duration="21.00" routeLength="134.91" waitingTime="0.00" waitingCount="0" stopTime="0.00" timeLoss="9.56" rerouteNo="1" devices="tripinfo_carIn89578:1 routing_carIn89578:1" vType="default_016" speedFactor="0.94" vaporized=""/>
    <tripinfo id="carIn107084:1" depart="57601.00" departLane="124812856#0_1" departPos="5.10" departSpeed="0.00" departDelay="0.70" arrival="57644.00" arrivalLane="-653473569#5_1" arrivalPos="73.05" arrivalSpeed="12.58" duration="43.00" routeLength="450.40" waitingTime="0.00" waitingCount="0" stopTime="0.00" timeLoss="7.00" rerouteNo="1" devices="tripinfo_carIn107084:1 routing_carIn107084:1" vType="default_016" speedFactor="0.93" vaporized=""/>
    <tripinfo id="carIn105842:1" depart="57601.00" departLane="653473569#5_1" departPos="5.10" departSpeed="0.00" departDelay="0.80" arrival="57647.00" arrivalLane="201956811#0_1" arrivalPos="40.40" arrivalSpeed="13.94" duration="46.00" routeLength="313.24" waitingTime="11.00" waitingCount="2" stopTime="0.00" timeLoss="23.00" rerouteNo="1" devices="tripinfo_carIn105842:1 routing_carIn105842:1" vType="default_016" speedFactor="1.03" vaporized=""/>
    <tripinfo id="h20232c1:2" depart="57634.00" departLane="-173169611#0_1" departPos="5.10" departSpeed="0.00" departDelay="0.50" arrival="57649.00" arrivalLane="201956820_1" arrivalPos="48.33" arrivalSpeed="12.86" duration="15.00" routeLength="122.35" waitingTime="0.00" waitingCount="0" stopTime="0.00" timeLoss="5.19" rerouteNo="0" devices="tripinfo_h20232c1:2 routing_h20232c1:2" vType="default_016" speedFactor="1.00" vaporized=""/>
    <tripinfo id="randUni10474:1" depart="57605.00" departLane="124812856#0_1" departPos="5.10" departSpeed="0.00" departDelay="0.20" arrival="57655.00" arrivalLane="-653473569#5_1" arrivalPos="73.05" arrivalSpeed="14.61" duration="50.00" routeLength="450.40" waitingTime="9.00" waitingCount="1" stopTime="0.00" timeLoss="18.71" rerouteNo="1" devices="tripinfo_randUni10474:1 routing_randUni10474:1" vType="random_016" speedFactor="1.09" vaporized=""/>
    <tripinfo id="carIn81046:1" depart="57611.00" departLane="124812856#0_1" departPos="5.10" departSpeed="0.00" departDelay="2.50" arrival="57658.00" arrivalLane="-653473569#5_1" arrivalPos="73.05" arrivalSpeed="14.20" duration="47.00" routeLength="450.40" waitingTime="5.00" waitingCount="1" stopTime="0.00" timeLoss="14.52" rerouteNo="1" devices="tripinfo_carIn81046:1 routing_carIn81046:1" vType="default_016" speedFactor="1.03" vaporized=""/>
    <tripinfo id="carIn106322:1" depart="57614.00" departLane="653473569#5_1" departPos="5.10" departSpeed="0.00" departDelay="2.20" arrival="57660.00" arrivalLane="201956811#0_1" arrivalPos="40.40" arrivalSpeed="12.94" duration="46.00" routeLength="313.24" waitingTime="7.00" waitingCount="2" stopTime="0.00" timeLoss="20.76" rerouteNo="1" devices="tripinfo_carIn106322:1 routing_carIn106322:1" vType="default_016" speedFactor="0.94" vaporized=""/>
    <tripinfo id="carIn77943:1" depart="57608.00" departLane="124812856#0_1" departPos="5.10" departSpeed="0.00" departDelay="2.50" arrival="57664.00" arrivalLane="-653473569#5_1" arrivalPos="73.05" arrivalSpeed="15.49" duration="56.00" routeLength="450.40" waitingTime="7.00" waitingCount="2" stopTime="0.00" timeLoss="26.19" rerouteNo="1" devices="tripinfo_carIn77943:1 routing_carIn77943:1" vType="default_016" speedFactor="1.14" vaporized=""/>
    <tripinfo id="carIn25202:1" depart="57629.00" departLane="315358253#1_1" departPos="5.10" departSpeed="0.00" departDelay="1.50" arrival="57666.00" arrivalLane="32978638#0_1" arrivalPos="49.29" arrivalSpeed="13.61" duration="37.00" routeLength="405.15" waitingTime="0.00" waitingCount="0" stopTime="0.00" timeLoss="6.45" rerouteNo="1" devices="tripinfo_carIn25202:1 routing_carIn25202:1" vType="default_016" speedFactor="0.99" vaporized=""/>
    <tripinfo id="carIn5482:1" depart="57617.00" departLane="653473569#5_1" departPos="5.10" departSpeed="0.00" departDelay="3.60" arrival="57671.00" arrivalLane="201956811#0_1" arrivalPos="40.40" arrivalSpeed="13.74" duration="54.00" routeLength="313.24" waitingTime="9.00" waitingCount="3" stopTime="0.00" timeLoss="30.27" rerouteNo="1" devices="tripinfo_carIn5482:1 routing_carIn5482:1" vType="default_016" speedFactor="1.01" vaporized=""/>
    <tripinfo id="carIn124416:1" depart="57663.00" departLane="-173169611#0_1" departPos="5.10" departSpeed="0.00" departDelay="0.50" arrival="57678.00" arrivalLane="201956820_1" arrivalPos="48.33" arrivalSpeed="12.97" duration="15.00" routeLength="122.35" waitingTime="0.00" waitingCount="0" stopTime="0.00" timeLoss="5.00" rerouteNo="0" devices="tripinfo_carIn124416:1 routing_carIn124416:1" vType="default_016" speedFactor="1.01" vaporized=""/>
    <tripinfo id="carIn36103:1" depart="57620.00" departLane="653473569#5_1" departPos="5.10" departSpeed="0.00" departDelay="4.00" arrival="57679.00" arrivalLane="201956811#0_1" arrivalPos="40.40" arrivalSpeed="13.21" duration="59.00" routeLength="313.24" waitingTime="12.00" waitingCount="3" stopTime="0.00" timeLoss="36.18" rerouteNo="1" devices="tripinfo_carIn36103:1 routing_carIn36103:1" vType="default_016" speedFactor="1.02" vaporized=""/>
    <tripinfo id="carIn55090:1" depart="57666.00" departLane="-173169611#0_1" departPos="5.10" departSpeed="0.00" departDelay="1.40" arrival="57680.00" arrivalLane="201956820_1" arrivalPos="48.33" arrivalSpeed="14.15" duration="14.00" routeLength="122.35" waitingTime="0.00" waitingCount="0" stopTime="0.00" timeLoss="5.09" rerouteNo="0" devices="tripinfo_carIn55090:1 routing_carIn55090:1" vType="default_016" speedFactor="1.04" vaporized=""/>
    <tripinfo id="h15454c2:3" depart="57612.00" departLane="24608844_1" departPos="5.10" departSpeed="0.00" departDelay="0.50" arrival="57687.00" arrivalLane="32978638#0_1" arrivalPos="49.29" arrivalSpeed="13.85" duration="75.00" routeLength="354.79" waitingTime="31.00" waitingCount="1" stopTime="0.00" timeLoss="42.31" rerouteNo="1" devices="tripinfo_h15454c2:3 routing_h15454c2:3" vType="default_016" speedFactor="1.06" vaporized=""/>
    <tripinfo id="carIn33538:1" depart="57671.00" departLane="37386279_1" departPos="5.10" departSpeed="0.00" departDelay="0.30" arrival="57687.00" arrivalLane="-24634414#4_1" arrivalPos="22.88" arrivalSpeed="6.56" duration="16.00" routeLength="125.23" waitingTime="0.00" waitingCount="0" stopTime="0.00" timeLoss="3.73" rerouteNo="0" devices="tripinfo_carIn33538:1 routing_carIn33538:1" vType="default_016" speedFactor="0.93" vaporized=""/>
    <tripinfo id="carIn102997:1" depart="57623.00" departLane="653473569#5_1" departPos="5.10" departSpeed="0.00" departDelay="4.80" arrival="57691.00" arrivalLane="201956811#0_1" arrivalPos="40.40" arrivalSpeed="12.20" duration="68.00" routeLength="313.24" waitingTime="14.00" waitingCount="4" stopTime="0.00" timeLoss="41.96" rerouteNo="1" devices="tripinfo_carIn102997:1 routing_carIn102997:1" vType="default_016" speedFactor="0.93" vaporized=""/>
    <tripinfo id="carIn75554:1" depart="57626.00" departLane="653473569#5_1" departPos="5.10" departSpeed="0.00" departDelay="5.20" arrival="57694.00" arrivalLane="201956811#0_1" arrivalPos="40.40" arrivalSpeed="12.13" duration="68.00" routeLength="313.24" waitingTime="13.00" waitingCount="4" stopTime="0.00" timeLoss="41.78" rerouteNo="1" devices="tripinfo_carIn75554:1 routing_carIn75554:1" vType="default_016" speedFactor="0.92" vaporized=""/>
    <tripinfo id="randUni20090:1" depart="57629.00" departLane="653473569#5_1" departPos="5.10" departSpeed="0.00" departDelay="1.00" arrival="57695.00" arrivalLane="201956811#0_1" arrivalPos="40.40" arrivalSpeed="13.57" duration="66.00" routeLength="313.24" waitingTime="13.00" waitingCount="4" stopTime="0.00" timeLoss="41.92" rerouteNo="1" devices="tripinfo_randUni20090:1 routing_randUni20090:1" vType="random_016" speedFactor="0.99" vaporized=""/>
    <tripinfo id="carIn96537:1" depart="57615.00" departLane="124812856#0_1" departPos="5.10" departSpeed="0.00" departDelay="3.80" arrival="57699.00" arrivalLane="202070434#2_1" arrivalPos="39.03" arrivalSpeed="12.25" duration="84.00" routeLength="569.75" waitingTime="20.00" waitingCount="2" stopTime="0.00" timeLoss="37.77" rerouteNo="1" devices="tripinfo_carIn96537:1 routing_carIn96537:1" vType="default_016" speedFactor="0.90" vaporized=""/>
    <tripinfo id="h645c1:1" depart="57622.00" departLane="266565295#5_1" departPos="5.10" departSpeed="0.00" departDelay="0.40" arrival="57700.00" arrivalLane="-315358253#1_1" arrivalPos="63.90" arrivalSpeed="13.20" duration="78.00" routeLength="547.76" waitingTime="26.00" waitingCount="1" stopTime="0.00" timeLoss="38.63" rerouteNo="1" devices="tripinfo_h645c1:1 routing_h645c1:1" vType="default_016" speedFactor="1.04" vaporized=""/>
    <tripinfo id="carIn28951:1" depart="57606.00" departLane="10425609#0_1" departPos="5.10" departSpeed="0.00" departDelay="0.20" arrival="57705.00" arrivalLane="-653473569#5_1" arrivalPos="73.05" arrivalSpeed="13.02" duration="99.00" routeLength="312.95" waitingTime="59.00" waitingCount="2" stopTime="0.00" timeLoss="73.74" rerouteNo="1" devices="tripinfo_carIn28951:1 routing_carIn28951:1" vType="default_016" speedFactor="0.97" vaporized=""/>
    <tripinfo id="carIn37268:1" depart="57636.00" departLane="653473569#5_1" departPos="5.10" departSpeed="0.00" departDelay="0.90" arrival="57712.00" arrivalLane="201956811#0_1" arrivalPos="40.40" arrivalSpeed="13.68" duration="76.00" routeLength="313.24" waitingTime="19.00" waitingCount="4" stopTime="0.00" timeLoss="52.19" rerouteNo="1" devices="tripinfo_carIn37268:1 routing_carIn37268:1" vType="default_016" speedFactor="1.01" vaporized=""/>
    <tripinfo id="carIn129760:1" depart="57661.00" departLane="653473569#5_1" departPos="5.10" departSpeed="0.00" departDelay="0.80" arrival="57714.00" arrivalLane="201956811#0_1" arrivalPos="40.40" arrivalSpeed="14.11" duration="53.00" routeLength="313.24" waitingTime="9.00" waitingCount="2" stopTime="0.00" timeLoss="29.48" rerouteNo="1" devices="tripinfo_carIn129760:1 routing_carIn129760:1" vType="default_016" speedFactor="1.05" vaporized=""/>
    <tripinfo id="carIn12152:1" depart="57647.00" departLane="24599188#0.94_1" departPos="5.10" departSpeed="0.00" departDelay="0.50" arrival="57716.00" arrivalLane="24693977#1_1" arrivalPos="96.83" arrivalSpeed="13.07" duration="69.00" routeLength="511.77" waitingTime="7.00" waitingCount="1" stopTime="0.00" timeLoss="18.66" rerouteNo="1" devices="tripinfo_carIn12152:1 routing_carIn12152:1" vType="default_016" speedFactor="0.96" vaporized=""/>
    <tripinfo id="carIn129626:1" depart="57664.00" departLane="653473569#5_1" departPos="5.10" departSpeed="0.00" departDelay="1.60" arrival="57717.00" arrivalLane="201956811#0_1" arrivalPos="40.40" arrivalSpeed="12.71" duration="53.00" routeLength="313.24" waitingTime="7.00" waitingCount="1" stopTime="0.00" timeLoss="29.62" rerouteNo="1" devices="tripinfo_carIn129626:1 routing_carIn129626:1" vType="default_016" speedFactor="1.00" vaporized=""/>
    <tripinfo id="h20539c1:3" depart="57667.00" departLane="653473569#5_1" departPos="5.10" departSpeed="0.00" departDelay="2.20" arrival="57719.00" arrivalLane="201956811#0_1" arrivalPos="40.40" arrivalSpeed="11.93" duration="52.00" routeLength="313.24" waitingTime="4.00" waitingCount="1" stopTime="0.00" timeLoss="25.64" rerouteNo="1" devices="tripinfo_h20539c1:3 routing_h20539c1:3" vType="default_016" speedFactor="0.90" vaporized=""/>
    <tripinfo id="h20540c1:1" depart="57634.00" departLane="10425609#0_1" departPos="5.10" departSpeed="0.00" departDelay="0.50" arrival="57725.00" arrivalLane="-653473569#5_1" arrivalPos="73.05" arrivalSpeed="11.74" duration="91.00" routeLength="312.95" waitingTime="48.00" waitingCount="3" stopTime="0.00" timeLoss="64.86" rerouteNo="1" devices="tripinfo_h20540c1:1 routing_h20540c1:1" vType="default_016" speedFactor="0.94" vaporized=""/>
    <tripinfo id="h3688c1:1" depart="57679.00" departLane="315358253#1_1" departPos="5.10" departSpeed="0.00" departDelay="0.50" arrival="57726.00" arrivalLane="32978638#0_1" arrivalPos="49.29" arrivalSpeed="9.83" duration="47.00" routeLength="405.15" waitingTime="0.00" waitingCount="0" stopTime="0.00" timeLoss="5.86" rerouteNo="1" devices="tripinfo_h3688c1:1 routing_h3688c1:1" vType="default_016" speedFactor="0.75" vaporized=""/>
    <tripinfo id="carIn91254:1" depart="57696.00" departLane="653473569#5_1" departPos="5.10" departSpeed="0.00" departDelay="0.10" arrival="57732.00" arrivalLane="201956811#0_1" arrivalPos="40.40" arrivalSpeed="13.43" duration="36.00" routeLength="313.24" waitingTime="0.00" waitingCount="0" stopTime="0.00" timeLoss="12.91" rerouteNo="1" devices="tripinfo_carIn91254:1 routing_carIn91254:1" vType="default_016" speedFactor="1.05" vaporized=""/>
    <tripinfo id="h317c2:1" depart="57707.00" departLane="-32978638#0_1" departPos="5.10" departSpeed="0.00" departDelay="0.10" arrival="57740.00" arrivalLane="-266565295#5_1" arrivalPos="172.76" arrivalSpeed="13.64" duration="33.00" routeLength="370.53" waitingTime="0.00" waitingCount="0" stopTime="0.00" timeLoss="5.20" rerouteNo="1" devices="tripinfo_h317c2:1 routing_h317c2:1" vType="default_016" speedFactor="1.01" vaporized=""/>
    <tripinfo id="carIn114137:1" depart="57633.00" departLane="27920078#0_1" departPos="5.10" departSpeed="0.00" departDelay="2.10" arrival="57742.00" arrivalLane="-83304175#2_1" arrivalPos="189.34" arrivalSpeed="7.80" duration="109.00" routeLength="501.51" waitingTime="46.00" waitingCount="1" stopTime="0.00" timeLoss="64.04" rerouteNo="1" devices="tripinfo_carIn114137:1 routing_carIn114137:1" vType="default_016" speedFactor="1.06" vaporized=""/>
    <tripinfo id="h10915c2:1" depart="57626.00" departLane="315358253#1_1" departPos="5.10" departSpeed="0.00" departDelay="0.20" arrival="57745.00" arrivalLane="-653473569#5_1" arrivalPos="73.05" arrivalSpeed="14.33" duration="119.00" routeLength="970.09" waitingTime="23.00" waitingCount="3" stopTime="0.00" timeLoss="51.20" rerouteNo="1" devices="tripinfo_h10915c2:1 routing_h10915c2:1" vType="default_016" speedFactor="1.05" vaporized=""/>
    <tripinfo id="randUni5403:1" depart="57632.00" departLane="315358253#1_1" departPos="5.10" departSpeed="0.00" departDelay="2.90" arrival="57748.00" arrivalLane="-653473569#5_1" arrivalPos="73.05" arrivalSpeed="12.48" duration="116.00" routeLength="970.09" waitingTime="17.00" waitingCount="2" stopTime="0.00" timeLoss="40.63" rerouteNo="1" devices="tripinfo_randUni5403:1 routing_randUni5403:1" vType="random_016" speedFactor="0.94" vaporized=""/>
    <tripinfo id="carIn22637:1" depart="57634.00" departLane="27920078#0_1" departPos="5.10" departSpeed="0.00" departDelay="1.50" arrival="57748.00" arrivalLane="-83304175#2_1" arrivalPos="189.34" arrivalSpeed="7.48" duration="114.00" routeLength="501.51" waitingTime="46.00" waitingCount="2" stopTime="0.00" timeLoss="63.30" rerouteNo="1" devices="tripinfo_carIn22637:1 routing_carIn22637:1" vType="default_016" speedFactor="0.94" vaporized=""/>
    <tripinfo id="carIn26407:1" depart="57673.00" departLane="25145012#7_1" departPos="5.10" departSpeed="0.00" departDelay="0.50" arrival="57755.00" arrivalLane="201956811#0_1" arrivalPos="40.40" arrivalSpeed="13.36" duration="82.00" routeLength="384.54" waitingTime="32.00" waitingCount="2" stopTime="0.00" timeLoss="52.76" rerouteNo="1" devices="tripinfo_carIn26407:1 routing_carIn26407:1" vType="default_016" speedFactor="0.98" vaporized=""/>
    <tripinfo id="randUni22709:1" depart="57718.00" departLane="315358253#1_1" departPos="5.10" departSpeed="0.00" departDelay="0.20" arrival="57758.00" arrivalLane="32978638#0_1" arrivalPos="49.29" arrivalSpeed="12.40" duration="40.00" routeLength="405.15" waitingTime="0.00" waitingCount="0" stopTime="0.00" timeLoss="6.79" rerouteNo="1" devices="tripinfo_randUni22709:1 routing_randUni22709:1" vType="random_016" speedFactor="0.92" vaporized=""/>
    <tripinfo id="60R.41" depart="57623.00" departLane="27920078#0_1" departPos="12.10" departSpeed="0.00" departDelay="0.30" arrival="57761.00" arrivalLane="201956811#0_1" arrivalPos="40.40" arrivalSpeed="10.66" duration="138.00" routeLength="421.61" waitingTime="76.00" waitingCount="1" stopTime="0.00" timeLoss="106.80" rerouteNo="1" devices="tripinfo_60R.41 routing_60R.41" vType="bus" speedFactor="1.00" vaporized=""/>
    <tripinfo id="carIn99509:1" depart="57720.00" departLane="-32978638#0_1" departPos="5.10" departSpeed="0.00" departDelay="0.20" arrival="57761.00" arrivalLane="-315358253#1_1" arrivalPos="63.90" arrivalSpeed="11.75" duration="41.00" routeLength="422.17" waitingTime="0.00" waitingCount="0" stopTime="0.00" timeLoss="5.84" rerouteNo="1" devices="tripinfo_carIn99509:1 routing_carIn99509:1" vType="default_015" speedFactor="0.92" vaporized=""/>
    <tripinfo id="carIn75079:1" depart="57747.00" departLane="-173169611#0_1" departPos="5.10" departSpeed="0.00" departDelay="0.60" arrival="57761.00" arrivalLane="201956820_1" arrivalPos="48.33" arrivalSpeed="15.74" duration="14.00" routeLength="122.35" waitingTime="0.00" waitingCount="0" stopTime="0.00" timeLoss="6.27" rerouteNo="0" devices="tripinfo_carIn75079:1 routing_carIn75079:1" vType="default_016" speedFactor="1.32" vaporized=""/>
    <tripinfo id="h2215c1:1" depart="57657.00" departLane="25145012#7_1" departPos="5.10" departSpeed="0.00" departDelay="0.90" arrival="57763.00" arrivalLane="201956811#0_1" arrivalPos="40.40" arrivalSpeed="12.96" duration="106.00" routeLength="384.54" waitingTime="47.00" waitingCount="1" stopTime="0.00" timeLoss="78.72" rerouteNo="1" devices="tripinfo_h2215c1:1 routing_h2215c1:1" vType="default_016" speedFactor="1.05" vaporized=""/>
    <tripinfo id="h134c1:3" depart="57721.00" departLane="315358253#1_1" departPos="5.10" departSpeed="0.00" departDelay="1.60" arrival="57763.00" arrivalLane="32978638#0_1" arrivalPos="49.29" arrivalSpeed="11.33" duration="42.00" routeLength="405.15" waitingTime="0.00" waitingCount="0" stopTime="0.00" timeLoss="6.66" rerouteNo="1" devices="tripinfo_h134c1:3 routing_h134c1:3" vType="default_016" speedFactor="0.86" vaporized=""/>
    <tripinfo id="carIn74045:1" depart="57724.00" departLane="315358253#1_1" departPos="5.10" departSpeed="0.00" departDelay="3.00" arrival="57763.00" arrivalLane="32978638#0_2" arrivalPos="49.29" arrivalSpeed="13.67" duration="39.00" routeLength="409.47" waitingTime="0.00" waitingCount="0" stopTime="0.00" timeLoss="10.39" rerouteNo="1" devices="tripinfo_carIn74045:1 routing_carIn74045:1" vType="default_016" speedFactor="1.08" vaporized=""/>
    <tripinfo id="carIn73466:1" depart="57642.00" departLane="27920078#0_1" departPos="5.10" departSpeed="0.00" departDelay="5.10" arrival="57765.00" arrivalLane="201956811#0_1" arrivalPos="40.40" arrivalSpeed="13.81" duration="123.00" routeLength="428.61" waitingTime="56.00" waitingCount="3" stopTime="0.00" timeLoss="93.55" rerouteNo="1" devices="tripinfo_carIn73466:1 routing_carIn73466:1" vType="default_016" speedFactor="1.07" vaporized=""/>
    <tripinfo id="carIn12775:1" depart="57676.00" departLane="10425609#0_1" departPos="5.10" departSpeed="0.00" departDelay="0.60" arrival="57765.00" arrivalLane="-653473569#5_1" arrivalPos="73.05" arrivalSpeed="12.93" duration="89.00" routeLength="312.95" waitingTime="44.00" waitingCount="3" stopTime="0.00" timeLoss="63.43" rerouteNo="1" devices="tripinfo_carIn12775:1 routing_carIn12775:1" vType="default_016" speedFactor="0.96" vaporized=""/>
    <tripinfo id="carIn78692:1" depart="57694.00" departLane="25145012#7_1" departPos="5.10" departSpeed="0.00" departDelay="0.50" arrival="57767.00" arrivalLane="201956811#0_1" arrivalPos="40.40" arrivalSpeed="12.55" duration="73.00" routeLength="384.54" waitingTime="16.00" waitingCount="1" stopTime="0.00" timeLoss="43.26" rerouteNo="1" devices="tripinfo_carIn78692:1 routing_carIn78692:1" vType="default_016" speedFactor="0.99" vaporized=""/>
    <tripinfo id="h330c1:1" depart="57736.00" departLane="-32978638#0_1" departPos="5.10" departSpeed="0.00" departDelay="0.20" arrival="57768.00" arrivalLane="-266565295#5_1" arrivalPos="172.76" arrivalSpeed="14.87" duration="32.00" routeLength="370.53" waitingTime="0.00" waitingCount="0" stopTime="0.00" timeLoss="6.01" rerouteNo="1" devices="tripinfo_h330c1:1 routing_h330c1:1" vType="default_016" speedFactor="1.07" vaporized=""/>
    <tripinfo id="carIn106797:1" depart="57726.00" departLane="653473569#5_1" departPos="5.10" departSpeed="0.00" departDelay="1.00" arrival="57769.00" arrivalLane="201956811#0_1" arrivalPos="40.40" arrivalSpeed="12.41" duration="43.00" routeLength="313.24" waitingTime="0.00" waitingCount="0" stopTime="0.00" timeLoss="17.86" rerouteNo="1" devices="tripinfo_carIn106797:1 routing_carIn106797:1" vType="default_016" speedFactor="0.95" vaporized=""/>
    <tripinfo id="carIn77438:1" depart="57618.00" departLane="124812856#0_1" departPos="5.10" departSpeed="0.00" departDelay="5.10" arrival="57770.00" arrivalLane="-653473569#5_1" arrivalPos="73.05" arrivalSpeed="12.82" duration="152.00" routeLength="450.40" waitingTime="102.00" waitingCount="1" stopTime="0.00" timeLoss="117.37" rerouteNo="1" devices="tripinfo_carIn77438:1 routing_carIn77438:1" vType="default_016" speedFactor="0.97" vaporized=""/>
    <tripinfo id="h19804c1:3" depart="57623.00" departLane="124812856#0_1" departPos="5.10" departSpeed="0.00" departDelay="7.50" arrival="57772.00" arrivalLane="-653473569#5_1" arrivalPos="73.05" arrivalSpeed="14.67" duration="149.00" routeLength="450.40" waitingTime="102.00" waitingCount="1" stopTime="0.00" timeLoss="117.92" rerouteNo="1" devices="tripinfo_h19804c1:3 routing_h19804c1:3" vType="default_016" speedFactor="1.09" vaporized=""/>
    <tripinfo id="carIn124270:1" depart="57728.00" departLane="25145012#7_1" departPos="5.10" departSpeed="0.00" departDelay="0.60" arrival="57772.00" arrivalLane="201956811#0_1" arrivalPos="40.40" arrivalSpeed="11.97" duration="44.00" routeLength="384.54" waitingTime="0.00" waitingCount="0" stopTime="0.00" timeLoss="12.11" rerouteNo="1" devices="tripinfo_carIn124270:1 routing_carIn124270:1" vType="default_016" speedFactor="0.91" vaporized=""/>
    <tripinfo id="carIn96193:1" depart="57705.00" departLane="25145012#7_1" departPos="5.10" departSpeed="0.00" departDelay="0.60" arrival="57774.00" arrivalLane="201956811#0_1" arrivalPos="40.40" arrivalSpeed="14.50" duration="69.00" routeLength="384.54" waitingTime="16.00" waitingCount="2" stopTime="0.00" timeLoss="42.11" rerouteNo="1" devices="tripinfo_carIn96193:1 routing_carIn96193:1" vType="default_016" speedFactor="1.08" vaporized=""/>
    <tripinfo id="carIn13016:1" depart="57740.00" departLane="653473569#5_1" departPos="5.10" departSpeed="0.00" departDelay="4.50" arrival="57778.00" arrivalLane="201956811#0_1" arrivalPos="40.40" arrivalSpeed="11.88" duration="38.00" routeLength="313.24" waitingTime="0.00" waitingCount="0" stopTime="0.00" timeLoss="11.05" rerouteNo="1" devices="tripinfo_carIn13016:1 routing_carIn13016:1" vType="default_016" speedFactor="0.90" vaporized=""/>
    <tripinfo id="carIn102740:1" depart="57667.00" departLane="25145012#7_1" departPos="5.10" departSpeed="0.00" departDelay="0.00" arrival="57780.00" arrivalLane="201956811#0_1" arrivalPos="40.40" arrivalSpeed="13.47" duration="113.00" routeLength="384.54" waitingTime="41.00" waitingCount="4" stopTime="0.00" timeLoss="84.15" rerouteNo="1" devices="tripinfo_carIn102740:1 routing_carIn102740:1" vType="default_016" speedFactor="1.02" vaporized=""/>
    <tripinfo id="11_frequency1.42" depart="57739.00" departLane="315358253#1_1" departPos="12.10" departSpeed="0.00" departDelay="0.30" arrival="57781.00" arrivalLane="32978638#0_1" arrivalPos="49.29" arrivalSpeed="13.52" duration="42.00" routeLength="398.15" waitingTime="0.00" waitingCount="0" stopTime="0.00" timeLoss="11.88" rerouteNo="1" devices="tripinfo_11_frequency1.42 routing_11_frequency1.42" vType="bus" speedFactor="1.00" vaporized=""/>
    <tripinfo id="carIn70477:1" depart="57743.00" departLane="653473569#5_1" departPos="5.10" departSpeed="0.00" departDelay="5.20" arrival="57783.00" arrivalLane="201956811#0_1" arrivalPos="40.40" arrivalSpeed="10.47" duration="40.00" routeLength="313.24" waitingTime="1.00" waitingCount="1" stopTime="0.00" timeLoss="11.38" rerouteNo="1" devices="tripinfo_carIn70477:1 routing_carIn70477:1" vType="default_016" speedFactor="0.84" vaporized=""/>
    <tripinfo id="carIn98605:1" depart="57743.00" departLane="315358253#1_1" departPos="5.10" departSpeed="0.00" departDelay="2.20" arrival="57784.00" arrivalLane="32978638#0_1" arrivalPos="49.29" arrivalSpeed="13.56" duration="41.00" routeLength="405.15" waitingTime="0.00" waitingCount="0" stopTime="0.00" timeLoss="9.84" rerouteNo="1" devices="tripinfo_carIn98605:1 routing_carIn98605:1" vType="default_016" speedFactor="1.00" vaporized=""/>
    <tripinfo id="carIn26708:1" depart="57729.00" departLane="653473569#5_1" departPos="5.10" departSpeed="0.00" departDelay="2.40" arrival="57785.00" arrivalLane="201956811#0_1" arrivalPos="40.40" arrivalSpeed="12.72" duration="56.00" routeLength="313.24" waitingTime="0.00" waitingCount="0" stopTime="0.00" timeLoss="31.79" rerouteNo="1" devices="tripinfo_carIn26708:1 routing_carIn26708:1" vType="default_016" speedFactor="0.99" vaporized=""/>
    <tripinfo id="h319c1:3" depart="57747.00" departLane="315358253#1_1" departPos="5.10" departSpeed="0.00" departDelay="4.70" arrival="57785.00" arrivalLane="32978638#0_1" arrivalPos="49.29" arrivalSpeed="14.98" duration="38.00" routeLength="405.15" waitingTime="0.00" waitingCount="0" stopTime="0.00" timeLoss="10.32" rerouteNo="1" devices="tripinfo_h319c1:3 routing_h319c1:3" vType="default_016" speedFactor="1.11" vaporized=""/>
    <tripinfo id="carIn34550:1" depart="57734.00" departLane="653473569#5_1" departPos="5.10" departSpeed="0.00" departDelay="3.60" arrival="57787.00" arrivalLane="201956811#0_1" arrivalPos="40.40" arrivalSpeed="16.20" duration="53.00" routeLength="313.24" waitingTime="0.00" waitingCount="0" stopTime="0.00" timeLoss="32.33" rerouteNo="1" devices="tripinfo_carIn34550:1 routing_carIn34550:1" vType="default_016" speedFactor="1.18" vaporized=""/>
    <tripinfo id="carIn35345:1" depart="57670.00" departLane="25145012#7_1" departPos="5.10" departSpeed="0.00" departDelay="1.40" arrival="57789.00" arrivalLane="201956811#0_1" arrivalPos="40.40" arrivalSpeed="12.14" duration="119.00" routeLength="384.54" waitingTime="37.00" waitingCount="1" stopTime="0.00" timeLoss="88.78" rerouteNo="1" devices="tripinfo_carIn35345:1 routing_carIn35345:1" vType="default_016" speedFactor="0.96" vaporized=""/>
    <tripinfo id="carIn107250:1" depart="57753.00" departLane="315358253#1_1" departPos="5.10" departSpeed="0.00" departDelay="7.70" arrival="57790.00" arrivalLane="32978638#0_1" arrivalPos="49.29" arrivalSpeed="13.02" duration="37.00" routeLength="405.15" waitingTime="0.00" waitingCount="0" stopTime="0.00" timeLoss="6.84" rerouteNo="1" devices="tripinfo_carIn107250:1 routing_carIn107250:1" vType="default_016" speedFactor="1.03" vaporized=""/>
    <tripinfo id="carIn41791:1" depart="57737.00" departLane="653473569#5_1" departPos="5.10" departSpeed="0.00" departDelay="4.80" arrival="57792.00" arrivalLane="201956811#0_1" arrivalPos="40.40" arrivalSpeed="13.43" duration="55.00" routeLength="313.24" waitingTime="0.00" waitingCount="0" stopTime="0.00" timeLoss="31.56" rerouteNo="1" devices="tripinfo_carIn41791:1 routing_carIn41791:1" vType="default_016" speedFactor="1.00" vaporized=""/>
    <tripinfo id="randUni27349:1" depart="57636.00" departLane="27920078#0_1" departPos="5.10" departSpeed="0.00" departDelay="2.10" arrival="57795.00" arrivalLane="201956811#0_1" arrivalPos="40.40" arrivalSpeed="12.23" duration="159.00" routeLength="432.03" waitingTime="68.00" waitingCount="2" stopTime="0.00" timeLoss="125.69" rerouteNo="1" devices="tripinfo_randUni27349:1 routing_randUni27349:1" vType="random_016" speedFactor="0.95" vaporized=""/>
    <tripinfo id="h14316c1:3" depart="57759.00" departLane="315358253#1_1" departPos="5.10" departSpeed="0.00" departDelay="10.00" arrival="57795.00" arrivalLane="32978638#0_1" arrivalPos="49.29" arrivalSpeed="12.95" duration="36.00" routeLength="405.15" waitingTime="0.00" waitingCount="0" stopTime="0.00" timeLoss="5.80" rerouteNo="1" devices="tripinfo_h14316c1:3 routing_h14316c1:3" vType="default_016" speedFactor="1.01" vaporized=""/>