<?xml version="1.0" encoding="UTF-8"?>

<!-- generated on 2023-08-31 12:51:33 by Eclipse SUMO libsumo Version 1.18.0
<configuration xmlns:xsi="http://www.w3.org/2001/XMLSchema-instance" xsi:noNamespaceSchemaLocation="http://sumo.dlr.de/xsd/libsumoConfiguration.xsd">

    <input>
        <net-file value="/home/stefan/RESCO/./environments/ingolstadt7/ingolstadt7.net.xml"/>
        <route-files value="/home/stefan/RESCO/./environments/ingolstadt7/ingolstadt7.rou.xml"/>
    </input>

    <output>
        <tripinfo-output value="/home/stefan/results/RAINBOW-tr0-ingolstadt7-7-drq_norm-wait_norm/tripinfo_88.xml"/>
        <tripinfo-output.write-unfinished value="true"/>
    </output>

    <time>
        <begin value="57600"/>
        <end value="61200"/>
    </time>

    <processing>
        <time-to-teleport value="-1"/>
    </processing>

    <report>
        <no-warnings value="True"/>
        <no-step-log value="True"/>
    </report>

    <random_number>
        <random value="true"/>
    </random_number>

</configuration>
-->

<tripinfos xmlns:xsi="http://www.w3.org/2001/XMLSchema-instance" xsi:noNamespaceSchemaLocation="http://sumo.dlr.de/xsd/tripinfo_file.xsd">
    <tripinfo id="carIn89578:1" depart="57614.00" departLane="124812856#0_1" departPos="5.10" departSpeed="0.00" departDelay="3.60" arrival="57630.00" arrivalLane="201956810_1" arrivalPos="71.65" arrivalSpeed="15.22" duration="16.00" routeLength="134.91" waitingTime="0.00" waitingCount="0" stopTime="0.00" timeLoss="6.02" rerouteNo="1" devices="tripinfo_carIn89578:1 routing_carIn89578:1" vType="default_016" speedFactor="1.13" vaporized=""/>
    <tripinfo id="carIn28951:1" depart="57606.00" departLane="10425609#0_1" departPos="5.10" departSpeed="0.00" departDelay="0.20" arrival="57637.00" arrivalLane="-653473569#5_1" arrivalPos="73.05" arrivalSpeed="12.72" duration="31.00" routeLength="312.95" waitingTime="0.00" waitingCount="0" stopTime="0.00" timeLoss="5.67" rerouteNo="1" devices="tripinfo_carIn28951:1 routing_carIn28951:1" vType="default_016" speedFactor="0.95" vaporized=""/>
    <tripinfo id="h20540c1:1" depart="57634.00" departLane="10425609#0_1" departPos="5.10" departSpeed="0.00" departDelay="0.50" arrival="57665.00" arrivalLane="-653473569#5_1" arrivalPos="73.05" arrivalSpeed="12.82" duration="31.00" routeLength="312.95" waitingTime="0.00" waitingCount="0" stopTime="0.00" timeLoss="6.04" rerouteNo="1" devices="tripinfo_h20540c1:1 routing_h20540c1:1" vType="default_016" speedFactor="0.95" vaporized=""/>
    <tripinfo id="carIn25202:1" depart="57629.00" departLane="315358253#1_1" departPos="5.10" departSpeed="0.00" departDelay="1.50" arrival="57668.00" arrivalLane="32978638#0_1" arrivalPos="49.29" arrivalSpeed="11.76" duration="39.00" routeLength="405.15" waitingTime="0.00" waitingCount="0" stopTime="0.00" timeLoss="6.19" rerouteNo="1" devices="tripinfo_carIn25202:1 routing_carIn25202:1" vType="default_016" speedFactor="0.93" vaporized=""/>
    <tripinfo id="carIn925:1" depart="57654.00" departLane="124812856#0_1" departPos="5.10" departSpeed="0.00" departDelay="27.90" arrival="57670.00" arrivalLane="201956810_1" arrivalPos="71.65" arrivalSpeed="14.17" duration="16.00" routeLength="134.91" waitingTime="0.00" waitingCount="0" stopTime="0.00" timeLoss="5.19" rerouteNo="1" devices="tripinfo_carIn925:1 routing_carIn925:1" vType="default_016" speedFactor="1.04" vaporized=""/>
    <tripinfo id="carIn55461:1" depart="57652.00" departLane="10425609#0_1" departPos="5.10" departSpeed="0.00" departDelay="0.30" arrival="57677.00" arrivalLane="201956810_1" arrivalPos="71.65" arrivalSpeed="13.52" duration="25.00" routeLength="255.78" waitingTime="0.00" waitingCount="0" stopTime="0.00" timeLoss="5.48" rerouteNo="1" devices="tripinfo_carIn55461:1 routing_carIn55461:1" vType="default_016" speedFactor="1.00" vaporized=""/>
    <tripinfo id="carIn33538:1" depart="57671.00" departLane="37386279_1" departPos="5.10" departSpeed="0.00" departDelay="0.30" arrival="57686.00" arrivalLane="-24634414#4_1" arrivalPos="22.88" arrivalSpeed="8.08" duration="15.00" routeLength="125.23" waitingTime="0.00" waitingCount="0" stopTime="0.00" timeLoss="4.06" rerouteNo="0" devices="tripinfo_carIn33538:1 routing_carIn33538:1" vType="default_016" speedFactor="1.00" vaporized=""/>
    <tripinfo id="carIn114137:1" depart="57634.00" departLane="27920078#0_1" departPos="5.10" departSpeed="0.00" departDelay="3.10" arrival="57692.00" arrivalLane="-83304175#2_1" arrivalPos="189.34" arrivalSpeed="7.14" duration="58.00" routeLength="501.51" waitingTime="0.00" waitingCount="0" stopTime="0.00" timeLoss="9.87" rerouteNo="1" devices="tripinfo_carIn114137:1 routing_carIn114137:1" vType="default_016" speedFactor="0.99" vaporized=""/>
    <tripinfo id="carIn22637:1" depart="57635.00" departLane="27920078#0_1" departPos="5.10" departSpeed="0.00" departDelay="2.50" arrival="57694.00" arrivalLane="-83304175#2_1" arrivalPos="189.34" arrivalSpeed="9.64" duration="59.00" routeLength="501.51" waitingTime="1.00" waitingCount="1" stopTime="0.00" timeLoss="17.86" rerouteNo="1" devices="tripinfo_carIn22637:1 routing_carIn22637:1" vType="default_016" speedFactor="1.17" vaporized=""/>
    <tripinfo id="carIn131078:1" depart="57679.00" departLane="124812856#0_1" departPos="5.10" departSpeed="0.00" departDelay="43.60" arrival="57695.00" arrivalLane="201956810_1" arrivalPos="71.65" arrivalSpeed="14.18" duration="16.00" routeLength="134.91" waitingTime="0.00" waitingCount="0" stopTime="0.00" timeLoss="5.68" rerouteNo="1" devices="tripinfo_carIn131078:1 routing_carIn131078:1" vType="default_016" speedFactor="1.06" vaporized=""/>
    <tripinfo id="carIn12775:1" depart="57676.00" departLane="10425609#0_1" departPos="5.10" departSpeed="0.00" departDelay="0.60" arrival="57705.00" arrivalLane="-653473569#5_1" arrivalPos="73.05" arrivalSpeed="13.57" duration="29.00" routeLength="312.95" waitingTime="0.00" waitingCount="0" stopTime="0.00" timeLoss="6.39" rerouteNo="1" devices="tripinfo_carIn12775:1 routing_carIn12775:1" vType="default_016" speedFactor="1.06" vaporized=""/>
    <tripinfo id="carIn7887:1" depart="57661.00" departLane="27920078#0_1" departPos="5.10" departSpeed="0.00" departDelay="0.50" arrival="57714.00" arrivalLane="-83304175#2_1" arrivalPos="189.34" arrivalSpeed="7.98" duration="53.00" routeLength="501.51" waitingTime="0.00" waitingCount="0" stopTime="0.00" timeLoss="7.19" rerouteNo="1" devices="tripinfo_carIn7887:1 routing_carIn7887:1" vType="default_016" speedFactor="1.04" vaporized=""/>
    <tripinfo id="h3688c1:1" depart="57679.00" departLane="315358253#1_1" departPos="5.10" departSpeed="0.00" departDelay="0.50" arrival="57716.00" arrivalLane="32978638#0_1" arrivalPos="49.29" arrivalSpeed="13.08" duration="37.00" routeLength="405.15" waitingTime="0.00" waitingCount="0" stopTime="0.00" timeLoss="6.13" rerouteNo="1" devices="tripinfo_h3688c1:1 routing_h3688c1:1" vType="default_016" speedFactor="1.00" vaporized=""/>
    <tripinfo id="carIn12900:1" depart="57698.00" departLane="124812856#0_1" departPos="5.10" departSpeed="0.00" departDelay="49.80" arrival="57725.00" arrivalLane="201956810_1" arrivalPos="71.65" arrivalSpeed="13.27" duration="27.00" routeLength="134.91" waitingTime="6.00" waitingCount="1" stopTime="0.00" timeLoss="15.85" rerouteNo="1" devices="tripinfo_carIn12900:1 routing_carIn12900:1" vType="default_016" speedFactor="0.99" vaporized=""/>
    <tripinfo id="h317c2:1" depart="57707.00" departLane="-32978638#0_1" departPos="5.10" departSpeed="0.00" departDelay="0.10" arrival="57747.00" arrivalLane="-266565295#5_1" arrivalPos="172.76" arrivalSpeed="9.97" duration="40.00" routeLength="370.53" waitingTime="0.00" waitingCount="0" stopTime="0.00" timeLoss="5.57" rerouteNo="1" devices="tripinfo_h317c2:1 routing_h317c2:1" vType="default_016" speedFactor="0.79" vaporized=""/>
    <tripinfo id="randUni22709:1" depart="57718.00" departLane="315358253#1_1" departPos="5.10" departSpeed="0.00" departDelay="0.20" arrival="57752.00" arrivalLane="32978638#0_1" arrivalPos="49.29" arrivalSpeed="15.33" duration="34.00" routeLength="405.15" waitingTime="0.00" waitingCount="0" stopTime="0.00" timeLoss="6.18" rerouteNo="1" devices="tripinfo_randUni22709:1 routing_randUni22709:1" vType="random_016" speedFactor="1.12" vaporized=""/>
    <tripinfo id="h134c1:3" depart="57721.00" departLane="315358253#1_1" departPos="5.10" departSpeed="0.00" departDelay="1.60" arrival="57761.00" arrivalLane="32978638#0_1" arrivalPos="49.29" arrivalSpeed="11.63" duration="40.00" routeLength="405.15" waitingTime="0.00" waitingCount="0" stopTime="0.00" timeLoss="6.88" rerouteNo="1" devices="tripinfo_h134c1:3 routing_h134c1:3" vType="default_016" speedFactor="0.91" vaporized=""/>
    <tripinfo id="carIn99509:1" depart="57720.00" departLane="-32978638#0_1" departPos="5.10" departSpeed="0.00" departDelay="0.20" arrival="57761.00" arrivalLane="-315358253#1_1" arrivalPos="63.90" arrivalSpeed="12.50" duration="41.00" routeLength="422.17" waitingTime="0.00" waitingCount="0" stopTime="0.00" timeLoss="6.74" rerouteNo="1" devices="tripinfo_carIn99509:1 routing_carIn99509:1" vType="default_015" speedFactor="0.93" vaporized=""/>
    <tripinfo id="carIn74045:1" depart="57724.00" departLane="315358253#1_1" departPos="5.10" departSpeed="0.00" departDelay="3.00" arrival="57762.00" arrivalLane="32978638#0_2" arrivalPos="49.29" arrivalSpeed="13.65" duration="38.00" routeLength="409.47" waitingTime="0.00" waitingCount="0" stopTime="0.00" timeLoss="8.30" rerouteNo="1" devices="tripinfo_carIn74045:1 routing_carIn74045:1" vType="default_016" speedFactor="1.03" vaporized=""/>
    <tripinfo id="h19989c1:1" depart="57730.00" departLane="10425609#0_1" departPos="5.10" departSpeed="0.00" departDelay="0.60" arrival="57764.00" arrivalLane="-653473569#5_1" arrivalPos="73.05" arrivalSpeed="13.84" duration="34.00" routeLength="312.95" waitingTime="1.00" waitingCount="1" stopTime="0.00" timeLoss="10.87" rerouteNo="1" devices="tripinfo_h19989c1:1 routing_h19989c1:1" vType="default_016" speedFactor="1.05" vaporized=""/>
    <tripinfo id="carIn92858:1" depart="57733.00" departLane="10425609#0_1" departPos="5.10" departSpeed="0.00" departDelay="0.80" arrival="57767.00" arrivalLane="-653473569#5_1" arrivalPos="73.05" arrivalSpeed="11.05" duration="34.00" routeLength="312.95" waitingTime="0.00" waitingCount="0" stopTime="0.00" timeLoss="6.60" rerouteNo="1" devices="tripinfo_carIn92858:1 routing_carIn92858:1" vType="default_016" speedFactor="0.87" vaporized=""/>
    <tripinfo id="carIn101439:1" depart="57736.00" departLane="10425609#0_1" departPos="5.10" departSpeed="0.00" departDelay="1.70" arrival="57769.00" arrivalLane="-653473569#5_1" arrivalPos="73.05" arrivalSpeed="13.66" duration="33.00" routeLength="312.95" waitingTime="0.00" waitingCount="0" stopTime="0.00" timeLoss="8.37" rerouteNo="1" devices="tripinfo_carIn101439:1 routing_carIn101439:1" vType="default_016" speedFactor="1.00" vaporized=""/>
    <tripinfo id="carIn84229:1" depart="57739.00" departLane="10425609#0_1" departPos="5.10" departSpeed="0.00" departDelay="2.20" arrival="57775.00" arrivalLane="-653473569#5_1" arrivalPos="73.05" arrivalSpeed="11.15" duration="36.00" routeLength="312.95" waitingTime="0.00" waitingCount="0" stopTime="0.00" timeLoss="8.90" rerouteNo="1" devices="tripinfo_carIn84229:1 routing_carIn84229:1" vType="default_016" speedFactor="0.90" vaporized=""/>
    <tripinfo id="h330c1:1" depart="57736.00" departLane="-32978638#0_1" departPos="5.10" departSpeed="0.00" departDelay="0.20" arrival="57777.00" arrivalLane="-266565295#5_1" arrivalPos="172.76" arrivalSpeed="9.64" duration="41.00" routeLength="370.53" waitingTime="0.00" waitingCount="0" stopTime="0.00" timeLoss="5.25" rerouteNo="1" devices="tripinfo_h330c1:1 routing_h330c1:1" vType="default_016" speedFactor="0.76" vaporized=""/>
    <tripinfo id="carIn16842:1" depart="57745.00" departLane="10425609#0_1" departPos="5.10" departSpeed="0.00" departDelay="1.40" arrival="57777.00" arrivalLane="-653473569#5_1" arrivalPos="73.05" arrivalSpeed="15.07" duration="32.00" routeLength="312.95" waitingTime="0.00" waitingCount="0" stopTime="0.00" timeLoss="9.14" rerouteNo="1" devices="tripinfo_carIn16842:1 routing_carIn16842:1" vType="default_016" speedFactor="1.09" vaporized=""/>
    <tripinfo id="11_frequency1.42" depart="57739.00" departLane="315358253#1_1" departPos="12.10" departSpeed="0.00" departDelay="0.30" arrival="57781.00" arrivalLane="32978638#0_1" arrivalPos="49.29" arrivalSpeed="13.57" duration="42.00" routeLength="398.15" waitingTime="0.00" waitingCount="0" stopTime="0.00" timeLoss="11.52" rerouteNo="1" devices="tripinfo_11_frequency1.42 routing_11_frequency1.42" vType="bus" speedFactor="1.00" vaporized=""/>
    <tripinfo id="carIn98605:1" depart="57743.00" departLane="315358253#1_1" departPos="5.10" departSpeed="0.00" departDelay="2.20" arrival="57784.00" arrivalLane="32978638#0_1" arrivalPos="49.29" arrivalSpeed="12.69" duration="41.00" routeLength="405.15" waitingTime="0.00" waitingCount="0" stopTime="0.00" timeLoss="8.70" rerouteNo="1" devices="tripinfo_carIn98605:1 routing_carIn98605:1" vType="default_016" speedFactor="0.95" vaporized=""/>
    <tripinfo id="h21130c2:1" depart="57630.00" departLane="10425609#0_1" departPos="5.10" departSpeed="0.00" departDelay="0.10" arrival="57788.00" arrivalLane="202070434#2_1" arrivalPos="39.03" arrivalSpeed="14.97" duration="158.00" routeLength="432.30" waitingTime="115.00" waitingCount="1" stopTime="0.00" timeLoss="130.02" rerouteNo="1" devices="tripinfo_h21130c2:1 routing_h21130c2:1" vType="default_016" speedFactor="1.16" vaporized=""/>
    <tripinfo id="h319c1:3" depart="57746.00" departLane="315358253#1_1" departPos="5.10" departSpeed="0.00" departDelay="3.70" arrival="57789.00" arrivalLane="32978638#0_1" arrivalPos="49.29" arrivalSpeed="11.51" duration="43.00" routeLength="405.15" waitingTime="0.00" waitingCount="0" stopTime="0.00" timeLoss="7.51" rerouteNo="1" devices="tripinfo_h319c1:3 routing_h319c1:3" vType="default_016" speedFactor="0.86" vaporized=""/>
    <tripinfo id="h21189c1:3" depart="57722.00" departLane="10425609#0_1" departPos="5.10" departSpeed="0.00" departDelay="0.10" arrival="57791.00" arrivalLane="202070434#2_1" arrivalPos="39.03" arrivalSpeed="13.77" duration="69.00" routeLength="432.30" waitingTime="21.00" waitingCount="1" stopTime="0.00" timeLoss="37.12" rerouteNo="1" devices="tripinfo_h21189c1:3 routing_h21189c1:3" vType="default_016" speedFactor="1.01" vaporized=""/>
    <tripinfo id="carIn107250:1" depart="57753.00" departLane="315358253#1_1" departPos="5.10" departSpeed="0.00" departDelay="7.70" arrival="57791.00" arrivalLane="32978638#0_1" arrivalPos="49.29" arrivalSpeed="13.70" duration="38.00" routeLength="405.15" waitingTime="0.00" waitingCount="0" stopTime="0.00" timeLoss="7.14" rerouteNo="1" devices="tripinfo_carIn107250:1 routing_carIn107250:1" vType="default_016" speedFactor="1.00" vaporized=""/>
    <tripinfo id="60.39" depart="57643.00" departLane="10425609#0_1" departPos="12.10" departSpeed="0.00" departDelay="0.50" arrival="57794.00" arrivalLane="202070434#2_2" arrivalPos="39.03" arrivalSpeed="13.53" duration="151.00" routeLength="425.30" waitingTime="95.00" waitingCount="1" stopTime="0.00" timeLoss="118.52" rerouteNo="1" devices="tripinfo_60.39 routing_60.39" vType="bus" speedFactor="1.00" vaporized=""/>
    <tripinfo id="h14316c1:3" depart="57759.00" departLane="315358253#1_1" departPos="5.10" departSpeed="0.00" departDelay="10.00" arrival="57795.00" arrivalLane="32978638#0_1" arrivalPos="49.29" arrivalSpeed="13.13" duration="36.00" routeLength="405.15" waitingTime="0.00" waitingCount="0" stopTime="0.00" timeLoss="6.25" rerouteNo="1" devices="tripinfo_h14316c1:3 routing_h14316c1:3" vType="default_016" speedFactor="1.02" vaporized=""/>
    <tripinfo id="carIn117869:1" depart="57758.00" departLane="-32978638#0_1" departPos="5.10" departSpeed="0.00" departDelay="0.60" arrival="57798.00" arrivalLane="-315358253#1_1" arrivalPos="63.90" arrivalSpeed="12.55" duration="40.00" routeLength="422.17" waitingTime="0.00" waitingCount="0" stopTime="0.00" timeLoss="6.58" rerouteNo="1" devices="tripinfo_carIn117869:1 routing_carIn117869:1" vType="default_016" speedFactor="0.94" vaporized=""/>
    <tripinfo id="carIn7365:1" depart="57742.00" departLane="10425609#0_1" departPos="5.10" departSpeed="0.00" departDelay="0.70" arrival="57800.00" arrivalLane="202070434#2_2" arrivalPos="39.03" arrivalSpeed="12.42" duration="58.00" routeLength="432.30" waitingTime="6.00" waitingCount="2" stopTime="0.00" timeLoss="23.97" rerouteNo="1" devices="tripinfo_carIn7365:1 routing_carIn7365:1" vType="default_016" speedFactor="0.94" vaporized=""/>
    <tripinfo id="carIn7631:1" depart="57786.00" departLane="-32978638#0_1" departPos="5.10" departSpeed="0.00" departDelay="0.70" arrival="57823.00" arrivalLane="-315358253#1_1" arrivalPos="63.90" arrivalSpeed="13.18" duration="37.00" routeLength="422.17" waitingTime="0.00" waitingCount="0" stopTime="0.00" timeLoss="5.84" rerouteNo="1" devices="tripinfo_carIn7631:1 routing_carIn7631:1" vType="default_016" speedFactor="1.01" vaporized=""/>
    <tripinfo id="h19105c2:3" depart="57795.00" departLane="10425609#0_1" departPos="5.10" departSpeed="0.00" departDelay="0.60" arrival="57826.00" arrivalLane="-653473569#5_1" arrivalPos="73.05" arrivalSpeed="13.18" duration="31.00" routeLength="312.95" waitingTime="0.00" waitingCount="0" stopTime="0.00" timeLoss="5.60" rerouteNo="1" devices="tripinfo_h19105c2:3 routing_h19105c2:3" vType="default_016" speedFactor="0.95" vaporized=""/>
    <tripinfo id="carIn46110:1" depart="57804.00" departLane="315358253#1_1" departPos="5.10" departSpeed="0.00" departDelay="0.40" arrival="57842.00" arrivalLane="32978638#0_1" arrivalPos="49.29" arrivalSpeed="12.74" duration="38.00" routeLength="405.15" waitingTime="0.00" waitingCount="0" stopTime="0.00" timeLoss="6.01" rerouteNo="1" devices="tripinfo_carIn46110:1 routing_carIn46110:1" vType="default_016" speedFactor="0.96" vaporized=""/>
    <tripinfo id="h6541c1:3" depart="57807.00" departLane="315358253#1_1" departPos="5.10" departSpeed="0.00" departDelay="0.60" arrival="57842.00" arrivalLane="32978638#0_2" arrivalPos="49.29" arrivalSpeed="16.50" duration="35.00" routeLength="409.47" waitingTime="0.00" waitingCount="0" stopTime="0.00" timeLoss="9.33" rerouteNo="1" devices="tripinfo_h6541c1:3 routing_h6541c1:3" vType="default_016" speedFactor="1.21" vaporized=""/>
    <tripinfo id="randUni31145:1" depart="57814.00" departLane="10425609#0_1" departPos="5.10" departSpeed="0.00" departDelay="0.30" arrival="57842.00" arrivalLane="201956810_1" arrivalPos="71.65" arrivalSpeed="11.49" duration="28.00" routeLength="255.78" waitingTime="0.00" waitingCount="0" stopTime="0.00" timeLoss="5.98" rerouteNo="1" devices="tripinfo_randUni31145:1 routing_randUni31145:1" vType="random_016" speedFactor="0.89" vaporized=""/>
    <tripinfo id="randUni2407:1" depart="57820.00" departLane="10425609#0_1" departPos="5.10" departSpeed="0.00" departDelay="0.80" arrival="57850.00" arrivalLane="201956810_1" arrivalPos="71.65" arrivalSpeed="10.95" duration="30.00" routeLength="255.78" waitingTime="0.00" waitingCount="0" stopTime="0.00" timeLoss="6.24" rerouteNo="1" devices="tripinfo_randUni2407:1 routing_randUni2407:1" vType="random_016" speedFactor="0.83" vaporized=""/>
    <tripinfo id="carIn114105:1" depart="57821.00" departLane="10425609#0_1" departPos="5.10" departSpeed="0.00" departDelay="0.20" arrival="57854.00" arrivalLane="-653473569#5_1" arrivalPos="73.05" arrivalSpeed="13.29" duration="33.00" routeLength="312.95" waitingTime="0.00" waitingCount="0" stopTime="0.00" timeLoss="8.86" rerouteNo="1" devices="tripinfo_carIn114105:1 routing_carIn114105:1" vType="default_016" speedFactor="1.00" vaporized=""/>
    <tripinfo id="carIn9810:1" depart="57820.00" departLane="315358253#1_1" departPos="5.10" departSpeed="0.00" departDelay="0.80" arrival="57859.00" arrivalLane="32978638#0_1" arrivalPos="49.29" arrivalSpeed="12.91" duration="39.00" routeLength="405.15" waitingTime="0.00" waitingCount="0" stopTime="0.00" timeLoss="7.10" rerouteNo="1" devices="tripinfo_carIn9810:1 routing_carIn9810:1" vType="default_016" speedFactor="0.97" vaporized=""/>
    <tripinfo id="carIn72316:1" depart="57826.00" departLane="10425609#0_1" departPos="5.10" departSpeed="0.00" departDelay="0.50" arrival="57859.00" arrivalLane="-653473569#5_1" arrivalPos="73.05" arrivalSpeed="11.62" duration="33.00" routeLength="312.95" waitingTime="0.00" waitingCount="0" stopTime="0.00" timeLoss="6.85" rerouteNo="1" devices="tripinfo_carIn72316:1 routing_carIn72316:1" vType="default_016" speedFactor="0.93" vaporized=""/>
    <tripinfo id="h3536c1:1" depart="57836.00" departLane="315358253#1_1" departPos="5.10" departSpeed="0.00" departDelay="0.80" arrival="57872.00" arrivalLane="32978638#0_1" arrivalPos="49.29" arrivalSpeed="13.86" duration="36.00" routeLength="405.15" waitingTime="0.00" waitingCount="0" stopTime="0.00" timeLoss="6.81" rerouteNo="1" devices="tripinfo_h3536c1:1 routing_h3536c1:1" vType="default_016" speedFactor="1.07" vaporized=""/>
    <tripinfo id="carIn82399:1" depart="57829.00" departLane="10425609#0_1" departPos="5.10" departSpeed="0.00" departDelay="1.70" arrival="57876.00" arrivalLane="202070434#2_1" arrivalPos="39.03" arrivalSpeed="13.47" duration="47.00" routeLength="432.30" waitingTime="2.00" waitingCount="1" stopTime="0.00" timeLoss="15.62" rerouteNo="1" devices="tripinfo_carIn82399:1 routing_carIn82399:1" vType="default_016" speedFactor="1.03" vaporized=""/>
    <tripinfo id="randUni6170:1" depart="57835.00" departLane="10425609#0_1" departPos="5.10" departSpeed="0.00" departDelay="0.20" arrival="57880.00" arrivalLane="202070434#2_1" arrivalPos="39.03" arrivalSpeed="13.78" duration="45.00" routeLength="432.30" waitingTime="0.00" waitingCount="0" stopTime="0.00" timeLoss="13.10" rerouteNo="1" devices="tripinfo_randUni6170:1 routing_randUni6170:1" vType="random_016" speedFactor="1.01" vaporized=""/>
    <tripinfo id="carIn64958:1" depart="57857.00" departLane="10425609#0_1" departPos="5.10" departSpeed="0.00" departDelay="0.60" arrival="57884.00" arrivalLane="-653473569#5_1" arrivalPos="73.05" arrivalSpeed="15.12" duration="27.00" routeLength="312.95" waitingTime="0.00" waitingCount="0" stopTime="0.00" timeLoss="6.02" rerouteNo="1" devices="tripinfo_carIn64958:1 routing_carIn64958:1" vType="default_016" speedFactor="1.14" vaporized=""/>
    <tripinfo id="h15564c1:1" depart="57843.00" departLane="10425609#0_1" departPos="5.10" departSpeed="0.00" departDelay="0.50" arrival="57889.00" arrivalLane="202070434#2_1" arrivalPos="39.03" arrivalSpeed="12.45" duration="46.00" routeLength="432.30" waitingTime="0.00" waitingCount="0" stopTime="0.00" timeLoss="12.37" rerouteNo="1" devices="tripinfo_h15564c1:1 routing_h15564c1:1" vType="default_016" speedFactor="0.97" vaporized=""/>
    <tripinfo id="carIn133015:1" depart="57864.00" departLane="10425609#0_1" departPos="5.10" departSpeed="0.00" departDelay="0.00" arrival="57892.00" arrivalLane="-653473569#5_1" arrivalPos="73.05" arrivalSpeed="15.52" duration="28.00" routeLength="312.95" waitingTime="0.00" waitingCount="0" stopTime="0.00" timeLoss="6.59" rerouteNo="1" devices="tripinfo_carIn133015:1 routing_carIn133015:1" vType="default_016" speedFactor="1.12" vaporized=""/>
    <tripinfo id="carIn101921:1" depart="57856.00" departLane="-32978638#0_1" departPos="5.10" departSpeed="0.00" departDelay="5.90" arrival="57896.00" arrivalLane="-315358253#1_1" arrivalPos="63.90" arrivalSpeed="12.86" duration="40.00" routeLength="422.17" waitingTime="0.00" waitingCount="0" stopTime="0.00" timeLoss="7.12" rerouteNo="1" devices="tripinfo_carIn101921:1 routing_carIn101921:1" vType="default_016" speedFactor="0.97" vaporized=""/>
    <tripinfo id="h7759c1:3" depart="57859.00" departLane="-32978638#0_1" departPos="5.10" departSpeed="0.00" departDelay="7.20" arrival="57898.00" arrivalLane="-315358253#1_1" arrivalPos="63.90" arrivalSpeed="12.92" duration="39.00" routeLength="422.17" waitingTime="0.00" waitingCount="0" stopTime="0.00" timeLoss="7.45" rerouteNo="1" devices="tripinfo_h7759c1:3 routing_h7759c1:3" vType="default_016" speedFactor="1.00" vaporized=""/>
    <tripinfo id="h13311c1:3" depart="57861.00" departLane="315358253#1_1" departPos="5.10" departSpeed="0.00" departDelay="0.00" arrival="57898.00" arrivalLane="32978638#0_1" arrivalPos="49.29" arrivalSpeed="14.19" duration="37.00" routeLength="405.15" waitingTime="0.00" waitingCount="0" stopTime="0.00" timeLoss="7.42" rerouteNo="1" devices="tripinfo_h13311c1:3 routing_h13311c1:3" vType="default_016" speedFactor="1.05" vaporized=""/>
    <tripinfo id="carIn88912:1" depart="57867.00" departLane="-32978638#0_1" departPos="5.10" departSpeed="0.00" departDelay="0.20" arrival="57906.00" arrivalLane="-315358253#1_1" arrivalPos="63.90" arrivalSpeed="12.73" duration="39.00" routeLength="422.17" waitingTime="0.00" waitingCount="0" stopTime="0.00" timeLoss="6.66" rerouteNo="1" devices="tripinfo_carIn88912:1 routing_carIn88912:1" vType="default_016" speedFactor="0.99" vaporized=""/>
    <tripinfo id="carIn126072:1" depart="57870.00" departLane="315358253#1_1" departPos="5.10" departSpeed="0.00" departDelay="0.80" arrival="57909.00" arrivalLane="32978638#0_1" arrivalPos="49.29" arrivalSpeed="13.10" duration="39.00" routeLength="405.15" waitingTime="0.00" waitingCount="0" stopTime="0.00" timeLoss="7.48" rerouteNo="1" devices="tripinfo_carIn126072:1 routing_carIn126072:1" vType="default_016" speedFactor="0.99" vaporized=""/>
    <tripinfo id="h19571c2:3" depart="57882.00" departLane="10425609#0_1" departPos="5.10" departSpeed="0.00" departDelay="0.30" arrival="57916.00" arrivalLane="-653473569#5_1" arrivalPos="73.05" arrivalSpeed="11.15" duration="34.00" routeLength="312.95" waitingTime="0.00" waitingCount="0" stopTime="0.00" timeLoss="5.68" rerouteNo="1" devices="tripinfo_h19571c2:3 routing_h19571c2:3" vType="default_016" speedFactor="0.86" vaporized=""/>
    <tripinfo id="carIn69046:1" depart="57887.00" departLane="-32978638#0_1" departPos="5.10" departSpeed="0.00" departDelay="0.40" arrival="57925.00" arrivalLane="-315358253#1_1" arrivalPos="63.90" arrivalSpeed="13.35" duration="38.00" routeLength="422.17" waitingTime="0.00" waitingCount="0" stopTime="0.00" timeLoss="5.75" rerouteNo="1" devices="tripinfo_carIn69046:1 routing_carIn69046:1" vType="default_016" speedFactor="0.99" vaporized=""/>
    <tripinfo id="h17890c1:3" depart="57893.00" departLane="315358253#1_1" departPos="5.10" departSpeed="0.00" departDelay="0.90" arrival="57931.00" arrivalLane="32978638#0_1" arrivalPos="49.29" arrivalSpeed="12.68" duration="38.00" routeLength="405.15" waitingTime="0.00" waitingCount="0" stopTime="0.00" timeLoss="6.58" rerouteNo="1" devices="tripinfo_h17890c1:3 routing_h17890c1:3" vType="default_016" speedFactor="0.99" vaporized=""/>
    <tripinfo id="h21699c2:1" depart="57890.00" departLane="-32978638#0_1" departPos="5.10" departSpeed="0.00" departDelay="1.90" arrival="57934.00" arrivalLane="-315358253#1_1" arrivalPos="63.90" arrivalSpeed="11.19" duration="44.00" routeLength="422.17" waitingTime="0.00" waitingCount="0" stopTime="0.00" timeLoss="6.10" rerouteNo="1" devices="tripinfo_h21699c2:1 routing_h21699c2:1" vType="default_016" speedFactor="0.85" vaporized=""/>
    <tripinfo id="h4784c1:3" depart="57899.00" departLane="315358253#1_1" departPos="5.10" departSpeed="0.00" departDelay="0.10" arrival="57940.00" arrivalLane="32978638#0_1" arrivalPos="49.29" arrivalSpeed="11.34" duration="41.00" routeLength="405.15" waitingTime="0.00" waitingCount="0" stopTime="0.00" timeLoss="6.57" rerouteNo="1" devices="tripinfo_h4784c1:3 routing_h4784c1:3" vType="default_016" speedFactor="0.90" vaporized=""/>
    <tripinfo id="carIn48137:1" depart="57903.00" departLane="315358253#1_1" departPos="5.10" departSpeed="0.00" departDelay="0.20" arrival="57940.00" arrivalLane="32978638#0_2" arrivalPos="49.29" arrivalSpeed="16.48" duration="37.00" routeLength="409.47" waitingTime="0.00" waitingCount="0" stopTime="0.00" timeLoss="10.16" rerouteNo="1" devices="tripinfo_carIn48137:1 routing_carIn48137:1" vType="default_016" speedFactor="1.19" vaporized=""/>
    <tripinfo id="randUni16001:1" depart="57912.00" departLane="10425609#0_1" departPos="5.10" departSpeed="0.00" departDelay="0.30" arrival="57940.00" arrivalLane="201956810_1" arrivalPos="71.65" arrivalSpeed="12.53" duration="28.00" routeLength="255.78" waitingTime="0.00" waitingCount="0" stopTime="0.00" timeLoss="6.01" rerouteNo="1" devices="tripinfo_randUni16001:1 routing_randUni16001:1" vType="random_016" speedFactor="0.93" vaporized=""/>
    <tripinfo id="h21872c1:1" depart="57901.00" departLane="-32978638#0_1" departPos="5.10" departSpeed="0.00" departDelay="0.70" arrival="57943.00" arrivalLane="-315358253#1_1" arrivalPos="63.90" arrivalSpeed="10.85" duration="42.00" routeLength="422.17" waitingTime="0.00" waitingCount="0" stopTime="0.00" timeLoss="5.69" rerouteNo="1" devices="tripinfo_h21872c1:1 routing_h21872c1:1" vType="default_016" speedFactor="0.87" vaporized=""/>
    <tripinfo id="carIn41236:1" depart="57904.00" departLane="-32978638#0_1" departPos="5.10" departSpeed="0.00" departDelay="2.10" arrival="57945.00" arrivalLane="-315358253#1_1" arrivalPos="63.90" arrivalSpeed="12.72" duration="41.00" routeLength="422.17" waitingTime="0.00" waitingCount="0" stopTime="0.00" timeLoss="9.03" rerouteNo="1" devices="tripinfo_carIn41236:1 routing_carIn41236:1" vType="default_016" speedFactor="0.99" vaporized=""/>
    <tripinfo id="h3847c1:3" depart="57907.00" departLane="315358253#1_1" departPos="5.10" departSpeed="0.00" departDelay="0.40" arrival="57947.00" arrivalLane="32978638#0_1" arrivalPos="49.29" arrivalSpeed="11.62" duration="40.00" routeLength="405.15" waitingTime="0.00" waitingCount="0" stopTime="0.00" timeLoss="7.01" rerouteNo="1" devices="tripinfo_h3847c1:3 routing_h3847c1:3" vType="default_016" speedFactor="0.92" vaporized=""/>