<?xml version="1.0" encoding="UTF-8"?>

<!-- generated on 2023-08-31 12:41:38 by Eclipse SUMO libsumo Version 1.18.0
<configuration xmlns:xsi="http://www.w3.org/2001/XMLSchema-instance" xsi:noNamespaceSchemaLocation="http://sumo.dlr.de/xsd/libsumoConfiguration.xsd">

    <input>
        <net-file value="/home/stefan/RESCO/./environments/ingolstadt7/ingolstadt7.net.xml"/>
        <route-files value="/home/stefan/RESCO/./environments/ingolstadt7/ingolstadt7.rou.xml"/>
    </input>

    <output>
        <tripinfo-output value="/home/stefan/results/RAINBOW-tr0-ingolstadt7-7-drq_norm-wait_norm/tripinfo_65.xml"/>
        <tripinfo-output.write-unfinished value="true"/>
    </output>

    <time>
        <begin value="57600"/>
        <end value="61200"/>
    </time>

    <processing>
        <time-to-teleport value="-1"/>
    </processing>

    <report>
        <no-warnings value="True"/>
        <no-step-log value="True"/>
    </report>

    <random_number>
        <random value="true"/>
    </random_number>

</configuration>
-->

<tripinfos xmlns:xsi="http://www.w3.org/2001/XMLSchema-instance" xsi:noNamespaceSchemaLocation="http://sumo.dlr.de/xsd/tripinfo_file.xsd">
    <tripinfo id="carIn28951:1" depart="57606.00" departLane="10425609#0_1" departPos="5.10" departSpeed="0.00" departDelay="0.20" arrival="57646.00" arrivalLane="-653473569#5_1" arrivalPos="73.05" arrivalSpeed="14.52" duration="40.00" routeLength="312.95" waitingTime="7.00" waitingCount="1" stopTime="0.00" timeLoss="17.26" rerouteNo="1" devices="tripinfo_carIn28951:1 routing_carIn28951:1" vType="default_016" speedFactor="1.07" vaporized=""/>
    <tripinfo id="h20232c1:2" depart="57634.00" departLane="-173169611#0_1" departPos="5.10" departSpeed="0.00" departDelay="0.50" arrival="57649.00" arrivalLane="201956820_1" arrivalPos="48.33" arrivalSpeed="13.30" duration="15.00" routeLength="122.35" waitingTime="0.00" waitingCount="0" stopTime="0.00" timeLoss="4.80" rerouteNo="0" devices="tripinfo_h20232c1:2 routing_h20232c1:2" vType="default_016" speedFactor="0.96" vaporized=""/>
    <tripinfo id="carIn25202:1" depart="57629.00" departLane="315358253#1_1" departPos="5.10" departSpeed="0.00" departDelay="1.50" arrival="57664.00" arrivalLane="32978638#0_1" arrivalPos="49.29" arrivalSpeed="14.09" duration="35.00" routeLength="405.15" waitingTime="0.00" waitingCount="0" stopTime="0.00" timeLoss="5.79" rerouteNo="1" devices="tripinfo_carIn25202:1 routing_carIn25202:1" vType="default_016" speedFactor="1.06" vaporized=""/>
    <tripinfo id="h20540c1:1" depart="57634.00" departLane="10425609#0_1" departPos="5.10" departSpeed="0.00" departDelay="0.50" arrival="57666.00" arrivalLane="-653473569#5_1" arrivalPos="73.05" arrivalSpeed="11.32" duration="32.00" routeLength="312.95" waitingTime="0.00" waitingCount="0" stopTime="0.00" timeLoss="5.54" rerouteNo="1" devices="tripinfo_h20540c1:1 routing_h20540c1:1" vType="default_016" speedFactor="0.91" vaporized=""/>
    <tripinfo id="carIn55461:1" depart="57652.00" departLane="10425609#0_1" departPos="5.10" departSpeed="0.00" departDelay="0.30" arrival="57676.00" arrivalLane="201956810_1" arrivalPos="71.65" arrivalSpeed="15.09" duration="24.00" routeLength="255.78" waitingTime="0.00" waitingCount="0" stopTime="0.00" timeLoss="5.89" rerouteNo="1" devices="tripinfo_carIn55461:1 routing_carIn55461:1" vType="default_016" speedFactor="1.13" vaporized=""/>
    <tripinfo id="carIn33538:1" depart="57671.00" departLane="37386279_1" departPos="5.10" departSpeed="0.00" departDelay="0.30" arrival="57686.00" arrivalLane="-24634414#4_1" arrivalPos="22.88" arrivalSpeed="7.16" duration="15.00" routeLength="125.23" waitingTime="0.00" waitingCount="0" stopTime="0.00" timeLoss="3.62" rerouteNo="0" devices="tripinfo_carIn33538:1 routing_carIn33538:1" vType="default_016" speedFactor="0.99" vaporized=""/>
    <tripinfo id="carIn89578:1" depart="57613.00" departLane="124812856#0_1" departPos="5.10" departSpeed="0.00" departDelay="2.60" arrival="57687.00" arrivalLane="201956810_1" arrivalPos="71.65" arrivalSpeed="17.94" duration="74.00" routeLength="134.91" waitingTime="53.00" waitingCount="1" stopTime="0.00" timeLoss="66.06" rerouteNo="1" devices="tripinfo_carIn89578:1 routing_carIn89578:1" vType="default_016" speedFactor="1.31" vaporized=""/>
    <tripinfo id="carIn114137:1" depart="57634.00" departLane="27920078#0_1" departPos="5.10" departSpeed="0.00" departDelay="3.10" arrival="57698.00" arrivalLane="-83304175#2_1" arrivalPos="189.34" arrivalSpeed="9.03" duration="64.00" routeLength="501.51" waitingTime="8.00" waitingCount="1" stopTime="0.00" timeLoss="22.08" rerouteNo="1" devices="tripinfo_carIn114137:1 routing_carIn114137:1" vType="default_016" speedFactor="1.14" vaporized=""/>
    <tripinfo id="carIn12775:1" depart="57676.00" departLane="10425609#0_1" departPos="5.10" departSpeed="0.00" departDelay="0.60" arrival="57702.00" arrivalLane="-653473569#5_1" arrivalPos="73.05" arrivalSpeed="16.87" duration="26.00" routeLength="312.95" waitingTime="0.00" waitingCount="0" stopTime="0.00" timeLoss="6.33" rerouteNo="1" devices="tripinfo_carIn12775:1 routing_carIn12775:1" vType="default_016" speedFactor="1.26" vaporized=""/>
    <tripinfo id="carIn22637:1" depart="57635.00" departLane="27920078#0_1" departPos="5.10" departSpeed="0.00" departDelay="2.50" arrival="57710.00" arrivalLane="-83304175#2_1" arrivalPos="189.34" arrivalSpeed="7.02" duration="75.00" routeLength="501.51" waitingTime="5.00" waitingCount="1" stopTime="0.00" timeLoss="22.64" rerouteNo="1" devices="tripinfo_carIn22637:1 routing_carIn22637:1" vType="default_016" speedFactor="0.91" vaporized=""/>
    <tripinfo id="h3688c1:1" depart="57679.00" departLane="315358253#1_1" departPos="5.10" departSpeed="0.00" departDelay="0.50" arrival="57714.00" arrivalLane="32978638#0_1" arrivalPos="49.29" arrivalSpeed="14.50" duration="35.00" routeLength="405.15" waitingTime="0.00" waitingCount="0" stopTime="0.00" timeLoss="7.53" rerouteNo="1" devices="tripinfo_h3688c1:1 routing_h3688c1:1" vType="default_016" speedFactor="1.12" vaporized=""/>
    <tripinfo id="carIn925:1" depart="57701.00" departLane="124812856#0_1" departPos="5.10" departSpeed="0.00" departDelay="74.90" arrival="57717.00" arrivalLane="201956810_1" arrivalPos="71.65" arrivalSpeed="12.52" duration="16.00" routeLength="134.91" waitingTime="0.00" waitingCount="0" stopTime="0.00" timeLoss="3.99" rerouteNo="1" devices="tripinfo_carIn925:1 routing_carIn925:1" vType="default_016" speedFactor="0.93" vaporized=""/>
    <tripinfo id="carIn105842:1" depart="57601.00" departLane="653473569#5_1" departPos="5.10" departSpeed="0.00" departDelay="0.80" arrival="57731.00" arrivalLane="201956811#0_1" arrivalPos="40.40" arrivalSpeed="12.57" duration="130.00" routeLength="313.24" waitingTime="92.00" waitingCount="2" stopTime="0.00" timeLoss="103.99" rerouteNo="1" devices="tripinfo_carIn105842:1 routing_carIn105842:1" vType="default_016" speedFactor="0.91" vaporized=""/>
    <tripinfo id="carIn106322:1" depart="57614.00" departLane="653473569#5_1" departPos="5.10" departSpeed="0.00" departDelay="2.20" arrival="57733.00" arrivalLane="201956811#0_1" arrivalPos="40.40" arrivalSpeed="14.32" duration="119.00" routeLength="313.24" waitingTime="74.00" waitingCount="3" stopTime="0.00" timeLoss="96.28" rerouteNo="1" devices="tripinfo_carIn106322:1 routing_carIn106322:1" vType="default_016" speedFactor="1.05" vaporized=""/>
    <tripinfo id="carIn131078:1" depart="57726.00" departLane="124812856#0_1" departPos="5.10" departSpeed="0.00" departDelay="90.60" arrival="57742.00" arrivalLane="201956810_1" arrivalPos="71.65" arrivalSpeed="12.90" duration="16.00" routeLength="134.91" waitingTime="0.00" waitingCount="0" stopTime="0.00" timeLoss="4.76" rerouteNo="1" devices="tripinfo_carIn131078:1 routing_carIn131078:1" vType="default_016" speedFactor="0.94" vaporized=""/>
    <tripinfo id="h317c2:1" depart="57707.00" departLane="-32978638#0_1" departPos="5.10" departSpeed="0.00" departDelay="0.10" arrival="57744.00" arrivalLane="-266565295#5_1" arrivalPos="172.76" arrivalSpeed="12.02" duration="37.00" routeLength="370.53" waitingTime="0.00" waitingCount="0" stopTime="0.00" timeLoss="5.20" rerouteNo="1" devices="tripinfo_h317c2:1 routing_h317c2:1" vType="default_016" speedFactor="0.88" vaporized=""/>
    <tripinfo id="randUni22709:1" depart="57718.00" departLane="315358253#1_1" departPos="5.10" departSpeed="0.00" departDelay="0.20" arrival="57753.00" arrivalLane="32978638#0_1" arrivalPos="49.29" arrivalSpeed="15.26" duration="35.00" routeLength="405.15" waitingTime="0.00" waitingCount="0" stopTime="0.00" timeLoss="6.44" rerouteNo="1" devices="tripinfo_randUni22709:1 routing_randUni22709:1" vType="random_016" speedFactor="1.10" vaporized=""/>
    <tripinfo id="h134c1:3" depart="57721.00" departLane="315358253#1_1" departPos="5.10" departSpeed="0.00" departDelay="1.60" arrival="57760.00" arrivalLane="32978638#0_1" arrivalPos="49.29" arrivalSpeed="13.13" duration="39.00" routeLength="405.15" waitingTime="0.00" waitingCount="0" stopTime="0.00" timeLoss="6.90" rerouteNo="1" devices="tripinfo_h134c1:3 routing_h134c1:3" vType="default_016" speedFactor="0.95" vaporized=""/>
    <tripinfo id="carIn99509:1" depart="57720.00" departLane="-32978638#0_1" departPos="5.10" departSpeed="0.00" departDelay="0.20" arrival="57761.00" arrivalLane="-315358253#1_1" arrivalPos="63.90" arrivalSpeed="11.86" duration="41.00" routeLength="422.17" waitingTime="0.00" waitingCount="0" stopTime="0.00" timeLoss="5.83" rerouteNo="1" devices="tripinfo_carIn99509:1 routing_carIn99509:1" vType="default_015" speedFactor="0.92" vaporized=""/>
    <tripinfo id="carIn74045:1" depart="57724.00" departLane="315358253#1_1" departPos="5.10" departSpeed="0.00" departDelay="3.00" arrival="57762.00" arrivalLane="32978638#0_1" arrivalPos="49.29" arrivalSpeed="14.65" duration="38.00" routeLength="405.15" waitingTime="0.00" waitingCount="0" stopTime="0.00" timeLoss="10.50" rerouteNo="1" devices="tripinfo_carIn74045:1 routing_carIn74045:1" vType="default_016" speedFactor="1.13" vaporized=""/>
    <tripinfo id="h19989c1:1" depart="57731.00" departLane="10425609#0_1" departPos="5.10" departSpeed="0.00" departDelay="1.60" arrival="57765.00" arrivalLane="-653473569#5_1" arrivalPos="73.05" arrivalSpeed="11.23" duration="34.00" routeLength="312.95" waitingTime="0.00" waitingCount="0" stopTime="0.00" timeLoss="6.12" rerouteNo="1" devices="tripinfo_h19989c1:1 routing_h19989c1:1" vType="default_016" speedFactor="0.86" vaporized=""/>
    <tripinfo id="carIn92858:1" depart="57734.00" departLane="10425609#0_1" departPos="5.10" departSpeed="0.00" departDelay="1.80" arrival="57767.00" arrivalLane="-653473569#5_1" arrivalPos="73.05" arrivalSpeed="12.55" duration="33.00" routeLength="312.95" waitingTime="0.00" waitingCount="0" stopTime="0.00" timeLoss="8.34" rerouteNo="1" devices="tripinfo_carIn92858:1 routing_carIn92858:1" vType="default_016" speedFactor="0.99" vaporized=""/>
    <tripinfo id="carIn101439:1" depart="57737.00" departLane="10425609#0_1" departPos="5.10" departSpeed="0.00" departDelay="2.70" arrival="57769.00" arrivalLane="-653473569#5_1" arrivalPos="73.05" arrivalSpeed="15.13" duration="32.00" routeLength="312.95" waitingTime="0.00" waitingCount="0" stopTime="0.00" timeLoss="9.68" rerouteNo="1" devices="tripinfo_carIn101439:1 routing_carIn101439:1" vType="default_016" speedFactor="1.09" vaporized=""/>
    <tripinfo id="h330c1:1" depart="57736.00" departLane="-32978638#0_1" departPos="5.10" departSpeed="0.00" departDelay="0.20" arrival="57769.00" arrivalLane="-266565295#5_1" arrivalPos="172.76" arrivalSpeed="13.49" duration="33.00" routeLength="370.53" waitingTime="0.00" waitingCount="0" stopTime="0.00" timeLoss="6.31" rerouteNo="1" devices="tripinfo_h330c1:1 routing_h330c1:1" vType="default_016" speedFactor="1.02" vaporized=""/>
    <tripinfo id="carIn84229:1" depart="57740.00" departLane="10425609#0_1" departPos="5.10" departSpeed="0.00" departDelay="3.20" arrival="57775.00" arrivalLane="-653473569#5_1" arrivalPos="73.05" arrivalSpeed="13.23" duration="35.00" routeLength="312.95" waitingTime="0.00" waitingCount="0" stopTime="0.00" timeLoss="9.61" rerouteNo="1" devices="tripinfo_carIn84229:1 routing_carIn84229:1" vType="default_016" speedFactor="0.96" vaporized=""/>
    <tripinfo id="carIn16842:1" depart="57746.00" departLane="10425609#0_1" departPos="5.10" departSpeed="0.00" departDelay="2.40" arrival="57776.00" arrivalLane="-653473569#5_1" arrivalPos="73.05" arrivalSpeed="15.27" duration="30.00" routeLength="312.95" waitingTime="0.00" waitingCount="0" stopTime="0.00" timeLoss="8.22" rerouteNo="1" devices="tripinfo_carIn16842:1 routing_carIn16842:1" vType="default_016" speedFactor="1.10" vaporized=""/>
    <tripinfo id="carIn12900:1" depart="57746.00" departLane="124812856#0_1" departPos="5.10" departSpeed="0.00" departDelay="97.80" arrival="57777.00" arrivalLane="201956810_1" arrivalPos="71.65" arrivalSpeed="13.66" duration="31.00" routeLength="134.91" waitingTime="11.00" waitingCount="1" stopTime="0.00" timeLoss="20.98" rerouteNo="1" devices="tripinfo_carIn12900:1 routing_carIn12900:1" vType="default_016" speedFactor="1.06" vaporized=""/>
    <tripinfo id="carIn124416:1" depart="57663.00" departLane="-173169611#0_1" departPos="5.10" departSpeed="0.00" departDelay="0.50" arrival="57780.00" arrivalLane="201956820_1" arrivalPos="48.33" arrivalSpeed="14.61" duration="117.00" routeLength="122.35" waitingTime="100.00" waitingCount="1" stopTime="0.00" timeLoss="108.33" rerouteNo="0" devices="tripinfo_carIn124416:1 routing_carIn124416:1" vType="default_016" speedFactor="1.15" vaporized=""/>
    <tripinfo id="11_frequency1.42" depart="57739.00" departLane="315358253#1_1" departPos="12.10" departSpeed="0.00" departDelay="0.30" arrival="57781.00" arrivalLane="32978638#0_1" arrivalPos="49.29" arrivalSpeed="13.51" duration="42.00" routeLength="398.15" waitingTime="0.00" waitingCount="0" stopTime="0.00" timeLoss="11.21" rerouteNo="1" devices="tripinfo_11_frequency1.42 routing_11_frequency1.42" vType="bus" speedFactor="1.00" vaporized=""/>
    <tripinfo id="carIn55090:1" depart="57666.00" departLane="-173169611#0_1" departPos="5.10" departSpeed="0.00" departDelay="1.40" arrival="57783.00" arrivalLane="201956820_1" arrivalPos="48.33" arrivalSpeed="11.79" duration="117.00" routeLength="122.35" waitingTime="96.00" waitingCount="1" stopTime="0.00" timeLoss="106.32" rerouteNo="0" devices="tripinfo_carIn55090:1 routing_carIn55090:1" vType="default_016" speedFactor="0.93" vaporized=""/>
    <tripinfo id="carIn98605:1" depart="57743.00" departLane="315358253#1_1" departPos="5.10" departSpeed="0.00" departDelay="2.20" arrival="57783.00" arrivalLane="32978638#0_1" arrivalPos="49.29" arrivalSpeed="12.81" duration="40.00" routeLength="405.15" waitingTime="0.00" waitingCount="0" stopTime="0.00" timeLoss="9.63" rerouteNo="1" devices="tripinfo_carIn98605:1 routing_carIn98605:1" vType="default_016" speedFactor="1.01" vaporized=""/>
    <tripinfo id="h319c1:3" depart="57746.00" departLane="315358253#1_1" departPos="5.10" departSpeed="0.00" departDelay="3.70" arrival="57785.00" arrivalLane="32978638#0_1" arrivalPos="49.29" arrivalSpeed="14.90" duration="39.00" routeLength="405.15" waitingTime="0.00" waitingCount="0" stopTime="0.00" timeLoss="10.93" rerouteNo="1" devices="tripinfo_h319c1:3 routing_h319c1:3" vType="default_016" speedFactor="1.10" vaporized=""/>
    <tripinfo id="carIn75079:1" depart="57747.00" departLane="-173169611#0_1" departPos="5.10" departSpeed="0.00" departDelay="0.60" arrival="57786.00" arrivalLane="201956820_1" arrivalPos="48.33" arrivalSpeed="13.18" duration="39.00" routeLength="122.35" waitingTime="19.00" waitingCount="1" stopTime="0.00" timeLoss="28.65" rerouteNo="0" devices="tripinfo_carIn75079:1 routing_carIn75079:1" vType="default_016" speedFactor="1.03" vaporized=""/>
    <tripinfo id="carIn42216:1" depart="57774.00" departLane="-173169611#0_1" departPos="5.10" departSpeed="0.00" departDelay="0.10" arrival="57789.00" arrivalLane="201956820_1" arrivalPos="48.33" arrivalSpeed="15.70" duration="15.00" routeLength="122.35" waitingTime="0.00" waitingCount="0" stopTime="0.00" timeLoss="5.91" rerouteNo="0" devices="tripinfo_carIn42216:1 routing_carIn42216:1" vType="default_016" speedFactor="1.15" vaporized=""/>
    <tripinfo id="carIn107250:1" depart="57752.00" departLane="315358253#1_1" departPos="5.10" departSpeed="0.00" departDelay="6.70" arrival="57793.00" arrivalLane="32978638#0_1" arrivalPos="49.29" arrivalSpeed="11.81" duration="41.00" routeLength="405.15" waitingTime="0.00" waitingCount="0" stopTime="0.00" timeLoss="6.12" rerouteNo="1" devices="tripinfo_carIn107250:1 routing_carIn107250:1" vType="default_016" speedFactor="0.89" vaporized=""/>
    <tripinfo id="h14316c1:3" depart="57758.00" departLane="315358253#1_1" departPos="5.10" departSpeed="0.00" departDelay="9.00" arrival="57798.00" arrivalLane="32978638#0_1" arrivalPos="49.29" arrivalSpeed="12.39" duration="40.00" routeLength="405.15" waitingTime="0.00" waitingCount="0" stopTime="0.00" timeLoss="5.91" rerouteNo="1" devices="tripinfo_h14316c1:3 routing_h14316c1:3" vType="default_016" speedFactor="0.92" vaporized=""/>
    <tripinfo id="h21130c2:1" depart="57630.00" departLane="10425609#0_1" departPos="5.10" departSpeed="0.00" departDelay="0.10" arrival="57799.00" arrivalLane="202070434#2_1" arrivalPos="39.03" arrivalSpeed="11.62" duration="169.00" routeLength="432.30" waitingTime="118.00" waitingCount="1" stopTime="0.00" timeLoss="132.37" rerouteNo="1" devices="tripinfo_h21130c2:1 routing_h21130c2:1" vType="default_016" speedFactor="0.88" vaporized=""/>
    <tripinfo id="carIn117869:1" depart="57758.00" departLane="-32978638#0_1" departPos="5.10" departSpeed="0.00" departDelay="0.60" arrival="57800.00" arrivalLane="-315358253#1_1" arrivalPos="63.90" arrivalSpeed="11.29" duration="42.00" routeLength="422.17" waitingTime="0.00" waitingCount="0" stopTime="0.00" timeLoss="6.30" rerouteNo="1" devices="tripinfo_carIn117869:1 routing_carIn117869:1" vType="default_016" speedFactor="0.89" vaporized=""/>
    <tripinfo id="h21189c1:3" depart="57722.00" departLane="10425609#0_1" departPos="5.10" departSpeed="0.00" departDelay="0.10" arrival="57801.00" arrivalLane="202070434#2_1" arrivalPos="39.03" arrivalSpeed="14.88" duration="79.00" routeLength="432.30" waitingTime="31.00" waitingCount="1" stopTime="0.00" timeLoss="50.21" rerouteNo="1" devices="tripinfo_h21189c1:3 routing_h21189c1:3" vType="default_016" speedFactor="1.14" vaporized=""/>
    <tripinfo id="60.39" depart="57643.00" departLane="10425609#0_1" departPos="12.10" departSpeed="0.00" departDelay="0.50" arrival="57802.00" arrivalLane="202070434#2_2" arrivalPos="39.03" arrivalSpeed="10.80" duration="159.00" routeLength="425.30" waitingTime="105.00" waitingCount="1" stopTime="0.00" timeLoss="127.04" rerouteNo="1" devices="tripinfo_60.39 routing_60.39" vType="bus" speedFactor="1.00" vaporized=""/>
    <tripinfo id="carIn7365:1" depart="57743.00" departLane="10425609#0_1" departPos="5.10" departSpeed="0.00" departDelay="1.70" arrival="57808.00" arrivalLane="202070434#2_2" arrivalPos="39.03" arrivalSpeed="14.00" duration="65.00" routeLength="432.30" waitingTime="13.00" waitingCount="3" stopTime="0.00" timeLoss="33.46" rerouteNo="1" devices="tripinfo_carIn7365:1 routing_carIn7365:1" vType="default_016" speedFactor="1.03" vaporized=""/>
    <tripinfo id="h19105c2:3" depart="57795.00" departLane="10425609#0_1" departPos="5.10" departSpeed="0.00" departDelay="0.60" arrival="57823.00" arrivalLane="-653473569#5_1" arrivalPos="73.05" arrivalSpeed="14.18" duration="28.00" routeLength="312.95" waitingTime="0.00" waitingCount="0" stopTime="0.00" timeLoss="5.71" rerouteNo="1" devices="tripinfo_h19105c2:3 routing_h19105c2:3" vType="default_016" speedFactor="1.09" vaporized=""/>
    <tripinfo id="carIn113711:1" depart="57601.00" departLane="-24693977#1_1" departPos="5.10" departSpeed="0.00" departDelay="0.70" arrival="57826.00" arrivalLane="-266565295#5_1" arrivalPos="172.76" arrivalSpeed="13.62" duration="225.00" routeLength="840.03" waitingTime="147.00" waitingCount="2" stopTime="0.00" timeLoss="165.30" rerouteNo="1" devices="tripinfo_carIn113711:1 routing_carIn113711:1" vType="default_016" speedFactor="1.04" vaporized=""/>
    <tripinfo id="h15454c2:3" depart="57612.00" departLane="24608844_1" departPos="5.10" departSpeed="0.00" departDelay="0.50" arrival="57826.00" arrivalLane="32978638#0_1" arrivalPos="49.29" arrivalSpeed="10.54" duration="214.00" routeLength="354.79" waitingTime="156.00" waitingCount="2" stopTime="0.00" timeLoss="171.61" rerouteNo="1" devices="tripinfo_h15454c2:3 routing_h15454c2:3" vType="default_016" speedFactor="0.81" vaporized=""/>
    <tripinfo id="carIn79400:1" depart="57604.00" departLane="-24693977#1_1" departPos="5.10" departSpeed="0.00" departDelay="0.10" arrival="57827.00" arrivalLane="-266565295#5_2" arrivalPos="172.76" arrivalSpeed="12.67" duration="223.00" routeLength="840.03" waitingTime="144.00" waitingCount="2" stopTime="0.00" timeLoss="161.14" rerouteNo="1" devices="tripinfo_carIn79400:1 routing_carIn79400:1" vType="default_016" speedFactor="1.00" vaporized=""/>
    <tripinfo id="carIn52610:1" depart="57615.00" departLane="-24693977#1_1" departPos="5.10" departSpeed="0.00" departDelay="0.10" arrival="57828.00" arrivalLane="-266565295#5_1" arrivalPos="172.76" arrivalSpeed="13.95" duration="213.00" routeLength="840.03" waitingTime="130.00" waitingCount="2" stopTime="0.00" timeLoss="156.24" rerouteNo="1" devices="tripinfo_carIn52610:1 routing_carIn52610:1" vType="default_016" speedFactor="1.09" vaporized=""/>
    <tripinfo id="carIn115641:1" depart="57614.00" departLane="-24693977#1_1" departPos="5.10" departSpeed="0.00" departDelay="0.90" arrival="57829.00" arrivalLane="-266565295#5_2" arrivalPos="172.76" arrivalSpeed="13.50" duration="215.00" routeLength="840.03" waitingTime="133.00" waitingCount="2" stopTime="0.00" timeLoss="155.36" rerouteNo="1" devices="tripinfo_carIn115641:1 routing_carIn115641:1" vType="default_016" speedFactor="1.04" vaporized=""/>
    <tripinfo id="carIn10158:1" depart="57622.00" departLane="-24693977#1_1" departPos="5.10" departSpeed="0.00" departDelay="0.80" arrival="57830.00" arrivalLane="-266565295#5_1" arrivalPos="172.76" arrivalSpeed="13.21" duration="208.00" routeLength="840.03" waitingTime="128.00" waitingCount="2" stopTime="0.00" timeLoss="148.91" rerouteNo="1" devices="tripinfo_carIn10158:1 routing_carIn10158:1" vType="default_016" speedFactor="1.04" vaporized=""/>
    <tripinfo id="carIn7631:1" depart="57786.00" departLane="-32978638#0_1" departPos="5.10" departSpeed="0.00" departDelay="0.70" arrival="57831.00" arrivalLane="-315358253#1_1" arrivalPos="63.90" arrivalSpeed="11.39" duration="45.00" routeLength="422.17" waitingTime="0.00" waitingCount="0" stopTime="0.00" timeLoss="8.57" rerouteNo="1" devices="tripinfo_carIn7631:1 routing_carIn7631:1" vType="default_016" speedFactor="0.88" vaporized=""/>
    <tripinfo id="h645c1:1" depart="57622.00" departLane="266565295#5_1" departPos="5.10" departSpeed="0.00" departDelay="0.40" arrival="57832.00" arrivalLane="-315358253#1_1" arrivalPos="63.90" arrivalSpeed="14.46" duration="210.00" routeLength="547.76" waitingTime="157.00" waitingCount="1" stopTime="0.00" timeLoss="174.91" rerouteNo="1" devices="tripinfo_h645c1:1 routing_h645c1:1" vType="default_016" speedFactor="1.14" vaporized=""/>
    <tripinfo id="h5292c2:1" depart="57656.00" departLane="-24693977#1_1" departPos="5.10" departSpeed="0.00" departDelay="0.00" arrival="57832.00" arrivalLane="-266565295#5_1" arrivalPos="172.76" arrivalSpeed="12.10" duration="176.00" routeLength="840.03" waitingTime="90.00" waitingCount="2" stopTime="0.00" timeLoss="110.46" rerouteNo="1" devices="tripinfo_h5292c2:1 routing_h5292c2:1" vType="default_016" speedFactor="0.94" vaporized=""/>
    <tripinfo id="randUni31145:1" depart="57814.00" departLane="10425609#0_1" departPos="5.10" departSpeed="0.00" departDelay="0.30" arrival="57841.00" arrivalLane="201956810_1" arrivalPos="71.65" arrivalSpeed="12.75" duration="27.00" routeLength="255.78" waitingTime="0.00" waitingCount="0" stopTime="0.00" timeLoss="5.33" rerouteNo="1" devices="tripinfo_randUni31145:1 routing_randUni31145:1" vType="random_016" speedFactor="0.92" vaporized=""/>
    <tripinfo id="h9894c1:3" depart="57698.00" departLane="-24693977#1_1" departPos="5.10" departSpeed="0.00" departDelay="0.20" arrival="57844.00" arrivalLane="32978638#0_1" arrivalPos="49.29" arrivalSpeed="12.35" duration="146.00" routeLength="677.49" waitingTime="80.00" waitingCount="1" stopTime="0.00" timeLoss="93.53" rerouteNo="1" devices="tripinfo_h9894c1:3 routing_h9894c1:3" vType="default_016" speedFactor="0.98" vaporized=""/>
    <tripinfo id="randUni2407:1" depart="57820.00" departLane="10425609#0_1" departPos="5.10" departSpeed="0.00" departDelay="0.80" arrival="57844.00" arrivalLane="201956810_1" arrivalPos="71.65" arrivalSpeed="14.29" duration="24.00" routeLength="255.78" waitingTime="0.00" waitingCount="0" stopTime="0.00" timeLoss="5.84" rerouteNo="1" devices="tripinfo_randUni2407:1 routing_randUni2407:1" vType="random_016" speedFactor="1.11" vaporized=""/>
    <tripinfo id="carIn46110:1" depart="57804.00" departLane="315358253#1_1" departPos="5.10" departSpeed="0.00" departDelay="0.40" arrival="57848.00" arrivalLane="32978638#0_1" arrivalPos="49.29" arrivalSpeed="12.72" duration="44.00" routeLength="405.15" waitingTime="2.00" waitingCount="1" stopTime="0.00" timeLoss="12.09" rerouteNo="1" devices="tripinfo_carIn46110:1 routing_carIn46110:1" vType="default_016" speedFactor="0.96" vaporized=""/>
    <tripinfo id="h6541c1:3" depart="57807.00" departLane="315358253#1_1" departPos="5.10" departSpeed="0.00" departDelay="0.60" arrival="57850.00" arrivalLane="32978638#0_2" arrivalPos="49.29" arrivalSpeed="13.46" duration="43.00" routeLength="409.47" waitingTime="0.00" waitingCount="0" stopTime="0.00" timeLoss="12.91" rerouteNo="1" devices="tripinfo_h6541c1:3 routing_h6541c1:3" vType="default_016" speedFactor="1.04" vaporized=""/>
    <tripinfo id="carIn9810:1" depart="57820.00" departLane="315358253#1_1" departPos="5.10" departSpeed="0.00" departDelay="0.80" arrival="57855.00" arrivalLane="32978638#0_1" arrivalPos="49.29" arrivalSpeed="14.71" duration="35.00" routeLength="405.15" waitingTime="0.00" waitingCount="0" stopTime="0.00" timeLoss="6.36" rerouteNo="1" devices="tripinfo_carIn9810:1 routing_carIn9810:1" vType="default_016" speedFactor="1.09" vaporized=""/>
    <tripinfo id="carIn7887:1" depart="57661.00" departLane="27920078#0_1" departPos="5.10" departSpeed="0.00" departDelay="0.50" arrival="57859.00" arrivalLane="-83304175#2_1" arrivalPos="189.34" arrivalSpeed="8.31" duration="198.00" routeLength="501.51" waitingTime="140.00" waitingCount="1" stopTime="0.00" timeLoss="152.47" rerouteNo="1" devices="tripinfo_carIn7887:1 routing_carIn7887:1" vType="default_016" speedFactor="1.04" vaporized=""/>
    <tripinfo id="carIn5482:1" depart="57617.00" departLane="653473569#5_1" departPos="5.10" departSpeed="0.00" departDelay="3.60" arrival="57861.00" arrivalLane="201956811#0_1" arrivalPos="40.40" arrivalSpeed="14.41" duration="244.00" routeLength="313.24" waitingTime="191.00" waitingCount="6" stopTime="0.00" timeLoss="223.17" rerouteNo="1" devices="tripinfo_carIn5482:1 routing_carIn5482:1" vType="default_016" speedFactor="1.13" vaporized=""/>
    <tripinfo id="carIn106325:1" depart="57713.00" departLane="27920078#0_1" departPos="5.10" departSpeed="0.00" departDelay="0.10" arrival="57861.00" arrivalLane="-83304175#2_1" arrivalPos="189.34" arrivalSpeed="8.51" duration="148.00" routeLength="501.51" waitingTime="88.00" waitingCount="1" stopTime="0.00" timeLoss="102.63" rerouteNo="1" devices="tripinfo_carIn106325:1 routing_carIn106325:1" vType="default_016" speedFactor="1.04" vaporized=""/>
    <tripinfo id="carIn36103:1" depart="57620.00" departLane="653473569#5_1" departPos="5.10" departSpeed="0.00" departDelay="4.00" arrival="57863.00" arrivalLane="201956811#0_1" arrivalPos="40.40" arrivalSpeed="11.84" duration="243.00" routeLength="313.24" waitingTime="180.00" waitingCount="7" stopTime="0.00" timeLoss="217.72" rerouteNo="1" devices="tripinfo_carIn36103:1 routing_carIn36103:1" vType="default_016" speedFactor="0.93" vaporized=""/>
    <tripinfo id="carIn114105:1" depart="57821.00" departLane="10425609#0_1" departPos="5.10" departSpeed="0.00" departDelay="0.20" arrival="57864.00" arrivalLane="-653473569#5_1" arrivalPos="73.05" arrivalSpeed="14.23" duration="43.00" routeLength="312.95" waitingTime="9.00" waitingCount="1" stopTime="0.00" timeLoss="19.42" rerouteNo="1" devices="tripinfo_carIn114105:1 routing_carIn114105:1" vType="default_016" speedFactor="1.03" vaporized=""/>
    <tripinfo id="carIn77943:1" depart="57608.00" departLane="124812856#0_1" departPos="5.10" departSpeed="0.00" departDelay="2.50" arrival="57866.00" arrivalLane="-653473569#5_1" arrivalPos="73.05" arrivalSpeed="14.29" duration="258.00" routeLength="450.40" waitingTime="207.00" waitingCount="3" stopTime="0.00" timeLoss="226.68" rerouteNo="1" devices="tripinfo_carIn77943:1 routing_carIn77943:1" vType="default_016" speedFactor="1.07" vaporized=""/>
    <tripinfo id="carIn26407:1" depart="57673.00" departLane="25145012#7_1" departPos="5.10" departSpeed="0.00" departDelay="0.50" arrival="57866.00" arrivalLane="201956811#0_1" arrivalPos="40.40" arrivalSpeed="14.57" duration="193.00" routeLength="384.54" waitingTime="135.00" waitingCount="5" stopTime="0.00" timeLoss="165.83" rerouteNo="1" devices="tripinfo_carIn26407:1 routing_carIn26407:1" vType="default_016" speedFactor="1.08" vaporized=""/>