<?xml version="1.0" encoding="UTF-8"?>

<!-- generated on 2023-08-31 12:44:50 by Eclipse SUMO libsumo Version 1.18.0
<configuration xmlns:xsi="http://www.w3.org/2001/XMLSchema-instance" xsi:noNamespaceSchemaLocation="http://sumo.dlr.de/xsd/libsumoConfiguration.xsd">

    <input>
        <net-file value="/home/stefan/RESCO/./environments/ingolstadt7/ingolstadt7.net.xml"/>
        <route-files value="/home/stefan/RESCO/./environments/ingolstadt7/ingolstadt7.rou.xml"/>
    </input>

    <output>
        <tripinfo-output value="/home/stefan/results/RAINBOW-tr0-ingolstadt7-7-drq_norm-wait_norm/tripinfo_73.xml"/>
        <tripinfo-output.write-unfinished value="true"/>
    </output>

    <time>
        <begin value="57600"/>
        <end value="61200"/>
    </time>

    <processing>
        <time-to-teleport value="-1"/>
    </processing>

    <report>
        <no-warnings value="True"/>
        <no-step-log value="True"/>
    </report>

    <random_number>
        <random value="true"/>
    </random_number>

</configuration>
-->

<tripinfos xmlns:xsi="http://www.w3.org/2001/XMLSchema-instance" xsi:noNamespaceSchemaLocation="http://sumo.dlr.de/xsd/tripinfo_file.xsd">
    <tripinfo id="carIn89578:1" depart="57614.00" departLane="124812856#0_1" departPos="5.10" departSpeed="0.00" departDelay="3.60" arrival="57630.00" arrivalLane="201956810_1" arrivalPos="71.65" arrivalSpeed="14.83" duration="16.00" routeLength="134.91" waitingTime="0.00" waitingCount="0" stopTime="0.00" timeLoss="5.80" rerouteNo="1" devices="tripinfo_carIn89578:1 routing_carIn89578:1" vType="default_016" speedFactor="1.13" vaporized=""/>
    <tripinfo id="carIn28951:1" depart="57606.00" departLane="10425609#0_1" departPos="5.10" departSpeed="0.00" departDelay="0.20" arrival="57647.00" arrivalLane="-653473569#5_1" arrivalPos="73.05" arrivalSpeed="13.22" duration="41.00" routeLength="312.95" waitingTime="7.00" waitingCount="1" stopTime="0.00" timeLoss="16.40" rerouteNo="1" devices="tripinfo_carIn28951:1 routing_carIn28951:1" vType="default_016" speedFactor="0.98" vaporized=""/>
    <tripinfo id="carIn28488:1" depart="57611.00" departLane="653473569#5_1" departPos="5.10" departSpeed="0.00" departDelay="0.80" arrival="57657.00" arrivalLane="201956820_1" arrivalPos="48.33" arrivalSpeed="13.60" duration="46.00" routeLength="437.07" waitingTime="4.00" waitingCount="1" stopTime="0.00" timeLoss="14.72" rerouteNo="1" devices="tripinfo_carIn28488:1 routing_carIn28488:1" vType="default_016" speedFactor="1.03" vaporized=""/>
    <tripinfo id="carIn105842:1" depart="57601.00" departLane="653473569#5_1" departPos="5.10" departSpeed="0.00" departDelay="0.80" arrival="57660.00" arrivalLane="201956811#0_1" arrivalPos="40.40" arrivalSpeed="12.08" duration="59.00" routeLength="313.24" waitingTime="18.00" waitingCount="2" stopTime="0.00" timeLoss="32.68" rerouteNo="1" devices="tripinfo_carIn105842:1 routing_carIn105842:1" vType="default_016" speedFactor="0.91" vaporized=""/>
    <tripinfo id="carIn25202:1" depart="57629.00" departLane="315358253#1_1" departPos="5.10" departSpeed="0.00" departDelay="1.50" arrival="57661.00" arrivalLane="32978638#0_1" arrivalPos="49.29" arrivalSpeed="15.52" duration="32.00" routeLength="405.15" waitingTime="0.00" waitingCount="0" stopTime="0.00" timeLoss="6.06" rerouteNo="1" devices="tripinfo_carIn25202:1 routing_carIn25202:1" vType="default_016" speedFactor="1.20" vaporized=""/>
    <tripinfo id="carIn106322:1" depart="57614.00" departLane="653473569#5_1" departPos="5.10" departSpeed="0.00" departDelay="2.20" arrival="57662.00" arrivalLane="201956811#0_1" arrivalPos="40.40" arrivalSpeed="12.85" duration="48.00" routeLength="313.24" waitingTime="7.00" waitingCount="2" stopTime="0.00" timeLoss="22.40" rerouteNo="1" devices="tripinfo_carIn106322:1 routing_carIn106322:1" vType="default_016" speedFactor="0.95" vaporized=""/>
    <tripinfo id="randUni10474:1" depart="57605.00" departLane="124812856#0_1" departPos="5.10" departSpeed="0.00" departDelay="0.20" arrival="57665.00" arrivalLane="-653473569#5_1" arrivalPos="73.05" arrivalSpeed="11.53" duration="60.00" routeLength="450.40" waitingTime="7.00" waitingCount="1" stopTime="0.00" timeLoss="22.91" rerouteNo="1" devices="tripinfo_randUni10474:1 routing_randUni10474:1" vType="random_016" speedFactor="0.89" vaporized=""/>
    <tripinfo id="carIn107084:1" depart="57601.00" departLane="124812856#0_1" departPos="5.10" departSpeed="0.00" departDelay="0.70" arrival="57667.00" arrivalLane="-653473569#5_1" arrivalPos="73.05" arrivalSpeed="13.58" duration="66.00" routeLength="450.40" waitingTime="8.00" waitingCount="2" stopTime="0.00" timeLoss="34.58" rerouteNo="1" devices="tripinfo_carIn107084:1 routing_carIn107084:1" vType="default_016" speedFactor="1.07" vaporized=""/>
    <tripinfo id="h15454c2:3" depart="57612.00" departLane="24608844_1" departPos="5.10" departSpeed="0.00" departDelay="0.50" arrival="57667.00" arrivalLane="32978638#0_1" arrivalPos="49.29" arrivalSpeed="13.38" duration="55.00" routeLength="354.79" waitingTime="10.00" waitingCount="1" stopTime="0.00" timeLoss="21.73" rerouteNo="1" devices="tripinfo_h15454c2:3 routing_h15454c2:3" vType="default_016" speedFactor="1.03" vaporized=""/>
    <tripinfo id="carIn77943:1" depart="57608.00" departLane="124812856#0_1" departPos="5.10" departSpeed="0.00" departDelay="2.50" arrival="57671.00" arrivalLane="-653473569#5_1" arrivalPos="73.05" arrivalSpeed="11.48" duration="63.00" routeLength="450.40" waitingTime="6.00" waitingCount="1" stopTime="0.00" timeLoss="23.86" rerouteNo="1" devices="tripinfo_carIn77943:1 routing_carIn77943:1" vType="default_016" speedFactor="0.86" vaporized=""/>
    <tripinfo id="carIn925:1" depart="57654.00" departLane="124812856#0_1" departPos="5.10" departSpeed="0.00" departDelay="27.90" arrival="57671.00" arrivalLane="201956810_1" arrivalPos="71.65" arrivalSpeed="12.80" duration="17.00" routeLength="134.91" waitingTime="0.00" waitingCount="0" stopTime="0.00" timeLoss="5.19" rerouteNo="1" devices="tripinfo_carIn925:1 routing_carIn925:1" vType="default_016" speedFactor="0.94" vaporized=""/>
    <tripinfo id="carIn81046:1" depart="57611.00" departLane="124812856#0_1" departPos="5.10" departSpeed="0.00" departDelay="2.50" arrival="57674.00" arrivalLane="-653473569#5_1" arrivalPos="73.05" arrivalSpeed="13.32" duration="63.00" routeLength="450.40" waitingTime="5.00" waitingCount="1" stopTime="0.00" timeLoss="30.19" rerouteNo="1" devices="tripinfo_carIn81046:1 routing_carIn81046:1" vType="default_016" speedFactor="1.01" vaporized=""/>
    <tripinfo id="carIn77438:1" depart="57618.00" departLane="124812856#0_1" departPos="5.10" departSpeed="0.00" departDelay="5.10" arrival="57676.00" arrivalLane="-653473569#5_1" arrivalPos="73.05" arrivalSpeed="13.01" duration="58.00" routeLength="450.40" waitingTime="3.00" waitingCount="1" stopTime="0.00" timeLoss="24.26" rerouteNo="1" devices="tripinfo_carIn77438:1 routing_carIn77438:1" vType="default_016" speedFactor="0.98" vaporized=""/>
    <tripinfo id="carIn55461:1" depart="57652.00" departLane="10425609#0_1" departPos="5.10" departSpeed="0.00" departDelay="0.30" arrival="57677.00" arrivalLane="201956810_1" arrivalPos="71.65" arrivalSpeed="14.82" duration="25.00" routeLength="255.78" waitingTime="0.00" waitingCount="0" stopTime="0.00" timeLoss="6.71" rerouteNo="1" devices="tripinfo_carIn55461:1 routing_carIn55461:1" vType="default_016" speedFactor="1.08" vaporized=""/>
    <tripinfo id="carIn96537:1" depart="57615.00" departLane="124812856#0_1" departPos="5.10" departSpeed="0.00" departDelay="3.80" arrival="57678.00" arrivalLane="202070434#2_1" arrivalPos="39.03" arrivalSpeed="10.51" duration="63.00" routeLength="569.75" waitingTime="2.00" waitingCount="1" stopTime="0.00" timeLoss="13.70" rerouteNo="1" devices="tripinfo_carIn96537:1 routing_carIn96537:1" vType="default_016" speedFactor="0.84" vaporized=""/>
    <tripinfo id="h19804c1:3" depart="57624.00" departLane="124812856#0_1" departPos="5.10" departSpeed="0.00" departDelay="8.50" arrival="57679.00" arrivalLane="-653473569#5_1" arrivalPos="73.05" arrivalSpeed="12.83" duration="55.00" routeLength="450.40" waitingTime="0.00" waitingCount="0" stopTime="0.00" timeLoss="20.71" rerouteNo="1" devices="tripinfo_h19804c1:3 routing_h19804c1:3" vType="default_016" speedFactor="0.98" vaporized=""/>
    <tripinfo id="carIn26410:1" depart="57621.00" departLane="124812856#0_1" departPos="5.10" departSpeed="0.00" departDelay="7.50" arrival="57680.00" arrivalLane="202070434#2_1" arrivalPos="39.03" arrivalSpeed="14.52" duration="59.00" routeLength="569.75" waitingTime="0.00" waitingCount="0" stopTime="0.00" timeLoss="21.47" rerouteNo="1" devices="tripinfo_carIn26410:1 routing_carIn26410:1" vType="default_016" speedFactor="1.11" vaporized=""/>
    <tripinfo id="carIn767:1" depart="57633.00" departLane="124812856#0_1" departPos="5.10" departSpeed="0.00" departDelay="14.50" arrival="57684.00" arrivalLane="-653473569#5_1" arrivalPos="73.05" arrivalSpeed="14.58" duration="51.00" routeLength="450.40" waitingTime="0.00" waitingCount="0" stopTime="0.00" timeLoss="19.04" rerouteNo="1" devices="tripinfo_carIn767:1 routing_carIn767:1" vType="default_016" speedFactor="1.05" vaporized=""/>
    <tripinfo id="carIn51024:1" depart="57627.00" departLane="124812856#0_1" departPos="5.10" departSpeed="0.00" departDelay="10.90" arrival="57686.00" arrivalLane="202070434#2_1" arrivalPos="39.03" arrivalSpeed="13.90" duration="59.00" routeLength="569.75" waitingTime="1.00" waitingCount="1" stopTime="0.00" timeLoss="18.34" rerouteNo="1" devices="tripinfo_carIn51024:1 routing_carIn51024:1" vType="default_016" speedFactor="1.02" vaporized=""/>
    <tripinfo id="h645c1:1" depart="57622.00" departLane="266565295#5_1" departPos="5.10" departSpeed="0.00" departDelay="0.40" arrival="57686.00" arrivalLane="-315358253#1_1" arrivalPos="63.90" arrivalSpeed="10.45" duration="64.00" routeLength="547.76" waitingTime="2.00" waitingCount="1" stopTime="0.00" timeLoss="13.87" rerouteNo="1" devices="tripinfo_h645c1:1 routing_h645c1:1" vType="default_016" speedFactor="0.81" vaporized=""/>
    <tripinfo id="carIn33538:1" depart="57671.00" departLane="37386279_1" departPos="5.10" departSpeed="0.00" departDelay="0.30" arrival="57687.00" arrivalLane="-24634414#4_1" arrivalPos="22.88" arrivalSpeed="7.19" duration="16.00" routeLength="125.23" waitingTime="0.00" waitingCount="0" stopTime="0.00" timeLoss="3.97" rerouteNo="0" devices="tripinfo_carIn33538:1 routing_carIn33538:1" vType="default_016" speedFactor="0.96" vaporized=""/>
    <tripinfo id="carIn128705:1" depart="57630.00" departLane="124812856#0_1" departPos="5.10" departSpeed="0.00" departDelay="11.60" arrival="57688.00" arrivalLane="202070434#2_1" arrivalPos="39.03" arrivalSpeed="13.76" duration="58.00" routeLength="569.75" waitingTime="0.00" waitingCount="0" stopTime="0.00" timeLoss="17.95" rerouteNo="1" devices="tripinfo_carIn128705:1 routing_carIn128705:1" vType="default_016" speedFactor="1.04" vaporized=""/>
    <tripinfo id="h21989c1:1" depart="57636.00" departLane="124812856#0_1" departPos="5.10" departSpeed="0.00" departDelay="15.60" arrival="57690.00" arrivalLane="202070434#2_1" arrivalPos="39.03" arrivalSpeed="16.50" duration="54.00" routeLength="569.75" waitingTime="0.00" waitingCount="0" stopTime="0.00" timeLoss="18.61" rerouteNo="1" devices="tripinfo_h21989c1:1 routing_h21989c1:1" vType="default_016" speedFactor="1.19" vaporized=""/>
    <tripinfo id="carIn131078:1" depart="57679.00" departLane="124812856#0_1" departPos="5.10" departSpeed="0.00" departDelay="43.60" arrival="57695.00" arrivalLane="201956810_1" arrivalPos="71.65" arrivalSpeed="14.69" duration="16.00" routeLength="134.91" waitingTime="0.00" waitingCount="0" stopTime="0.00" timeLoss="5.69" rerouteNo="1" devices="tripinfo_carIn131078:1 routing_carIn131078:1" vType="default_016" speedFactor="1.09" vaporized=""/>
    <tripinfo id="carIn107842:1" depart="57639.00" departLane="124812856#0_1" departPos="5.10" departSpeed="0.00" departDelay="17.90" arrival="57696.00" arrivalLane="-653473569#5_1" arrivalPos="73.05" arrivalSpeed="10.34" duration="57.00" routeLength="450.40" waitingTime="3.00" waitingCount="1" stopTime="0.00" timeLoss="13.10" rerouteNo="1" devices="tripinfo_carIn107842:1 routing_carIn107842:1" vType="default_016" speedFactor="0.76" vaporized=""/>
    <tripinfo id="h15382c1:3" depart="57642.00" departLane="124812856#0_1" departPos="5.10" departSpeed="0.00" departDelay="19.80" arrival="57698.00" arrivalLane="-653473569#5_1" arrivalPos="73.05" arrivalSpeed="13.97" duration="56.00" routeLength="450.40" waitingTime="2.00" waitingCount="1" stopTime="0.00" timeLoss="25.21" rerouteNo="1" devices="tripinfo_h15382c1:3 routing_h15382c1:3" vType="default_016" speedFactor="1.10" vaporized=""/>
    <tripinfo id="h21130c2:1" depart="57630.00" departLane="10425609#0_1" departPos="5.10" departSpeed="0.00" departDelay="0.10" arrival="57698.00" arrivalLane="202070434#2_1" arrivalPos="39.03" arrivalSpeed="13.81" duration="68.00" routeLength="432.30" waitingTime="21.00" waitingCount="1" stopTime="0.00" timeLoss="38.02" rerouteNo="1" devices="tripinfo_h21130c2:1 routing_h21130c2:1" vType="default_016" speedFactor="1.08" vaporized=""/>
    <tripinfo id="carIn3969:1" depart="57645.00" departLane="124812856#0_1" departPos="5.10" departSpeed="0.00" departDelay="21.30" arrival="57700.00" arrivalLane="-653473569#5_1" arrivalPos="73.05" arrivalSpeed="13.26" duration="55.00" routeLength="450.40" waitingTime="2.00" waitingCount="1" stopTime="0.00" timeLoss="19.64" rerouteNo="1" devices="tripinfo_carIn3969:1 routing_carIn3969:1" vType="default_016" speedFactor="0.96" vaporized=""/>
    <tripinfo id="carIn56649:1" depart="57648.00" departLane="124812856#0_1" departPos="5.10" departSpeed="0.00" departDelay="24.10" arrival="57705.00" arrivalLane="-653473569#5_1" arrivalPos="73.05" arrivalSpeed="13.53" duration="57.00" routeLength="450.40" waitingTime="2.00" waitingCount="2" stopTime="0.00" timeLoss="23.24" rerouteNo="1" devices="tripinfo_carIn56649:1 routing_carIn56649:1" vType="default_016" speedFactor="0.99" vaporized=""/>
    <tripinfo id="carIn38625:1" depart="57651.00" departLane="124812856#0_1" departPos="5.10" departSpeed="0.00" departDelay="25.50" arrival="57707.00" arrivalLane="-653473569#5_1" arrivalPos="73.05" arrivalSpeed="14.86" duration="56.00" routeLength="450.40" waitingTime="1.00" waitingCount="1" stopTime="0.00" timeLoss="25.68" rerouteNo="1" devices="tripinfo_carIn38625:1 routing_carIn38625:1" vType="default_016" speedFactor="1.12" vaporized=""/>
    <tripinfo id="carIn64859:1" depart="57658.00" departLane="124812856#0_1" departPos="5.10" departSpeed="0.00" departDelay="29.60" arrival="57714.00" arrivalLane="-653473569#5_1" arrivalPos="73.05" arrivalSpeed="13.38" duration="56.00" routeLength="450.40" waitingTime="3.00" waitingCount="1" stopTime="0.00" timeLoss="21.85" rerouteNo="1" devices="tripinfo_carIn64859:1 routing_carIn64859:1" vType="default_016" speedFactor="0.97" vaporized=""/>
    <tripinfo id="carIn17767:1" depart="57655.00" departLane="124812856#0_1" departPos="5.10" departSpeed="0.00" departDelay="27.80" arrival="57716.00" arrivalLane="-653473569#5_1" arrivalPos="73.05" arrivalSpeed="14.43" duration="61.00" routeLength="450.40" waitingTime="1.00" waitingCount="1" stopTime="0.00" timeLoss="29.28" rerouteNo="1" devices="tripinfo_carIn17767:1 routing_carIn17767:1" vType="default_016" speedFactor="1.05" vaporized=""/>
    <tripinfo id="carIn12900:1" depart="57700.00" departLane="124812856#0_1" departPos="5.10" departSpeed="0.00" departDelay="51.80" arrival="57716.00" arrivalLane="201956810_1" arrivalPos="71.65" arrivalSpeed="11.84" duration="16.00" routeLength="134.91" waitingTime="0.00" waitingCount="0" stopTime="0.00" timeLoss="4.13" rerouteNo="1" devices="tripinfo_carIn12900:1 routing_carIn12900:1" vType="default_016" speedFactor="0.92" vaporized=""/>
    <tripinfo id="h3688c1:1" depart="57679.00" departLane="315358253#1_1" departPos="5.10" departSpeed="0.00" departDelay="0.50" arrival="57720.00" arrivalLane="32978638#0_1" arrivalPos="49.29" arrivalSpeed="11.78" duration="41.00" routeLength="405.15" waitingTime="0.00" waitingCount="0" stopTime="0.00" timeLoss="6.40" rerouteNo="1" devices="tripinfo_h3688c1:1 routing_h3688c1:1" vType="default_016" speedFactor="0.89" vaporized=""/>
    <tripinfo id="carIn5482:1" depart="57617.00" departLane="653473569#5_1" departPos="5.10" departSpeed="0.00" departDelay="3.60" arrival="57721.00" arrivalLane="201956811#0_1" arrivalPos="40.40" arrivalSpeed="14.27" duration="104.00" routeLength="313.24" waitingTime="57.00" waitingCount="4" stopTime="0.00" timeLoss="82.95" rerouteNo="1" devices="tripinfo_carIn5482:1 routing_carIn5482:1" vType="default_016" speedFactor="1.13" vaporized=""/>
    <tripinfo id="carIn36103:1" depart="57620.00" departLane="653473569#5_1" departPos="5.10" departSpeed="0.00" departDelay="4.00" arrival="57723.00" arrivalLane="201956811#0_1" arrivalPos="40.40" arrivalSpeed="15.04" duration="103.00" routeLength="313.24" waitingTime="51.00" waitingCount="5" stopTime="0.00" timeLoss="81.89" rerouteNo="1" devices="tripinfo_carIn36103:1 routing_carIn36103:1" vType="default_016" speedFactor="1.10" vaporized=""/>
    <tripinfo id="carIn102997:1" depart="57623.00" departLane="653473569#5_1" departPos="5.10" departSpeed="0.00" departDelay="4.80" arrival="57726.00" arrivalLane="201956811#0_1" arrivalPos="40.40" arrivalSpeed="12.20" duration="103.00" routeLength="313.24" waitingTime="43.00" waitingCount="5" stopTime="0.00" timeLoss="76.89" rerouteNo="1" devices="tripinfo_carIn102997:1 routing_carIn102997:1" vType="default_016" speedFactor="0.89" vaporized=""/>
    <tripinfo id="carIn75554:1" depart="57627.00" departLane="653473569#5_1" departPos="5.10" departSpeed="0.00" departDelay="6.20" arrival="57729.00" arrivalLane="201956811#0_1" arrivalPos="40.40" arrivalSpeed="14.86" duration="102.00" routeLength="313.24" waitingTime="42.00" waitingCount="6" stopTime="0.00" timeLoss="79.88" rerouteNo="1" devices="tripinfo_carIn75554:1 routing_carIn75554:1" vType="default_016" speedFactor="1.08" vaporized=""/>
    <tripinfo id="randUni20090:1" depart="57630.00" departLane="653473569#5_1" departPos="5.10" departSpeed="0.00" departDelay="2.00" arrival="57731.00" arrivalLane="201956811#0_1" arrivalPos="40.40" arrivalSpeed="14.47" duration="101.00" routeLength="313.24" waitingTime="32.00" waitingCount="6" stopTime="0.00" timeLoss="78.13" rerouteNo="1" devices="tripinfo_randUni20090:1 routing_randUni20090:1" vType="random_016" speedFactor="1.05" vaporized=""/>
    <tripinfo id="carIn48979:1" depart="57661.00" departLane="124812856#0_1" departPos="5.10" departSpeed="0.00" departDelay="32.10" arrival="57734.00" arrivalLane="-653473569#5_1" arrivalPos="73.05" arrivalSpeed="14.61" duration="73.00" routeLength="450.40" waitingTime="12.00" waitingCount="1" stopTime="0.00" timeLoss="41.74" rerouteNo="1" devices="tripinfo_carIn48979:1 routing_carIn48979:1" vType="default_016" speedFactor="1.06" vaporized=""/>
    <tripinfo id="carIn37268:1" depart="57636.00" departLane="653473569#5_1" departPos="5.10" departSpeed="0.00" departDelay="0.90" arrival="57734.00" arrivalLane="201956811#0_1" arrivalPos="40.40" arrivalSpeed="12.26" duration="98.00" routeLength="313.24" waitingTime="28.00" waitingCount="7" stopTime="0.00" timeLoss="72.38" rerouteNo="1" devices="tripinfo_carIn37268:1 routing_carIn37268:1" vType="default_016" speedFactor="0.94" vaporized=""/>
    <tripinfo id="carIn129760:1" depart="57661.00" departLane="653473569#5_1" departPos="5.10" departSpeed="0.00" departDelay="0.80" arrival="57736.00" arrivalLane="201956811#0_1" arrivalPos="40.40" arrivalSpeed="14.32" duration="75.00" routeLength="313.24" waitingTime="19.00" waitingCount="5" stopTime="0.00" timeLoss="52.98" rerouteNo="1" devices="tripinfo_carIn129760:1 routing_carIn129760:1" vType="default_016" speedFactor="1.11" vaporized=""/>
    <tripinfo id="h317c2:1" depart="57707.00" departLane="-32978638#0_1" departPos="5.10" departSpeed="0.00" departDelay="0.10" arrival="57737.00" arrivalLane="-266565295#5_1" arrivalPos="172.76" arrivalSpeed="15.54" duration="30.00" routeLength="370.53" waitingTime="0.00" waitingCount="0" stopTime="0.00" timeLoss="6.74" rerouteNo="1" devices="tripinfo_h317c2:1 routing_h317c2:1" vType="default_016" speedFactor="1.20" vaporized=""/>
    <tripinfo id="carIn88932:1" depart="57664.00" departLane="124812856#0_1" departPos="5.10" departSpeed="0.00" departDelay="33.40" arrival="57738.00" arrivalLane="-653473569#5_1" arrivalPos="73.05" arrivalSpeed="11.19" duration="74.00" routeLength="450.40" waitingTime="11.00" waitingCount="1" stopTime="0.00" timeLoss="36.45" rerouteNo="1" devices="tripinfo_carIn88932:1 routing_carIn88932:1" vType="default_016" speedFactor="0.89" vaporized=""/>
    <tripinfo id="carIn129626:1" depart="57664.00" departLane="653473569#5_1" departPos="5.10" departSpeed="0.00" departDelay="1.60" arrival="57739.00" arrivalLane="201956811#0_1" arrivalPos="40.40" arrivalSpeed="13.47" duration="75.00" routeLength="313.24" waitingTime="17.00" waitingCount="4" stopTime="0.00" timeLoss="51.76" rerouteNo="1" devices="tripinfo_carIn129626:1 routing_carIn129626:1" vType="default_016" speedFactor="1.04" vaporized=""/>
    <tripinfo id="h20539c1:3" depart="57667.00" departLane="653473569#5_1" departPos="5.10" departSpeed="0.00" departDelay="2.20" arrival="57741.00" arrivalLane="201956811#0_1" arrivalPos="40.40" arrivalSpeed="15.04" duration="74.00" routeLength="313.24" waitingTime="19.00" waitingCount="4" stopTime="0.00" timeLoss="51.98" rerouteNo="1" devices="tripinfo_h20539c1:3 routing_h20539c1:3" vType="default_016" speedFactor="1.10" vaporized=""/>
    <tripinfo id="carIn91254:1" depart="57696.00" departLane="653473569#5_1" departPos="5.10" departSpeed="0.00" departDelay="0.10" arrival="57743.00" arrivalLane="201956811#0_1" arrivalPos="40.40" arrivalSpeed="13.74" duration="47.00" routeLength="313.24" waitingTime="5.00" waitingCount="1" stopTime="0.00" timeLoss="24.13" rerouteNo="1" devices="tripinfo_carIn91254:1 routing_carIn91254:1" vType="default_016" speedFactor="1.08" vaporized=""/>
    <tripinfo id="carIn100220:1" depart="57690.00" departLane="124812856#0_1" departPos="5.10" departSpeed="0.00" departDelay="51.00" arrival="57744.00" arrivalLane="202070434#2_1" arrivalPos="39.03" arrivalSpeed="13.34" duration="54.00" routeLength="569.75" waitingTime="1.00" waitingCount="1" stopTime="0.00" timeLoss="13.71" rerouteNo="1" devices="tripinfo_carIn100220:1 routing_carIn100220:1" vType="default_016" speedFactor="1.04" vaporized=""/>
    <tripinfo id="h15353c2:1" depart="57667.00" departLane="124812856#0_1" departPos="5.10" departSpeed="0.00" departDelay="36.30" arrival="57745.00" arrivalLane="-653473569#5_1" arrivalPos="73.05" arrivalSpeed="12.08" duration="78.00" routeLength="450.40" waitingTime="11.00" waitingCount="2" stopTime="0.00" timeLoss="42.11" rerouteNo="1" devices="tripinfo_h15353c2:1 routing_h15353c2:1" vType="default_016" speedFactor="0.93" vaporized=""/>
    <tripinfo id="carIn44740:1" depart="57670.00" departLane="124812856#0_1" departPos="5.10" departSpeed="0.00" departDelay="37.70" arrival="57747.00" arrivalLane="-653473569#5_1" arrivalPos="73.05" arrivalSpeed="12.79" duration="77.00" routeLength="450.40" waitingTime="11.00" waitingCount="2" stopTime="0.00" timeLoss="41.75" rerouteNo="1" devices="tripinfo_carIn44740:1 routing_carIn44740:1" vType="default_016" speedFactor="0.96" vaporized=""/>
    <tripinfo id="randUni29093:1" depart="57673.00" departLane="124812856#0_1" departPos="5.10" departSpeed="0.00" departDelay="40.00" arrival="57751.00" arrivalLane="-653473569#5_1" arrivalPos="73.05" arrivalSpeed="11.32" duration="78.00" routeLength="450.40" waitingTime="9.00" waitingCount="1" stopTime="0.00" timeLoss="39.10" rerouteNo="1" devices="tripinfo_randUni29093:1 routing_randUni29093:1" vType="random_016" speedFactor="0.86" vaporized=""/>
    <tripinfo id="randUni22709:1" depart="57718.00" departLane="315358253#1_1" departPos="5.10" departSpeed="0.00" departDelay="0.20" arrival="57751.00" arrivalLane="32978638#0_1" arrivalPos="49.29" arrivalSpeed="16.40" duration="33.00" routeLength="405.15" waitingTime="0.00" waitingCount="0" stopTime="0.00" timeLoss="6.60" rerouteNo="1" devices="tripinfo_randUni22709:1 routing_randUni22709:1" vType="random_016" speedFactor="1.18" vaporized=""/>
    <tripinfo id="carIn64490:1" depart="57676.00" departLane="124812856#0_1" departPos="5.10" departSpeed="0.00" departDelay="42.10" arrival="57754.00" arrivalLane="-653473569#5_1" arrivalPos="73.05" arrivalSpeed="13.09" duration="78.00" routeLength="450.40" waitingTime="9.00" waitingCount="1" stopTime="0.00" timeLoss="45.05" rerouteNo="1" devices="tripinfo_carIn64490:1 routing_carIn64490:1" vType="default_016" speedFactor="1.01" vaporized=""/>
    <tripinfo id="carIn99509:1" depart="57720.00" departLane="-32978638#0_1" departPos="5.10" departSpeed="0.00" departDelay="0.20" arrival="57757.00" arrivalLane="-315358253#1_1" arrivalPos="63.90" arrivalSpeed="14.40" duration="37.00" routeLength="422.17" waitingTime="0.00" waitingCount="0" stopTime="0.00" timeLoss="5.93" rerouteNo="1" devices="tripinfo_carIn99509:1 routing_carIn99509:1" vType="default_015" speedFactor="1.04" vaporized=""/>
    <tripinfo id="carIn13362:1" depart="57681.00" departLane="124812856#0_1" departPos="5.10" departSpeed="0.00" departDelay="45.40" arrival="57758.00" arrivalLane="-653473569#5_1" arrivalPos="73.05" arrivalSpeed="11.26" duration="77.00" routeLength="450.40" waitingTime="8.00" waitingCount="1" stopTime="0.00" timeLoss="37.72" rerouteNo="1" devices="tripinfo_carIn13362:1 routing_carIn13362:1" vType="default_016" speedFactor="0.86" vaporized=""/>
    <tripinfo id="carIn99385:1" depart="57684.00" departLane="124812856#0_1" departPos="5.10" departSpeed="0.00" departDelay="46.90" arrival="57760.00" arrivalLane="-653473569#5_1" arrivalPos="73.05" arrivalSpeed="12.59" duration="76.00" routeLength="450.40" waitingTime="8.00" waitingCount="1" stopTime="0.00" timeLoss="39.12" rerouteNo="1" devices="tripinfo_carIn99385:1 routing_carIn99385:1" vType="default_016" speedFactor="0.92" vaporized=""/>
    <tripinfo id="carIn106797:1" depart="57726.00" departLane="653473569#5_1" departPos="5.10" departSpeed="0.00" departDelay="1.00" arrival="57761.00" arrivalLane="201956811#0_1" arrivalPos="40.40" arrivalSpeed="16.00" duration="35.00" routeLength="313.24" waitingTime="0.00" waitingCount="0" stopTime="0.00" timeLoss="15.51" rerouteNo="1" devices="tripinfo_carIn106797:1 routing_carIn106797:1" vType="default_016" speedFactor="1.24" vaporized=""/>
    <tripinfo id="carIn11547:1" depart="57687.00" departLane="124812856#0_1" departPos="5.10" departSpeed="0.00" departDelay="49.30" arrival="57764.00" arrivalLane="-653473569#5_1" arrivalPos="73.05" arrivalSpeed="13.61" duration="77.00" routeLength="450.40" waitingTime="9.00" waitingCount="3" stopTime="0.00" timeLoss="43.50" rerouteNo="1" devices="tripinfo_carIn11547:1 routing_carIn11547:1" vType="default_016" speedFactor="0.99" vaporized=""/>
    <tripinfo id="carIn74045:1" depart="57724.00" departLane="315358253#1_1" departPos="5.10" departSpeed="0.00" departDelay="3.00" arrival="57764.00" arrivalLane="32978638#0_2" arrivalPos="49.29" arrivalSpeed="15.30" duration="40.00" routeLength="409.47" waitingTime="0.00" waitingCount="0" stopTime="0.00" timeLoss="12.91" rerouteNo="1" devices="tripinfo_carIn74045:1 routing_carIn74045:1" vType="default_016" speedFactor="1.14" vaporized=""/>
    <tripinfo id="h134c1:3" depart="57721.00" departLane="315358253#1_1" departPos="5.10" departSpeed="0.00" departDelay="1.60" arrival="57765.00" arrivalLane="32978638#0_1" arrivalPos="49.29" arrivalSpeed="10.83" duration="44.00" routeLength="405.15" waitingTime="0.00" waitingCount="0" stopTime="0.00" timeLoss="7.76" rerouteNo="1" devices="tripinfo_h134c1:3 routing_h134c1:3" vType="default_016" speedFactor="0.83" vaporized=""/>
    <tripinfo id="carIn25314:1" depart="57693.00" departLane="124812856#0_1" departPos="5.10" departSpeed="0.00" departDelay="52.80" arrival="57766.00" arrivalLane="-653473569#5_1" arrivalPos="73.05" arrivalSpeed="15.59" duration="73.00" routeLength="450.40" waitingTime="8.00" waitingCount="1" stopTime="0.00" timeLoss="44.42" rerouteNo="1" devices="tripinfo_carIn25314:1 routing_carIn25314:1" vType="default_016" speedFactor="1.18" vaporized=""/>
    <tripinfo id="carIn26708:1" depart="57729.00" departLane="653473569#5_1" departPos="5.10" departSpeed="0.00" departDelay="2.40" arrival="57770.00" arrivalLane="201956811#0_1" arrivalPos="40.40" arrivalSpeed="13.91" duration="41.00" routeLength="313.24" waitingTime="5.00" waitingCount="1" stopTime="0.00" timeLoss="18.35" rerouteNo="1" devices="tripinfo_carIn26708:1 routing_carIn26708:1" vType="default_016" speedFactor="1.07" vaporized=""/>
    <tripinfo id="h330c1:1" depart="57736.00" departLane="-32978638#0_1" departPos="5.10" departSpeed="0.00" departDelay="0.20" arrival="57770.00" arrivalLane="-266565295#5_1" arrivalPos="172.76" arrivalSpeed="13.09" duration="34.00" routeLength="370.53" waitingTime="0.00" waitingCount="0" stopTime="0.00" timeLoss="6.59" rerouteNo="1" devices="tripinfo_h330c1:1 routing_h330c1:1" vType="default_016" speedFactor="1.02" vaporized=""/>
    <tripinfo id="carIn32621:1" depart="57696.00" departLane="124812856#0_1" departPos="5.10" departSpeed="0.00" departDelay="53.00" arrival="57775.00" arrivalLane="-653473569#5_1" arrivalPos="73.05" arrivalSpeed="12.94" duration="79.00" routeLength="450.40" waitingTime="12.00" waitingCount="2" stopTime="0.00" timeLoss="44.46" rerouteNo="1" devices="tripinfo_carIn32621:1 routing_carIn32621:1" vType="default_016" speedFactor="0.97" vaporized=""/>