<?xml version="1.0" encoding="UTF-8"?>

<!-- generated on 2023-08-31 12:36:09 by Eclipse SUMO libsumo Version 1.18.0
<configuration xmlns:xsi="http://www.w3.org/2001/XMLSchema-instance" xsi:noNamespaceSchemaLocation="http://sumo.dlr.de/xsd/libsumoConfiguration.xsd">

    <input>
        <net-file value="/home/stefan/RESCO/./environments/ingolstadt7/ingolstadt7.net.xml"/>
        <route-files value="/home/stefan/RESCO/./environments/ingolstadt7/ingolstadt7.rou.xml"/>
    </input>

    <output>
        <tripinfo-output value="/home/stefan/results/RAINBOW-tr0-ingolstadt7-7-drq_norm-wait_norm/tripinfo_50.xml"/>
        <tripinfo-output.write-unfinished value="true"/>
    </output>

    <time>
        <begin value="57600"/>
        <end value="61200"/>
    </time>

    <processing>
        <time-to-teleport value="-1"/>
    </processing>

    <report>
        <no-warnings value="True"/>
        <no-step-log value="True"/>
    </report>

    <random_number>
        <random value="true"/>
    </random_number>

</configuration>
-->

<tripinfos xmlns:xsi="http://www.w3.org/2001/XMLSchema-instance" xsi:noNamespaceSchemaLocation="http://sumo.dlr.de/xsd/tripinfo_file.xsd">
    <tripinfo id="carIn105842:1" depart="57601.00" departLane="653473569#5_1" departPos="5.10" departSpeed="0.00" departDelay="0.80" arrival="57633.00" arrivalLane="201956811#0_1" arrivalPos="40.40" arrivalSpeed="11.49" duration="32.00" routeLength="313.24" waitingTime="0.00" waitingCount="0" stopTime="0.00" timeLoss="5.04" rerouteNo="1" devices="tripinfo_carIn105842:1 routing_carIn105842:1" vType="default_016" speedFactor="0.88" vaporized=""/>
    <tripinfo id="carIn89578:1" depart="57614.00" departLane="124812856#0_1" departPos="5.10" departSpeed="0.00" departDelay="3.60" arrival="57634.00" arrivalLane="201956810_1" arrivalPos="71.65" arrivalSpeed="14.32" duration="20.00" routeLength="134.91" waitingTime="2.00" waitingCount="1" stopTime="0.00" timeLoss="9.45" rerouteNo="1" devices="tripinfo_carIn89578:1 routing_carIn89578:1" vType="default_016" speedFactor="1.04" vaporized=""/>
    <tripinfo id="carIn107084:1" depart="57601.00" departLane="124812856#0_1" departPos="5.10" departSpeed="0.00" departDelay="0.70" arrival="57635.00" arrivalLane="-653473569#5_1" arrivalPos="73.05" arrivalSpeed="16.53" duration="34.00" routeLength="450.40" waitingTime="0.00" waitingCount="0" stopTime="0.00" timeLoss="6.46" rerouteNo="1" devices="tripinfo_carIn107084:1 routing_carIn107084:1" vType="default_016" speedFactor="1.21" vaporized=""/>
    <tripinfo id="carIn106322:1" depart="57614.00" departLane="653473569#5_1" departPos="5.10" departSpeed="0.00" departDelay="2.20" arrival="57646.00" arrivalLane="201956811#0_1" arrivalPos="40.40" arrivalSpeed="12.55" duration="32.00" routeLength="313.24" waitingTime="0.00" waitingCount="0" stopTime="0.00" timeLoss="6.12" rerouteNo="1" devices="tripinfo_carIn106322:1 routing_carIn106322:1" vType="default_016" speedFactor="0.91" vaporized=""/>
    <tripinfo id="carIn28488:1" depart="57611.00" departLane="653473569#5_1" departPos="5.10" departSpeed="0.00" departDelay="0.80" arrival="57653.00" arrivalLane="201956820_1" arrivalPos="48.33" arrivalSpeed="11.69" duration="42.00" routeLength="437.07" waitingTime="0.00" waitingCount="0" stopTime="0.00" timeLoss="5.32" rerouteNo="1" devices="tripinfo_carIn28488:1 routing_carIn28488:1" vType="default_016" speedFactor="0.87" vaporized=""/>
    <tripinfo id="randUni10474:1" depart="57605.00" departLane="124812856#0_1" departPos="5.10" departSpeed="0.00" departDelay="0.20" arrival="57666.00" arrivalLane="-653473569#5_1" arrivalPos="73.05" arrivalSpeed="10.82" duration="61.00" routeLength="450.40" waitingTime="10.00" waitingCount="1" stopTime="0.00" timeLoss="19.63" rerouteNo="1" devices="tripinfo_randUni10474:1 routing_randUni10474:1" vType="random_016" speedFactor="0.82" vaporized=""/>
    <tripinfo id="carIn925:1" depart="57649.00" departLane="124812856#0_1" departPos="5.10" departSpeed="0.00" departDelay="22.90" arrival="57666.00" arrivalLane="201956810_1" arrivalPos="71.65" arrivalSpeed="11.42" duration="17.00" routeLength="134.91" waitingTime="1.00" waitingCount="1" stopTime="0.00" timeLoss="4.97" rerouteNo="1" devices="tripinfo_carIn925:1 routing_carIn925:1" vType="default_016" speedFactor="0.90" vaporized=""/>
    <tripinfo id="h20232c1:2" depart="57634.00" departLane="-173169611#0_1" departPos="5.10" departSpeed="0.00" departDelay="0.50" arrival="57666.00" arrivalLane="201956820_1" arrivalPos="48.33" arrivalSpeed="13.07" duration="32.00" routeLength="122.35" waitingTime="14.00" waitingCount="1" stopTime="0.00" timeLoss="22.20" rerouteNo="0" devices="tripinfo_h20232c1:2 routing_h20232c1:2" vType="default_016" speedFactor="0.99" vaporized=""/>
    <tripinfo id="carIn77943:1" depart="57608.00" departLane="124812856#0_1" departPos="5.10" departSpeed="0.00" departDelay="2.50" arrival="57667.00" arrivalLane="-653473569#5_1" arrivalPos="73.05" arrivalSpeed="11.96" duration="59.00" routeLength="450.40" waitingTime="6.00" waitingCount="1" stopTime="0.00" timeLoss="21.70" rerouteNo="1" devices="tripinfo_carIn77943:1 routing_carIn77943:1" vType="default_016" speedFactor="0.89" vaporized=""/>
    <tripinfo id="carIn5482:1" depart="57617.00" departLane="653473569#5_1" departPos="5.10" departSpeed="0.00" departDelay="3.60" arrival="57667.00" arrivalLane="201956811#0_1" arrivalPos="40.40" arrivalSpeed="13.49" duration="50.00" routeLength="313.24" waitingTime="9.00" waitingCount="2" stopTime="0.00" timeLoss="29.83" rerouteNo="1" devices="tripinfo_carIn5482:1 routing_carIn5482:1" vType="default_016" speedFactor="1.16" vaporized=""/>
    <tripinfo id="carIn81046:1" depart="57611.00" departLane="124812856#0_1" departPos="5.10" departSpeed="0.00" departDelay="2.50" arrival="57669.00" arrivalLane="-653473569#5_1" arrivalPos="73.05" arrivalSpeed="13.15" duration="58.00" routeLength="450.40" waitingTime="4.00" waitingCount="1" stopTime="0.00" timeLoss="25.71" rerouteNo="1" devices="tripinfo_carIn81046:1 routing_carIn81046:1" vType="default_016" speedFactor="1.03" vaporized=""/>
    <tripinfo id="carIn36103:1" depart="57620.00" departLane="653473569#5_1" departPos="5.10" departSpeed="0.00" departDelay="4.00" arrival="57670.00" arrivalLane="201956811#0_1" arrivalPos="40.40" arrivalSpeed="14.64" duration="50.00" routeLength="313.24" waitingTime="7.00" waitingCount="2" stopTime="0.00" timeLoss="28.52" rerouteNo="1" devices="tripinfo_carIn36103:1 routing_carIn36103:1" vType="default_016" speedFactor="1.13" vaporized=""/>
    <tripinfo id="carIn102997:1" depart="57623.00" departLane="653473569#5_1" departPos="5.10" departSpeed="0.00" departDelay="4.80" arrival="57676.00" arrivalLane="201956811#0_1" arrivalPos="40.40" arrivalSpeed="14.73" duration="53.00" routeLength="313.24" waitingTime="5.00" waitingCount="2" stopTime="0.00" timeLoss="33.18" rerouteNo="1" devices="tripinfo_carIn102997:1 routing_carIn102997:1" vType="default_016" speedFactor="1.21" vaporized=""/>
    <tripinfo id="carIn25202:1" depart="57628.00" departLane="315358253#1_1" departPos="5.10" departSpeed="0.00" departDelay="0.50" arrival="57676.00" arrivalLane="32978638#0_1" arrivalPos="49.29" arrivalSpeed="13.60" duration="48.00" routeLength="405.15" waitingTime="8.00" waitingCount="1" stopTime="0.00" timeLoss="18.11" rerouteNo="1" devices="tripinfo_carIn25202:1 routing_carIn25202:1" vType="default_016" speedFactor="1.02" vaporized=""/>
    <tripinfo id="carIn124416:1" depart="57663.00" departLane="-173169611#0_1" departPos="5.10" departSpeed="0.00" departDelay="0.50" arrival="57679.00" arrivalLane="201956820_1" arrivalPos="48.33" arrivalSpeed="14.69" duration="16.00" routeLength="122.35" waitingTime="0.00" waitingCount="0" stopTime="0.00" timeLoss="6.78" rerouteNo="0" devices="tripinfo_carIn124416:1 routing_carIn124416:1" vType="default_016" speedFactor="1.06" vaporized=""/>
    <tripinfo id="carIn55090:1" depart="57666.00" departLane="-173169611#0_1" departPos="5.10" departSpeed="0.00" departDelay="1.40" arrival="57681.00" arrivalLane="201956820_1" arrivalPos="48.33" arrivalSpeed="13.81" duration="15.00" routeLength="122.35" waitingTime="0.00" waitingCount="0" stopTime="0.00" timeLoss="6.69" rerouteNo="0" devices="tripinfo_carIn55090:1 routing_carIn55090:1" vType="default_016" speedFactor="1.13" vaporized=""/>
    <tripinfo id="carIn28951:1" depart="57606.00" departLane="10425609#0_1" departPos="5.10" departSpeed="0.00" departDelay="0.20" arrival="57685.00" arrivalLane="-653473569#5_1" arrivalPos="73.05" arrivalSpeed="11.89" duration="79.00" routeLength="312.95" waitingTime="39.00" waitingCount="2" stopTime="0.00" timeLoss="51.78" rerouteNo="1" devices="tripinfo_carIn28951:1 routing_carIn28951:1" vType="default_016" speedFactor="0.87" vaporized=""/>
    <tripinfo id="carIn55461:1" depart="57652.00" departLane="10425609#0_1" departPos="5.10" departSpeed="0.00" departDelay="0.30" arrival="57686.00" arrivalLane="201956810_1" arrivalPos="71.65" arrivalSpeed="11.97" duration="34.00" routeLength="255.78" waitingTime="2.00" waitingCount="1" stopTime="0.00" timeLoss="12.75" rerouteNo="1" devices="tripinfo_carIn55461:1 routing_carIn55461:1" vType="default_016" speedFactor="0.94" vaporized=""/>
    <tripinfo id="carIn33538:1" depart="57671.00" departLane="37386279_1" departPos="5.10" departSpeed="0.00" departDelay="0.30" arrival="57686.00" arrivalLane="-24634414#4_1" arrivalPos="22.88" arrivalSpeed="7.85" duration="15.00" routeLength="125.23" waitingTime="0.00" waitingCount="0" stopTime="0.00" timeLoss="3.79" rerouteNo="0" devices="tripinfo_carIn33538:1 routing_carIn33538:1" vType="default_016" speedFactor="1.02" vaporized=""/>
    <tripinfo id="h20540c1:1" depart="57634.00" departLane="10425609#0_1" departPos="5.10" departSpeed="0.00" departDelay="0.50" arrival="57687.00" arrivalLane="-653473569#5_1" arrivalPos="73.05" arrivalSpeed="13.58" duration="53.00" routeLength="312.95" waitingTime="10.00" waitingCount="2" stopTime="0.00" timeLoss="28.93" rerouteNo="1" devices="tripinfo_h20540c1:1 routing_h20540c1:1" vType="default_016" speedFactor="1.01" vaporized=""/>
    <tripinfo id="carIn96537:1" depart="57615.00" departLane="124812856#0_1" departPos="5.10" departSpeed="0.00" departDelay="3.80" arrival="57688.00" arrivalLane="202070434#2_1" arrivalPos="39.03" arrivalSpeed="15.12" duration="73.00" routeLength="569.75" waitingTime="8.00" waitingCount="2" stopTime="0.00" timeLoss="35.67" rerouteNo="1" devices="tripinfo_carIn96537:1 routing_carIn96537:1" vType="default_016" speedFactor="1.12" vaporized=""/>
    <tripinfo id="carIn75554:1" depart="57626.00" departLane="653473569#5_1" departPos="5.10" departSpeed="0.00" departDelay="5.20" arrival="57689.00" arrivalLane="201956811#0_1" arrivalPos="40.40" arrivalSpeed="14.31" duration="63.00" routeLength="313.24" waitingTime="13.00" waitingCount="3" stopTime="0.00" timeLoss="39.74" rerouteNo="1" devices="tripinfo_carIn75554:1 routing_carIn75554:1" vType="default_016" speedFactor="1.05" vaporized=""/>
    <tripinfo id="randUni20090:1" depart="57629.00" departLane="653473569#5_1" departPos="5.10" departSpeed="0.00" departDelay="1.00" arrival="57691.00" arrivalLane="201956811#0_1" arrivalPos="40.40" arrivalSpeed="14.97" duration="62.00" routeLength="313.24" waitingTime="9.00" waitingCount="3" stopTime="0.00" timeLoss="39.25" rerouteNo="1" devices="tripinfo_randUni20090:1 routing_randUni20090:1" vType="random_016" speedFactor="1.09" vaporized=""/>
    <tripinfo id="carIn37268:1" depart="57636.00" departLane="653473569#5_1" departPos="5.10" departSpeed="0.00" departDelay="0.90" arrival="57693.00" arrivalLane="201956811#0_1" arrivalPos="40.40" arrivalSpeed="13.51" duration="57.00" routeLength="313.24" waitingTime="7.00" waitingCount="2" stopTime="0.00" timeLoss="32.48" rerouteNo="1" devices="tripinfo_carIn37268:1 routing_carIn37268:1" vType="default_016" speedFactor="0.98" vaporized=""/>
    <tripinfo id="carIn77438:1" depart="57618.00" departLane="124812856#0_1" departPos="5.10" departSpeed="0.00" departDelay="5.10" arrival="57694.00" arrivalLane="-653473569#5_1" arrivalPos="73.05" arrivalSpeed="12.50" duration="76.00" routeLength="450.40" waitingTime="19.00" waitingCount="3" stopTime="0.00" timeLoss="42.44" rerouteNo="1" devices="tripinfo_carIn77438:1 routing_carIn77438:1" vType="default_016" speedFactor="0.98" vaporized=""/>
    <tripinfo id="h21130c2:1" depart="57630.00" departLane="10425609#0_1" departPos="5.10" departSpeed="0.00" departDelay="0.10" arrival="57696.00" arrivalLane="202070434#2_1" arrivalPos="39.03" arrivalSpeed="14.92" duration="66.00" routeLength="432.30" waitingTime="18.00" waitingCount="2" stopTime="0.00" timeLoss="36.68" rerouteNo="1" devices="tripinfo_h21130c2:1 routing_h21130c2:1" vType="default_016" speedFactor="1.11" vaporized=""/>
    <tripinfo id="carIn26410:1" depart="57620.00" departLane="124812856#0_1" departPos="5.10" departSpeed="0.00" departDelay="6.50" arrival="57698.00" arrivalLane="202070434#2_1" arrivalPos="39.03" arrivalSpeed="14.14" duration="78.00" routeLength="569.75" waitingTime="15.00" waitingCount="2" stopTime="0.00" timeLoss="37.35" rerouteNo="1" devices="tripinfo_carIn26410:1 routing_carIn26410:1" vType="default_016" speedFactor="1.03" vaporized=""/>
    <tripinfo id="h19804c1:3" depart="57623.00" departLane="124812856#0_1" departPos="5.10" departSpeed="0.00" departDelay="7.50" arrival="57698.00" arrivalLane="-653473569#5_1" arrivalPos="73.05" arrivalSpeed="12.09" duration="75.00" routeLength="450.40" waitingTime="16.00" waitingCount="3" stopTime="0.00" timeLoss="38.57" rerouteNo="1" devices="tripinfo_h19804c1:3 routing_h19804c1:3" vType="default_016" speedFactor="0.93" vaporized=""/>
    <tripinfo id="carIn51024:1" depart="57625.00" departLane="124812856#0_1" departPos="5.10" departSpeed="0.00" departDelay="8.90" arrival="57701.00" arrivalLane="202070434#2_1" arrivalPos="39.03" arrivalSpeed="13.40" duration="76.00" routeLength="569.75" waitingTime="12.00" waitingCount="2" stopTime="0.00" timeLoss="35.49" rerouteNo="1" devices="tripinfo_carIn51024:1 routing_carIn51024:1" vType="default_016" speedFactor="1.02" vaporized=""/>
    <tripinfo id="h15454c2:3" depart="57612.00" departLane="24608844_1" departPos="5.10" departSpeed="0.00" departDelay="0.50" arrival="57706.00" arrivalLane="32978638#0_1" arrivalPos="49.29" arrivalSpeed="14.12" duration="94.00" routeLength="354.79" waitingTime="54.00" waitingCount="1" stopTime="0.00" timeLoss="61.58" rerouteNo="1" devices="tripinfo_h15454c2:3 routing_h15454c2:3" vType="default_016" speedFactor="1.05" vaporized=""/>
    <tripinfo id="carIn128705:1" depart="57628.00" departLane="124812856#0_1" departPos="5.10" departSpeed="0.00" departDelay="9.60" arrival="57710.00" arrivalLane="202070434#2_1" arrivalPos="39.03" arrivalSpeed="13.97" duration="82.00" routeLength="569.75" waitingTime="13.00" waitingCount="3" stopTime="0.00" timeLoss="41.74" rerouteNo="1" devices="tripinfo_carIn128705:1 routing_carIn128705:1" vType="default_016" speedFactor="1.04" vaporized=""/>
    <tripinfo id="carIn131078:1" depart="57675.00" departLane="124812856#0_1" departPos="5.10" departSpeed="0.00" departDelay="39.60" arrival="57718.00" arrivalLane="201956810_1" arrivalPos="71.65" arrivalSpeed="11.65" duration="43.00" routeLength="134.91" waitingTime="20.00" waitingCount="1" stopTime="0.00" timeLoss="30.97" rerouteNo="1" devices="tripinfo_carIn131078:1 routing_carIn131078:1" vType="default_016" speedFactor="0.93" vaporized=""/>
    <tripinfo id="h645c1:1" depart="57622.00" departLane="266565295#5_1" departPos="5.10" departSpeed="0.00" departDelay="0.40" arrival="57722.00" arrivalLane="-315358253#1_1" arrivalPos="63.90" arrivalSpeed="12.23" duration="100.00" routeLength="547.76" waitingTime="45.00" waitingCount="1" stopTime="0.00" timeLoss="56.22" rerouteNo="1" devices="tripinfo_h645c1:1 routing_h645c1:1" vType="default_016" speedFactor="0.92" vaporized=""/>
    <tripinfo id="carIn767:1" depart="57631.00" departLane="124812856#0_1" departPos="5.10" departSpeed="0.00" departDelay="12.50" arrival="57724.00" arrivalLane="-653473569#5_1" arrivalPos="73.05" arrivalSpeed="12.55" duration="93.00" routeLength="450.40" waitingTime="23.00" waitingCount="4" stopTime="0.00" timeLoss="56.95" rerouteNo="1" devices="tripinfo_carIn767:1 routing_carIn767:1" vType="default_016" speedFactor="0.94" vaporized=""/>
    <tripinfo id="carIn88932:1" depart="57660.00" departLane="124812856#0_1" departPos="5.10" departSpeed="0.00" departDelay="29.40" arrival="57725.00" arrivalLane="-653473569#5_1" arrivalPos="73.05" arrivalSpeed="14.84" duration="65.00" routeLength="450.40" waitingTime="15.00" waitingCount="2" stopTime="0.00" timeLoss="38.45" rerouteNo="1" devices="tripinfo_carIn88932:1 routing_carIn88932:1" vType="default_016" speedFactor="1.25" vaporized=""/>
    <tripinfo id="60.39" depart="57643.00" departLane="10425609#0_1" departPos="12.10" departSpeed="0.00" departDelay="0.50" arrival="57725.00" arrivalLane="202070434#2_1" arrivalPos="39.03" arrivalSpeed="13.69" duration="82.00" routeLength="425.30" waitingTime="13.00" waitingCount="2" stopTime="0.00" timeLoss="50.49" rerouteNo="1" devices="tripinfo_60.39 routing_60.39" vType="bus" speedFactor="1.00" vaporized=""/>
    <tripinfo id="carIn12900:1" depart="57691.00" departLane="124812856#0_1" departPos="5.10" departSpeed="0.00" departDelay="42.80" arrival="57727.00" arrivalLane="201956810_1" arrivalPos="71.65" arrivalSpeed="13.85" duration="36.00" routeLength="134.91" waitingTime="12.00" waitingCount="1" stopTime="0.00" timeLoss="25.46" rerouteNo="1" devices="tripinfo_carIn12900:1 routing_carIn12900:1" vType="default_016" speedFactor="1.07" vaporized=""/>
    <tripinfo id="carIn107842:1" depart="57636.00" departLane="124812856#0_1" departPos="5.10" departSpeed="0.00" departDelay="14.90" arrival="57735.00" arrivalLane="-653473569#5_1" arrivalPos="73.05" arrivalSpeed="12.31" duration="99.00" routeLength="450.40" waitingTime="33.00" waitingCount="4" stopTime="0.00" timeLoss="63.39" rerouteNo="1" devices="tripinfo_carIn107842:1 routing_carIn107842:1" vType="default_016" speedFactor="0.94" vaporized=""/>
    <tripinfo id="h15382c1:3" depart="57638.00" departLane="124812856#0_1" departPos="5.10" departSpeed="0.00" departDelay="15.80" arrival="57737.00" arrivalLane="-653473569#5_1" arrivalPos="73.05" arrivalSpeed="12.40" duration="99.00" routeLength="450.40" waitingTime="31.00" waitingCount="3" stopTime="0.00" timeLoss="63.46" rerouteNo="1" devices="tripinfo_h15382c1:3 routing_h15382c1:3" vType="default_016" speedFactor="0.94" vaporized=""/>
    <tripinfo id="h317c2:1" depart="57707.00" departLane="-32978638#0_1" departPos="5.10" departSpeed="0.00" departDelay="0.10" arrival="57737.00" arrivalLane="-266565295#5_1" arrivalPos="172.76" arrivalSpeed="15.18" duration="30.00" routeLength="370.53" waitingTime="0.00" waitingCount="0" stopTime="0.00" timeLoss="5.88" rerouteNo="1" devices="tripinfo_h317c2:1 routing_h317c2:1" vType="default_016" speedFactor="1.16" vaporized=""/>
    <tripinfo id="h21989c1:1" depart="57633.00" departLane="124812856#0_1" departPos="5.10" departSpeed="0.00" departDelay="12.60" arrival="57739.00" arrivalLane="202070434#2_1" arrivalPos="39.03" arrivalSpeed="11.65" duration="106.00" routeLength="569.75" waitingTime="32.00" waitingCount="4" stopTime="0.00" timeLoss="59.68" rerouteNo="1" devices="tripinfo_h21989c1:1 routing_h21989c1:1" vType="default_016" speedFactor="0.90" vaporized=""/>
    <tripinfo id="carIn129760:1" depart="57661.00" departLane="653473569#5_1" departPos="5.10" departSpeed="0.00" departDelay="0.80" arrival="57742.00" arrivalLane="201956811#0_1" arrivalPos="40.40" arrivalSpeed="10.32" duration="81.00" routeLength="313.24" waitingTime="37.00" waitingCount="2" stopTime="0.00" timeLoss="51.18" rerouteNo="1" devices="tripinfo_carIn129760:1 routing_carIn129760:1" vType="default_016" speedFactor="0.80" vaporized=""/>
    <tripinfo id="carIn3969:1" depart="57641.00" departLane="124812856#0_1" departPos="5.10" departSpeed="0.00" departDelay="17.30" arrival="57744.00" arrivalLane="-653473569#5_1" arrivalPos="73.05" arrivalSpeed="13.98" duration="103.00" routeLength="450.40" waitingTime="31.00" waitingCount="4" stopTime="0.00" timeLoss="70.03" rerouteNo="1" devices="tripinfo_carIn3969:1 routing_carIn3969:1" vType="default_016" speedFactor="1.01" vaporized=""/>
    <tripinfo id="carIn129626:1" depart="57664.00" departLane="653473569#5_1" departPos="5.10" departSpeed="0.00" departDelay="1.60" arrival="57745.00" arrivalLane="201956811#0_1" arrivalPos="40.40" arrivalSpeed="12.10" duration="81.00" routeLength="313.24" waitingTime="39.00" waitingCount="3" stopTime="0.00" timeLoss="56.18" rerouteNo="1" devices="tripinfo_carIn129626:1 routing_carIn129626:1" vType="default_016" speedFactor="0.96" vaporized=""/>
    <tripinfo id="carIn12775:1" depart="57676.00" departLane="10425609#0_1" departPos="5.10" departSpeed="0.00" departDelay="0.60" arrival="57746.00" arrivalLane="-653473569#5_1" arrivalPos="73.05" arrivalSpeed="13.49" duration="70.00" routeLength="312.95" waitingTime="18.00" waitingCount="3" stopTime="0.00" timeLoss="45.89" rerouteNo="1" devices="tripinfo_carIn12775:1 routing_carIn12775:1" vType="default_016" speedFactor="1.01" vaporized=""/>
    <tripinfo id="h9878c1:3" depart="57686.00" departLane="-24693977#1_1" departPos="5.10" departSpeed="0.00" departDelay="0.70" arrival="57750.00" arrivalLane="32978638#0_1" arrivalPos="49.29" arrivalSpeed="11.86" duration="64.00" routeLength="677.49" waitingTime="0.00" waitingCount="0" stopTime="0.00" timeLoss="9.64" rerouteNo="1" devices="tripinfo_h9878c1:3 routing_h9878c1:3" vType="default_016" speedFactor="0.92" vaporized=""/>
    <tripinfo id="h3568c1:3" depart="57656.00" departLane="266565295#5_1" departPos="5.10" departSpeed="0.00" departDelay="0.80" arrival="57755.00" arrivalLane="-24634415_1" arrivalPos="64.03" arrivalSpeed="13.37" duration="99.00" routeLength="810.20" waitingTime="14.00" waitingCount="1" stopTime="0.00" timeLoss="31.09" rerouteNo="1" devices="tripinfo_h3568c1:3 routing_h3568c1:3" vType="default_016" speedFactor="0.97" vaporized=""/>
    <tripinfo id="h3688c1:1" depart="57679.00" departLane="315358253#1_1" departPos="5.10" departSpeed="0.00" departDelay="0.50" arrival="57756.00" arrivalLane="32978638#0_1" arrivalPos="49.29" arrivalSpeed="13.73" duration="77.00" routeLength="405.15" waitingTime="36.00" waitingCount="1" stopTime="0.00" timeLoss="47.13" rerouteNo="1" devices="tripinfo_h3688c1:1 routing_h3688c1:1" vType="default_016" speedFactor="1.02" vaporized=""/>
    <tripinfo id="carIn113711:1" depart="57601.00" departLane="-24693977#1_1" departPos="5.10" departSpeed="0.00" departDelay="0.70" arrival="57757.00" arrivalLane="-266565295#5_1" arrivalPos="172.76" arrivalSpeed="13.23" duration="156.00" routeLength="840.03" waitingTime="80.00" waitingCount="1" stopTime="0.00" timeLoss="92.62" rerouteNo="1" devices="tripinfo_carIn113711:1 routing_carIn113711:1" vType="default_016" speedFactor="0.97" vaporized=""/>
    <tripinfo id="h9894c1:3" depart="57698.00" departLane="-24693977#1_1" departPos="5.10" departSpeed="0.00" departDelay="0.20" arrival="57758.00" arrivalLane="32978638#0_1" arrivalPos="49.29" arrivalSpeed="12.59" duration="60.00" routeLength="677.49" waitingTime="0.00" waitingCount="0" stopTime="0.00" timeLoss="9.93" rerouteNo="1" devices="tripinfo_h9894c1:3 routing_h9894c1:3" vType="default_016" speedFactor="1.00" vaporized=""/>
    <tripinfo id="carIn79400:1" depart="57604.00" departLane="-24693977#1_1" departPos="5.10" departSpeed="0.00" departDelay="0.10" arrival="57759.00" arrivalLane="-266565295#5_2" arrivalPos="172.76" arrivalSpeed="12.17" duration="155.00" routeLength="840.03" waitingTime="75.00" waitingCount="1" stopTime="0.00" timeLoss="87.44" rerouteNo="1" devices="tripinfo_carIn79400:1 routing_carIn79400:1" vType="default_016" speedFactor="0.92" vaporized=""/>
    <tripinfo id="carIn115641:1" depart="57614.00" departLane="-24693977#1_1" departPos="5.10" departSpeed="0.00" departDelay="0.90" arrival="57759.00" arrivalLane="-266565295#5_1" arrivalPos="172.76" arrivalSpeed="14.33" duration="145.00" routeLength="840.03" waitingTime="75.00" waitingCount="1" stopTime="0.00" timeLoss="89.36" rerouteNo="1" devices="tripinfo_carIn115641:1 routing_carIn115641:1" vType="default_016" speedFactor="1.11" vaporized=""/>
    <tripinfo id="carIn52610:1" depart="57615.00" departLane="-24693977#1_1" departPos="5.10" departSpeed="0.00" departDelay="0.10" arrival="57760.00" arrivalLane="-266565295#5_1" arrivalPos="172.76" arrivalSpeed="14.85" duration="145.00" routeLength="840.03" waitingTime="67.00" waitingCount="2" stopTime="0.00" timeLoss="87.78" rerouteNo="1" devices="tripinfo_carIn52610:1 routing_carIn52610:1" vType="default_016" speedFactor="1.07" vaporized=""/>
    <tripinfo id="carIn10158:1" depart="57622.00" departLane="-24693977#1_1" departPos="5.10" departSpeed="0.00" departDelay="0.80" arrival="57760.00" arrivalLane="-266565295#5_2" arrivalPos="172.76" arrivalSpeed="12.89" duration="138.00" routeLength="840.03" waitingTime="61.00" waitingCount="1" stopTime="0.00" timeLoss="75.38" rerouteNo="1" devices="tripinfo_carIn10158:1 routing_carIn10158:1" vType="default_016" speedFactor="0.98" vaporized=""/>
    <tripinfo id="h5292c2:1" depart="57656.00" departLane="-24693977#1_1" departPos="5.10" departSpeed="0.00" departDelay="0.00" arrival="57762.00" arrivalLane="-266565295#5_2" arrivalPos="172.76" arrivalSpeed="14.74" duration="106.00" routeLength="840.03" waitingTime="30.00" waitingCount="2" stopTime="0.00" timeLoss="49.95" rerouteNo="1" devices="tripinfo_h5292c2:1 routing_h5292c2:1" vType="default_016" speedFactor="1.11" vaporized=""/>
    <tripinfo id="h21189c1:3" depart="57722.00" departLane="10425609#0_1" departPos="5.10" departSpeed="0.00" departDelay="0.10" arrival="57767.00" arrivalLane="202070434#2_1" arrivalPos="39.03" arrivalSpeed="12.72" duration="45.00" routeLength="432.30" waitingTime="0.00" waitingCount="0" stopTime="0.00" timeLoss="13.36" rerouteNo="1" devices="tripinfo_h21189c1:3 routing_h21189c1:3" vType="default_016" speedFactor="1.01" vaporized=""/>
    <tripinfo id="h330c1:1" depart="57736.00" departLane="-32978638#0_1" departPos="5.10" departSpeed="0.00" departDelay="0.20" arrival="57769.00" arrivalLane="-266565295#5_1" arrivalPos="172.76" arrivalSpeed="13.27" duration="33.00" routeLength="370.53" waitingTime="0.00" waitingCount="0" stopTime="0.00" timeLoss="6.25" rerouteNo="1" devices="tripinfo_h330c1:1 routing_h330c1:1" vType="default_016" speedFactor="1.02" vaporized=""/>
    <tripinfo id="randUni22709:1" depart="57718.00" departLane="315358253#1_1" departPos="5.10" departSpeed="0.00" departDelay="0.20" arrival="57773.00" arrivalLane="32978638#0_1" arrivalPos="49.29" arrivalSpeed="12.40" duration="55.00" routeLength="405.15" waitingTime="9.00" waitingCount="1" stopTime="0.00" timeLoss="22.23" rerouteNo="1" devices="tripinfo_randUni22709:1 routing_randUni22709:1" vType="random_016" speedFactor="0.93" vaporized=""/>
    <tripinfo id="h19989c1:1" depart="57730.00" departLane="10425609#0_1" departPos="5.10" departSpeed="0.00" departDelay="0.60" arrival="57773.00" arrivalLane="-653473569#5_1" arrivalPos="73.05" arrivalSpeed="14.55" duration="43.00" routeLength="312.95" waitingTime="6.00" waitingCount="1" stopTime="0.00" timeLoss="21.01" rerouteNo="1" devices="tripinfo_h19989c1:1 routing_h19989c1:1" vType="default_016" speedFactor="1.12" vaporized=""/>
    <tripinfo id="h134c1:3" depart="57721.00" departLane="315358253#1_1" departPos="5.10" departSpeed="0.00" departDelay="1.60" arrival="57775.00" arrivalLane="32978638#0_2" arrivalPos="49.29" arrivalSpeed="12.85" duration="54.00" routeLength="409.47" waitingTime="8.00" waitingCount="1" stopTime="0.00" timeLoss="22.65" rerouteNo="1" devices="tripinfo_h134c1:3 routing_h134c1:3" vType="default_016" speedFactor="1.01" vaporized=""/>
    <tripinfo id="carIn99509:1" depart="57720.00" departLane="-32978638#0_1" departPos="5.10" departSpeed="0.00" departDelay="0.20" arrival="57775.00" arrivalLane="-315358253#1_1" arrivalPos="63.90" arrivalSpeed="10.91" duration="55.00" routeLength="422.17" waitingTime="7.00" waitingCount="1" stopTime="0.00" timeLoss="17.78" rerouteNo="1" devices="tripinfo_carIn99509:1 routing_carIn99509:1" vType="default_015" speedFactor="0.85" vaporized=""/>
    <tripinfo id="carIn74045:1" depart="57724.00" departLane="315358253#1_1" departPos="5.10" departSpeed="0.00" departDelay="3.00" arrival="57775.00" arrivalLane="32978638#0_1" arrivalPos="49.29" arrivalSpeed="15.97" duration="51.00" routeLength="405.15" waitingTime="8.00" waitingCount="1" stopTime="0.00" timeLoss="24.80" rerouteNo="1" devices="tripinfo_carIn74045:1 routing_carIn74045:1" vType="default_016" speedFactor="1.17" vaporized=""/>
    <tripinfo id="carIn92858:1" depart="57733.00" departLane="10425609#0_1" departPos="5.10" departSpeed="0.00" departDelay="0.80" arrival="57775.00" arrivalLane="-653473569#5_1" arrivalPos="73.05" arrivalSpeed="13.37" duration="42.00" routeLength="312.95" waitingTime="3.00" waitingCount="1" stopTime="0.00" timeLoss="18.45" rerouteNo="1" devices="tripinfo_carIn92858:1 routing_carIn92858:1" vType="default_016" speedFactor="1.03" vaporized=""/>
    <tripinfo id="carIn106665:1" depart="57659.00" departLane="266565295#5_1" departPos="5.10" departSpeed="0.00" departDelay="1.80" arrival="57777.00" arrivalLane="24693977#1_1" arrivalPos="96.83" arrivalSpeed="13.42" duration="118.00" routeLength="834.40" waitingTime="35.00" waitingCount="3" stopTime="0.00" timeLoss="58.33" rerouteNo="1" devices="tripinfo_carIn106665:1 routing_carIn106665:1" vType="default_016" speedFactor="1.03" vaporized=""/>