<?xml version="1.0" encoding="UTF-8"?>

<!-- generated on 2023-08-31 12:53:01 by Eclipse SUMO libsumo Version 1.18.0
<configuration xmlns:xsi="http://www.w3.org/2001/XMLSchema-instance" xsi:noNamespaceSchemaLocation="http://sumo.dlr.de/xsd/libsumoConfiguration.xsd">

    <input>
        <net-file value="/home/stefan/RESCO/./environments/ingolstadt7/ingolstadt7.net.xml"/>
        <route-files value="/home/stefan/RESCO/./environments/ingolstadt7/ingolstadt7.rou.xml"/>
    </input>

    <output>
        <tripinfo-output value="/home/stefan/results/RAINBOW-tr0-ingolstadt7-7-drq_norm-wait_norm/tripinfo_91.xml"/>
        <tripinfo-output.write-unfinished value="true"/>
    </output>

    <time>
        <begin value="57600"/>
        <end value="61200"/>
    </time>

    <processing>
        <time-to-teleport value="-1"/>
    </processing>

    <report>
        <no-warnings value="True"/>
        <no-step-log value="True"/>
    </report>

    <random_number>
        <random value="true"/>
    </random_number>

</configuration>
-->

<tripinfos xmlns:xsi="http://www.w3.org/2001/XMLSchema-instance" xsi:noNamespaceSchemaLocation="http://sumo.dlr.de/xsd/tripinfo_file.xsd">
    <tripinfo id="carIn89578:1" depart="57614.00" departLane="124812856#0_1" departPos="5.10" departSpeed="0.00" departDelay="3.60" arrival="57629.00" arrivalLane="201956810_1" arrivalPos="71.65" arrivalSpeed="12.95" duration="15.00" routeLength="134.91" waitingTime="0.00" waitingCount="0" stopTime="0.00" timeLoss="3.97" rerouteNo="1" devices="tripinfo_carIn89578:1 routing_carIn89578:1" vType="default_016" speedFactor="0.97" vaporized=""/>
    <tripinfo id="carIn28951:1" depart="57606.00" departLane="10425609#0_1" departPos="5.10" departSpeed="0.00" departDelay="0.20" arrival="57637.00" arrivalLane="-653473569#5_1" arrivalPos="73.05" arrivalSpeed="12.91" duration="31.00" routeLength="312.95" waitingTime="0.00" waitingCount="0" stopTime="0.00" timeLoss="5.75" rerouteNo="1" devices="tripinfo_carIn28951:1 routing_carIn28951:1" vType="default_016" speedFactor="0.96" vaporized=""/>
    <tripinfo id="h20540c1:1" depart="57634.00" departLane="10425609#0_1" departPos="5.10" departSpeed="0.00" departDelay="0.50" arrival="57664.00" arrivalLane="-653473569#5_1" arrivalPos="73.05" arrivalSpeed="12.91" duration="30.00" routeLength="312.95" waitingTime="0.00" waitingCount="0" stopTime="0.00" timeLoss="4.89" rerouteNo="1" devices="tripinfo_h20540c1:1 routing_h20540c1:1" vType="default_016" speedFactor="0.98" vaporized=""/>
    <tripinfo id="carIn925:1" depart="57654.00" departLane="124812856#0_1" departPos="5.10" departSpeed="0.00" departDelay="27.90" arrival="57669.00" arrivalLane="201956810_1" arrivalPos="71.65" arrivalSpeed="13.40" duration="15.00" routeLength="134.91" waitingTime="0.00" waitingCount="0" stopTime="0.00" timeLoss="4.32" rerouteNo="1" devices="tripinfo_carIn925:1 routing_carIn925:1" vType="default_016" speedFactor="1.04" vaporized=""/>
    <tripinfo id="carIn25202:1" depart="57629.00" departLane="315358253#1_1" departPos="5.10" departSpeed="0.00" departDelay="1.50" arrival="57673.00" arrivalLane="32978638#0_1" arrivalPos="49.29" arrivalSpeed="11.16" duration="44.00" routeLength="405.15" waitingTime="0.00" waitingCount="0" stopTime="0.00" timeLoss="5.63" rerouteNo="1" devices="tripinfo_carIn25202:1 routing_carIn25202:1" vType="default_016" speedFactor="0.81" vaporized=""/>
    <tripinfo id="h21130c2:1" depart="57630.00" departLane="10425609#0_1" departPos="5.10" departSpeed="0.00" departDelay="0.10" arrival="57674.00" arrivalLane="202070434#2_1" arrivalPos="39.03" arrivalSpeed="13.28" duration="44.00" routeLength="432.30" waitingTime="0.00" waitingCount="0" stopTime="0.00" timeLoss="11.33" rerouteNo="1" devices="tripinfo_h21130c2:1 routing_h21130c2:1" vType="default_016" speedFactor="0.98" vaporized=""/>
    <tripinfo id="carIn55461:1" depart="57652.00" departLane="10425609#0_1" departPos="5.10" departSpeed="0.00" departDelay="0.30" arrival="57678.00" arrivalLane="201956810_1" arrivalPos="71.65" arrivalSpeed="13.58" duration="26.00" routeLength="255.78" waitingTime="0.00" waitingCount="0" stopTime="0.00" timeLoss="5.44" rerouteNo="1" devices="tripinfo_carIn55461:1 routing_carIn55461:1" vType="default_016" speedFactor="0.99" vaporized=""/>
    <tripinfo id="60.39" depart="57643.00" departLane="10425609#0_1" departPos="12.10" departSpeed="0.00" departDelay="0.50" arrival="57687.00" arrivalLane="202070434#2_1" arrivalPos="39.03" arrivalSpeed="13.68" duration="44.00" routeLength="425.30" waitingTime="0.00" waitingCount="0" stopTime="0.00" timeLoss="12.44" rerouteNo="1" devices="tripinfo_60.39 routing_60.39" vType="bus" speedFactor="1.00" vaporized=""/>
    <tripinfo id="carIn33538:1" depart="57671.00" departLane="37386279_1" departPos="5.10" departSpeed="0.00" departDelay="0.30" arrival="57688.00" arrivalLane="-24634414#4_1" arrivalPos="22.88" arrivalSpeed="5.92" duration="17.00" routeLength="125.23" waitingTime="0.00" waitingCount="0" stopTime="0.00" timeLoss="3.32" rerouteNo="0" devices="tripinfo_carIn33538:1 routing_carIn33538:1" vType="default_016" speedFactor="0.84" vaporized=""/>
    <tripinfo id="carIn131078:1" depart="57679.00" departLane="124812856#0_1" departPos="5.10" departSpeed="0.00" departDelay="43.60" arrival="57694.00" arrivalLane="201956810_1" arrivalPos="71.65" arrivalSpeed="15.50" duration="15.00" routeLength="134.91" waitingTime="0.00" waitingCount="0" stopTime="0.00" timeLoss="5.62" rerouteNo="1" devices="tripinfo_carIn131078:1 routing_carIn131078:1" vType="default_016" speedFactor="1.13" vaporized=""/>
    <tripinfo id="carIn12775:1" depart="57676.00" departLane="10425609#0_1" departPos="5.10" departSpeed="0.00" departDelay="0.60" arrival="57706.00" arrivalLane="-653473569#5_1" arrivalPos="73.05" arrivalSpeed="13.34" duration="30.00" routeLength="312.95" waitingTime="0.00" waitingCount="0" stopTime="0.00" timeLoss="5.49" rerouteNo="1" devices="tripinfo_carIn12775:1 routing_carIn12775:1" vType="default_016" speedFactor="1.00" vaporized=""/>
    <tripinfo id="h3688c1:1" depart="57679.00" departLane="315358253#1_1" departPos="5.10" departSpeed="0.00" departDelay="0.50" arrival="57715.00" arrivalLane="32978638#0_1" arrivalPos="49.29" arrivalSpeed="13.73" duration="36.00" routeLength="405.15" waitingTime="0.00" waitingCount="0" stopTime="0.00" timeLoss="6.35" rerouteNo="1" devices="tripinfo_h3688c1:1 routing_h3688c1:1" vType="default_016" speedFactor="1.03" vaporized=""/>
    <tripinfo id="h317c2:1" depart="57707.00" departLane="-32978638#0_1" departPos="5.10" departSpeed="0.00" departDelay="0.10" arrival="57741.00" arrivalLane="-266565295#5_1" arrivalPos="172.76" arrivalSpeed="13.21" duration="34.00" routeLength="370.53" waitingTime="0.00" waitingCount="0" stopTime="0.00" timeLoss="6.10" rerouteNo="1" devices="tripinfo_h317c2:1 routing_h317c2:1" vType="default_016" speedFactor="0.99" vaporized=""/>
    <tripinfo id="randUni22709:1" depart="57718.00" departLane="315358253#1_1" departPos="5.10" departSpeed="0.00" departDelay="0.20" arrival="57752.00" arrivalLane="32978638#0_1" arrivalPos="49.29" arrivalSpeed="14.43" duration="34.00" routeLength="405.15" waitingTime="0.00" waitingCount="0" stopTime="0.00" timeLoss="6.20" rerouteNo="1" devices="tripinfo_randUni22709:1 routing_randUni22709:1" vType="random_016" speedFactor="1.11" vaporized=""/>
    <tripinfo id="carIn99509:1" depart="57720.00" departLane="-32978638#0_1" departPos="5.10" departSpeed="0.00" departDelay="0.20" arrival="57756.00" arrivalLane="-315358253#1_1" arrivalPos="63.90" arrivalSpeed="14.06" duration="36.00" routeLength="422.17" waitingTime="0.00" waitingCount="0" stopTime="0.00" timeLoss="6.24" rerouteNo="1" devices="tripinfo_carIn99509:1 routing_carIn99509:1" vType="default_015" speedFactor="1.07" vaporized=""/>
    <tripinfo id="h134c1:3" depart="57721.00" departLane="315358253#1_1" departPos="5.10" departSpeed="0.00" departDelay="1.60" arrival="57761.00" arrivalLane="32978638#0_1" arrivalPos="49.29" arrivalSpeed="12.55" duration="40.00" routeLength="405.15" waitingTime="0.00" waitingCount="0" stopTime="0.00" timeLoss="6.09" rerouteNo="1" devices="tripinfo_h134c1:3 routing_h134c1:3" vType="default_016" speedFactor="0.92" vaporized=""/>
    <tripinfo id="carIn74045:1" depart="57724.00" departLane="315358253#1_1" departPos="5.10" departSpeed="0.00" departDelay="3.00" arrival="57762.00" arrivalLane="32978638#0_1" arrivalPos="49.29" arrivalSpeed="13.39" duration="38.00" routeLength="405.15" waitingTime="0.00" waitingCount="0" stopTime="0.00" timeLoss="15.52" rerouteNo="1" devices="tripinfo_carIn74045:1 routing_carIn74045:1" vType="default_016" speedFactor="1.37" vaporized=""/>
    <tripinfo id="h19989c1:1" depart="57730.00" departLane="10425609#0_1" departPos="5.10" departSpeed="0.00" departDelay="0.60" arrival="57765.00" arrivalLane="-653473569#5_1" arrivalPos="73.05" arrivalSpeed="11.40" duration="35.00" routeLength="312.95" waitingTime="0.00" waitingCount="0" stopTime="0.00" timeLoss="7.26" rerouteNo="1" devices="tripinfo_h19989c1:1 routing_h19989c1:1" vType="default_016" speedFactor="0.89" vaporized=""/>
    <tripinfo id="carIn92858:1" depart="57733.00" departLane="10425609#0_1" departPos="5.10" departSpeed="0.00" departDelay="0.80" arrival="57767.00" arrivalLane="-653473569#5_1" arrivalPos="73.05" arrivalSpeed="11.75" duration="34.00" routeLength="312.95" waitingTime="0.00" waitingCount="0" stopTime="0.00" timeLoss="7.35" rerouteNo="1" devices="tripinfo_carIn92858:1 routing_carIn92858:1" vType="default_016" speedFactor="0.93" vaporized=""/>
    <tripinfo id="h330c1:1" depart="57736.00" departLane="-32978638#0_1" departPos="5.10" departSpeed="0.00" departDelay="0.20" arrival="57768.00" arrivalLane="-266565295#5_1" arrivalPos="172.76" arrivalSpeed="14.41" duration="32.00" routeLength="370.53" waitingTime="0.00" waitingCount="0" stopTime="0.00" timeLoss="5.96" rerouteNo="1" devices="tripinfo_h330c1:1 routing_h330c1:1" vType="default_016" speedFactor="1.07" vaporized=""/>
    <tripinfo id="carIn101439:1" depart="57736.00" departLane="10425609#0_1" departPos="5.10" departSpeed="0.00" departDelay="1.70" arrival="57769.00" arrivalLane="-653473569#5_1" arrivalPos="73.05" arrivalSpeed="13.66" duration="33.00" routeLength="312.95" waitingTime="0.00" waitingCount="0" stopTime="0.00" timeLoss="8.56" rerouteNo="1" devices="tripinfo_carIn101439:1 routing_carIn101439:1" vType="default_016" speedFactor="1.00" vaporized=""/>
    <tripinfo id="carIn84229:1" depart="57738.00" departLane="10425609#0_1" departPos="5.10" departSpeed="0.00" departDelay="1.20" arrival="57773.00" arrivalLane="-653473569#5_1" arrivalPos="73.05" arrivalSpeed="17.00" duration="35.00" routeLength="312.95" waitingTime="1.00" waitingCount="1" stopTime="0.00" timeLoss="15.96" rerouteNo="1" devices="tripinfo_carIn84229:1 routing_carIn84229:1" vType="default_016" speedFactor="1.27" vaporized=""/>
    <tripinfo id="carIn16842:1" depart="57745.00" departLane="10425609#0_1" departPos="5.10" departSpeed="0.00" departDelay="1.40" arrival="57775.00" arrivalLane="-653473569#5_1" arrivalPos="73.05" arrivalSpeed="15.61" duration="30.00" routeLength="312.95" waitingTime="0.00" waitingCount="0" stopTime="0.00" timeLoss="9.72" rerouteNo="1" devices="tripinfo_carIn16842:1 routing_carIn16842:1" vType="default_016" speedFactor="1.18" vaporized=""/>
    <tripinfo id="11_frequency1.42" depart="57739.00" departLane="315358253#1_1" departPos="12.10" departSpeed="0.00" departDelay="0.30" arrival="57780.00" arrivalLane="32978638#0_1" arrivalPos="49.29" arrivalSpeed="13.65" duration="41.00" routeLength="398.15" waitingTime="0.00" waitingCount="0" stopTime="0.00" timeLoss="10.71" rerouteNo="1" devices="tripinfo_11_frequency1.42 routing_11_frequency1.42" vType="bus" speedFactor="1.00" vaporized=""/>
    <tripinfo id="carIn98605:1" depart="57743.00" departLane="315358253#1_1" departPos="5.10" departSpeed="0.00" departDelay="2.20" arrival="57786.00" arrivalLane="32978638#0_1" arrivalPos="49.29" arrivalSpeed="11.27" duration="43.00" routeLength="405.15" waitingTime="0.00" waitingCount="0" stopTime="0.00" timeLoss="7.77" rerouteNo="1" devices="tripinfo_carIn98605:1 routing_carIn98605:1" vType="default_016" speedFactor="0.88" vaporized=""/>
    <tripinfo id="h319c1:3" depart="57746.00" departLane="315358253#1_1" departPos="5.10" departSpeed="0.00" departDelay="3.70" arrival="57786.00" arrivalLane="32978638#0_2" arrivalPos="49.29" arrivalSpeed="14.36" duration="40.00" routeLength="409.47" waitingTime="0.00" waitingCount="0" stopTime="0.00" timeLoss="10.76" rerouteNo="1" devices="tripinfo_h319c1:3 routing_h319c1:3" vType="default_016" speedFactor="1.07" vaporized=""/>
    <tripinfo id="carIn117869:1" depart="57758.00" departLane="-32978638#0_1" departPos="5.10" departSpeed="0.00" departDelay="0.60" arrival="57795.00" arrivalLane="-315358253#1_1" arrivalPos="63.90" arrivalSpeed="13.52" duration="37.00" routeLength="422.17" waitingTime="0.00" waitingCount="0" stopTime="0.00" timeLoss="6.13" rerouteNo="1" devices="tripinfo_carIn117869:1 routing_carIn117869:1" vType="default_016" speedFactor="1.01" vaporized=""/>
    <tripinfo id="carIn107250:1" depart="57751.00" departLane="315358253#1_1" departPos="5.10" departSpeed="0.00" departDelay="5.70" arrival="57796.00" arrivalLane="32978638#0_1" arrivalPos="49.29" arrivalSpeed="9.84" duration="45.00" routeLength="405.15" waitingTime="0.00" waitingCount="0" stopTime="0.00" timeLoss="6.12" rerouteNo="1" devices="tripinfo_carIn107250:1 routing_carIn107250:1" vType="default_016" speedFactor="0.79" vaporized=""/>
    <tripinfo id="h14316c1:3" depart="57757.00" departLane="315358253#1_1" departPos="5.10" departSpeed="0.00" departDelay="8.00" arrival="57797.00" arrivalLane="32978638#0_2" arrivalPos="49.29" arrivalSpeed="12.22" duration="40.00" routeLength="409.47" waitingTime="0.00" waitingCount="0" stopTime="0.00" timeLoss="7.38" rerouteNo="1" devices="tripinfo_h14316c1:3 routing_h14316c1:3" vType="default_016" speedFactor="0.95" vaporized=""/>
    <tripinfo id="carIn7631:1" depart="57786.00" departLane="-32978638#0_1" departPos="5.10" departSpeed="0.00" departDelay="0.70" arrival="57822.00" arrivalLane="-315358253#1_1" arrivalPos="63.90" arrivalSpeed="14.14" duration="36.00" routeLength="422.17" waitingTime="0.00" waitingCount="0" stopTime="0.00" timeLoss="6.06" rerouteNo="1" devices="tripinfo_carIn7631:1 routing_carIn7631:1" vType="default_016" speedFactor="1.06" vaporized=""/>
    <tripinfo id="h19105c2:3" depart="57795.00" departLane="10425609#0_1" departPos="5.10" departSpeed="0.00" departDelay="0.60" arrival="57827.00" arrivalLane="-653473569#5_1" arrivalPos="73.05" arrivalSpeed="12.12" duration="32.00" routeLength="312.95" waitingTime="0.00" waitingCount="0" stopTime="0.00" timeLoss="5.66" rerouteNo="1" devices="tripinfo_h19105c2:3 routing_h19105c2:3" vType="default_016" speedFactor="0.92" vaporized=""/>
    <tripinfo id="randUni31145:1" depart="57814.00" departLane="10425609#0_1" departPos="5.10" departSpeed="0.00" departDelay="0.30" arrival="57838.00" arrivalLane="201956810_1" arrivalPos="71.65" arrivalSpeed="14.68" duration="24.00" routeLength="255.78" waitingTime="0.00" waitingCount="0" stopTime="0.00" timeLoss="5.96" rerouteNo="1" devices="tripinfo_randUni31145:1 routing_randUni31145:1" vType="random_016" speedFactor="1.12" vaporized=""/>
    <tripinfo id="carIn46110:1" depart="57804.00" departLane="315358253#1_1" departPos="5.10" departSpeed="0.00" departDelay="0.40" arrival="57845.00" arrivalLane="32978638#0_1" arrivalPos="49.29" arrivalSpeed="11.99" duration="41.00" routeLength="405.15" waitingTime="0.00" waitingCount="0" stopTime="0.00" timeLoss="6.19" rerouteNo="1" devices="tripinfo_carIn46110:1 routing_carIn46110:1" vType="default_016" speedFactor="0.89" vaporized=""/>
    <tripinfo id="randUni2407:1" depart="57820.00" departLane="10425609#0_1" departPos="5.10" departSpeed="0.00" departDelay="0.80" arrival="57845.00" arrivalLane="201956810_1" arrivalPos="71.65" arrivalSpeed="12.57" duration="25.00" routeLength="255.78" waitingTime="0.00" waitingCount="0" stopTime="0.00" timeLoss="4.95" rerouteNo="1" devices="tripinfo_randUni2407:1 routing_randUni2407:1" vType="random_016" speedFactor="0.97" vaporized=""/>
    <tripinfo id="h6541c1:3" depart="57807.00" departLane="315358253#1_1" departPos="5.10" departSpeed="0.00" departDelay="0.60" arrival="57846.00" arrivalLane="32978638#0_1" arrivalPos="49.29" arrivalSpeed="13.27" duration="39.00" routeLength="405.15" waitingTime="0.00" waitingCount="0" stopTime="0.00" timeLoss="8.06" rerouteNo="1" devices="tripinfo_h6541c1:3 routing_h6541c1:3" vType="default_016" speedFactor="1.00" vaporized=""/>
    <tripinfo id="carIn9810:1" depart="57820.00" departLane="315358253#1_1" departPos="5.10" departSpeed="0.00" departDelay="0.80" arrival="57853.00" arrivalLane="32978638#0_1" arrivalPos="49.29" arrivalSpeed="15.56" duration="33.00" routeLength="405.15" waitingTime="0.00" waitingCount="0" stopTime="0.00" timeLoss="6.32" rerouteNo="1" devices="tripinfo_carIn9810:1 routing_carIn9810:1" vType="default_016" speedFactor="1.15" vaporized=""/>
    <tripinfo id="carIn114105:1" depart="57821.00" departLane="10425609#0_1" departPos="5.10" departSpeed="0.00" departDelay="0.20" arrival="57854.00" arrivalLane="-653473569#5_1" arrivalPos="73.05" arrivalSpeed="12.27" duration="33.00" routeLength="312.95" waitingTime="0.00" waitingCount="0" stopTime="0.00" timeLoss="5.95" rerouteNo="1" devices="tripinfo_carIn114105:1 routing_carIn114105:1" vType="default_016" speedFactor="0.90" vaporized=""/>
    <tripinfo id="carIn72316:1" depart="57826.00" departLane="10425609#0_1" departPos="5.10" departSpeed="0.00" departDelay="0.50" arrival="57856.00" arrivalLane="-653473569#5_1" arrivalPos="73.05" arrivalSpeed="15.18" duration="30.00" routeLength="312.95" waitingTime="0.00" waitingCount="0" stopTime="0.00" timeLoss="8.75" rerouteNo="1" devices="tripinfo_carIn72316:1 routing_carIn72316:1" vType="default_016" speedFactor="1.16" vaporized=""/>
    <tripinfo id="h3536c1:1" depart="57836.00" departLane="315358253#1_1" departPos="5.10" departSpeed="0.00" departDelay="0.80" arrival="57877.00" arrivalLane="32978638#0_1" arrivalPos="49.29" arrivalSpeed="12.10" duration="41.00" routeLength="405.15" waitingTime="0.00" waitingCount="0" stopTime="0.00" timeLoss="5.99" rerouteNo="1" devices="tripinfo_h3536c1:1 routing_h3536c1:1" vType="default_016" speedFactor="0.88" vaporized=""/>
    <tripinfo id="carIn101921:1" depart="57856.00" departLane="-32978638#0_1" departPos="5.10" departSpeed="0.00" departDelay="5.90" arrival="57893.00" arrivalLane="-315358253#1_1" arrivalPos="63.90" arrivalSpeed="14.77" duration="37.00" routeLength="422.17" waitingTime="0.00" waitingCount="0" stopTime="0.00" timeLoss="7.20" rerouteNo="1" devices="tripinfo_carIn101921:1 routing_carIn101921:1" vType="default_016" speedFactor="1.07" vaporized=""/>
    <tripinfo id="h7759c1:3" depart="57859.00" departLane="-32978638#0_1" departPos="5.10" departSpeed="0.00" departDelay="7.20" arrival="57895.00" arrivalLane="-315358253#1_1" arrivalPos="63.90" arrivalSpeed="16.30" duration="36.00" routeLength="420.12" waitingTime="0.00" waitingCount="0" stopTime="0.00" timeLoss="8.81" rerouteNo="1" devices="tripinfo_h7759c1:3 routing_h7759c1:3" vType="default_016" speedFactor="1.17" vaporized=""/>
    <tripinfo id="carIn64958:1" depart="57857.00" departLane="10425609#0_1" departPos="5.10" departSpeed="0.00" departDelay="0.60" arrival="57895.00" arrivalLane="-653473569#5_1" arrivalPos="73.05" arrivalSpeed="11.61" duration="38.00" routeLength="312.95" waitingTime="4.00" waitingCount="1" stopTime="0.00" timeLoss="11.07" rerouteNo="1" devices="tripinfo_carIn64958:1 routing_carIn64958:1" vType="default_016" speedFactor="0.88" vaporized=""/>
    <tripinfo id="h13311c1:3" depart="57861.00" departLane="315358253#1_1" departPos="5.10" departSpeed="0.00" departDelay="0.00" arrival="57896.00" arrivalLane="32978638#0_1" arrivalPos="49.29" arrivalSpeed="14.15" duration="35.00" routeLength="405.15" waitingTime="0.00" waitingCount="0" stopTime="0.00" timeLoss="6.37" rerouteNo="1" devices="tripinfo_h13311c1:3 routing_h13311c1:3" vType="default_016" speedFactor="1.08" vaporized=""/>
    <tripinfo id="carIn133015:1" depart="57864.00" departLane="10425609#0_1" departPos="5.10" departSpeed="0.00" departDelay="0.00" arrival="57897.00" arrivalLane="-653473569#5_1" arrivalPos="73.05" arrivalSpeed="14.14" duration="33.00" routeLength="312.95" waitingTime="0.00" waitingCount="0" stopTime="0.00" timeLoss="9.44" rerouteNo="1" devices="tripinfo_carIn133015:1 routing_carIn133015:1" vType="default_016" speedFactor="1.03" vaporized=""/>
    <tripinfo id="carIn105842:1" depart="57601.00" departLane="653473569#5_1" departPos="5.10" departSpeed="0.00" departDelay="0.80" arrival="57899.00" arrivalLane="201956811#0_1" arrivalPos="40.40" arrivalSpeed="13.77" duration="298.00" routeLength="313.24" waitingTime="256.00" waitingCount="3" stopTime="0.00" timeLoss="275.70" rerouteNo="1" devices="tripinfo_carIn105842:1 routing_carIn105842:1" vType="default_016" speedFactor="1.05" vaporized=""/>
    <tripinfo id="carIn28488:1" depart="57611.00" departLane="653473569#5_1" departPos="5.10" departSpeed="0.00" departDelay="0.80" arrival="57900.00" arrivalLane="201956820_1" arrivalPos="48.33" arrivalSpeed="13.45" duration="289.00" routeLength="437.07" waitingTime="241.00" waitingCount="2" stopTime="0.00" timeLoss="256.91" rerouteNo="1" devices="tripinfo_carIn28488:1 routing_carIn28488:1" vType="default_016" speedFactor="1.00" vaporized=""/>
    <tripinfo id="carIn106322:1" depart="57614.00" departLane="653473569#5_1" departPos="5.10" departSpeed="0.00" departDelay="2.20" arrival="57902.00" arrivalLane="201956811#0_1" arrivalPos="40.40" arrivalSpeed="12.32" duration="288.00" routeLength="313.24" waitingTime="236.00" waitingCount="4" stopTime="0.00" timeLoss="261.98" rerouteNo="1" devices="tripinfo_carIn106322:1 routing_carIn106322:1" vType="default_016" speedFactor="0.92" vaporized=""/>
    <tripinfo id="carIn5482:1" depart="57617.00" departLane="653473569#5_1" departPos="5.10" departSpeed="0.00" departDelay="3.60" arrival="57904.00" arrivalLane="201956811#0_1" arrivalPos="40.40" arrivalSpeed="11.73" duration="287.00" routeLength="313.24" waitingTime="229.00" waitingCount="5" stopTime="0.00" timeLoss="259.68" rerouteNo="1" devices="tripinfo_carIn5482:1 routing_carIn5482:1" vType="default_016" speedFactor="0.87" vaporized=""/>
    <tripinfo id="carIn88912:1" depart="57867.00" departLane="-32978638#0_1" departPos="5.10" departSpeed="0.00" departDelay="0.20" arrival="57905.00" arrivalLane="-315358253#1_1" arrivalPos="63.90" arrivalSpeed="13.28" duration="38.00" routeLength="422.17" waitingTime="0.00" waitingCount="0" stopTime="0.00" timeLoss="6.85" rerouteNo="1" devices="tripinfo_carIn88912:1 routing_carIn88912:1" vType="default_016" speedFactor="1.01" vaporized=""/>
    <tripinfo id="carIn126072:1" depart="57870.00" departLane="315358253#1_1" departPos="5.10" departSpeed="0.00" departDelay="0.80" arrival="57906.00" arrivalLane="32978638#0_1" arrivalPos="49.29" arrivalSpeed="13.53" duration="36.00" routeLength="405.15" waitingTime="0.00" waitingCount="0" stopTime="0.00" timeLoss="6.46" rerouteNo="1" devices="tripinfo_carIn126072:1 routing_carIn126072:1" vType="default_016" speedFactor="1.03" vaporized=""/>
    <tripinfo id="carIn12900:1" depart="57698.00" departLane="124812856#0_1" departPos="5.10" departSpeed="0.00" departDelay="49.80" arrival="57908.00" arrivalLane="201956810_1" arrivalPos="71.65" arrivalSpeed="15.08" duration="210.00" routeLength="134.91" waitingTime="189.00" waitingCount="1" stopTime="0.00" timeLoss="200.72" rerouteNo="1" devices="tripinfo_carIn12900:1 routing_carIn12900:1" vType="default_016" speedFactor="1.12" vaporized=""/>
    <tripinfo id="carIn107084:1" depart="57601.00" departLane="124812856#0_1" departPos="5.10" departSpeed="0.00" departDelay="0.70" arrival="57914.00" arrivalLane="-653473569#5_1" arrivalPos="73.05" arrivalSpeed="12.88" duration="313.00" routeLength="450.40" waitingTime="267.00" waitingCount="2" stopTime="0.00" timeLoss="279.02" rerouteNo="1" devices="tripinfo_carIn107084:1 routing_carIn107084:1" vType="default_016" speedFactor="0.98" vaporized=""/>
    <tripinfo id="randUni10474:1" depart="57605.00" departLane="124812856#0_1" departPos="5.10" departSpeed="0.00" departDelay="0.20" arrival="57917.00" arrivalLane="-653473569#5_1" arrivalPos="73.05" arrivalSpeed="12.45" duration="312.00" routeLength="450.40" waitingTime="262.00" waitingCount="2" stopTime="0.00" timeLoss="276.58" rerouteNo="1" devices="tripinfo_randUni10474:1 routing_randUni10474:1" vType="random_016" speedFactor="0.95" vaporized=""/>
    <tripinfo id="carIn103052:1" depart="57859.00" departLane="124812856#0_1" departPos="5.10" departSpeed="0.00" departDelay="0.90" arrival="57919.00" arrivalLane="201956810_1" arrivalPos="71.65" arrivalSpeed="13.59" duration="60.00" routeLength="134.91" waitingTime="34.00" waitingCount="1" stopTime="0.00" timeLoss="48.82" rerouteNo="1" devices="tripinfo_carIn103052:1 routing_carIn103052:1" vType="default_016" speedFactor="0.98" vaporized=""/>
    <tripinfo id="carIn27352:1" depart="57879.00" departLane="124812856#0_1" departPos="5.10" departSpeed="0.00" departDelay="0.80" arrival="57922.00" arrivalLane="201956810_1" arrivalPos="71.65" arrivalSpeed="14.29" duration="43.00" routeLength="134.91" waitingTime="16.00" waitingCount="1" stopTime="0.00" timeLoss="32.59" rerouteNo="1" devices="tripinfo_carIn27352:1 routing_carIn27352:1" vType="default_016" speedFactor="1.06" vaporized=""/>
    <tripinfo id="carIn69046:1" depart="57887.00" departLane="-32978638#0_1" departPos="5.10" departSpeed="0.00" departDelay="0.40" arrival="57923.00" arrivalLane="-315358253#1_1" arrivalPos="63.90" arrivalSpeed="14.38" duration="36.00" routeLength="422.17" waitingTime="0.00" waitingCount="0" stopTime="0.00" timeLoss="6.33" rerouteNo="1" devices="tripinfo_carIn69046:1 routing_carIn69046:1" vType="default_016" speedFactor="1.07" vaporized=""/>
    <tripinfo id="carIn77943:1" depart="57608.00" departLane="124812856#0_1" departPos="5.10" departSpeed="0.00" departDelay="2.50" arrival="57924.00" arrivalLane="-653473569#5_1" arrivalPos="73.05" arrivalSpeed="15.19" duration="316.00" routeLength="450.40" waitingTime="265.00" waitingCount="3" stopTime="0.00" timeLoss="285.93" rerouteNo="1" devices="tripinfo_carIn77943:1 routing_carIn77943:1" vType="default_016" speedFactor="1.13" vaporized=""/>
    <tripinfo id="randUni23028:1" depart="57884.00" departLane="124812856#0_1" departPos="5.10" departSpeed="0.00" departDelay="0.10" arrival="57925.00" arrivalLane="201956810_1" arrivalPos="71.65" arrivalSpeed="14.23" duration="41.00" routeLength="134.91" waitingTime="13.00" waitingCount="1" stopTime="0.00" timeLoss="31.09" rerouteNo="1" devices="tripinfo_randUni23028:1 routing_randUni23028:1" vType="random_016" speedFactor="1.07" vaporized=""/>
    <tripinfo id="randUni33912:1" depart="57873.00" departLane="-22716549#6_1" departPos="5.10" departSpeed="0.00" departDelay="0.00" arrival="57929.00" arrivalLane="202070434#2_1" arrivalPos="39.03" arrivalSpeed="16.38" duration="56.00" routeLength="632.93" waitingTime="0.00" waitingCount="0" stopTime="0.00" timeLoss="7.10" rerouteNo="1" devices="tripinfo_randUni33912:1 routing_randUni33912:1" vType="random_016" speedFactor="1.22" vaporized=""/>
    <tripinfo id="h19804c1:3" depart="57624.00" departLane="124812856#0_1" departPos="5.10" departSpeed="0.00" departDelay="8.50" arrival="57930.00" arrivalLane="-653473569#5_1" arrivalPos="73.05" arrivalSpeed="9.49" duration="306.00" routeLength="450.40" waitingTime="241.00" waitingCount="3" stopTime="0.00" timeLoss="260.32" rerouteNo="1" devices="tripinfo_h19804c1:3 routing_h19804c1:3" vType="default_016" speedFactor="0.73" vaporized=""/>
    <tripinfo id="h21699c2:1" depart="57890.00" departLane="-32978638#0_1" departPos="5.10" departSpeed="0.00" departDelay="1.90" arrival="57930.00" arrivalLane="-315358253#1_1" arrivalPos="63.90" arrivalSpeed="12.33" duration="40.00" routeLength="422.17" waitingTime="0.00" waitingCount="0" stopTime="0.00" timeLoss="5.44" rerouteNo="1" devices="tripinfo_h21699c2:1 routing_h21699c2:1" vType="default_016" speedFactor="0.94" vaporized=""/>
    <tripinfo id="h17890c1:3" depart="57893.00" departLane="315358253#1_1" departPos="5.10" departSpeed="0.00" departDelay="0.90" arrival="57933.00" arrivalLane="32978638#0_1" arrivalPos="49.29" arrivalSpeed="11.62" duration="40.00" routeLength="405.15" waitingTime="0.00" waitingCount="0" stopTime="0.00" timeLoss="6.20" rerouteNo="1" devices="tripinfo_h17890c1:3 routing_h17890c1:3" vType="default_016" speedFactor="0.91" vaporized=""/>
    <tripinfo id="h19571c2:3" depart="57882.00" departLane="10425609#0_1" departPos="5.10" departSpeed="0.00" departDelay="0.30" arrival="57934.00" arrivalLane="-653473569#5_1" arrivalPos="73.05" arrivalSpeed="14.32" duration="52.00" routeLength="312.95" waitingTime="8.00" waitingCount="3" stopTime="0.00" timeLoss="30.14" rerouteNo="1" devices="tripinfo_h19571c2:3 routing_h19571c2:3" vType="default_016" speedFactor="1.12" vaporized=""/>
    <tripinfo id="randUni16001:1" depart="57912.00" departLane="10425609#0_1" departPos="5.10" departSpeed="0.00" departDelay="0.30" arrival="57936.00" arrivalLane="201956810_1" arrivalPos="71.65" arrivalSpeed="14.43" duration="24.00" routeLength="255.78" waitingTime="0.00" waitingCount="0" stopTime="0.00" timeLoss="5.29" rerouteNo="1" devices="tripinfo_randUni16001:1 routing_randUni16001:1" vType="random_016" speedFactor="1.06" vaporized=""/>