<?xml version="1.0" encoding="UTF-8"?>

<!-- generated on 2023-08-31 12:54:46 by Eclipse SUMO libsumo Version 1.18.0
<configuration xmlns:xsi="http://www.w3.org/2001/XMLSchema-instance" xsi:noNamespaceSchemaLocation="http://sumo.dlr.de/xsd/libsumoConfiguration.xsd">

    <input>
        <net-file value="/home/stefan/RESCO/./environments/ingolstadt7/ingolstadt7.net.xml"/>
        <route-files value="/home/stefan/RESCO/./environments/ingolstadt7/ingolstadt7.rou.xml"/>
    </input>

    <output>
        <tripinfo-output value="/home/stefan/results/RAINBOW-tr0-ingolstadt7-7-drq_norm-wait_norm/tripinfo_95.xml"/>
        <tripinfo-output.write-unfinished value="true"/>
    </output>

    <time>
        <begin value="57600"/>
        <end value="61200"/>
    </time>

    <processing>
        <time-to-teleport value="-1"/>
    </processing>

    <report>
        <no-warnings value="True"/>
        <no-step-log value="True"/>
    </report>

    <random_number>
        <random value="true"/>
    </random_number>

</configuration>
-->

<tripinfos xmlns:xsi="http://www.w3.org/2001/XMLSchema-instance" xsi:noNamespaceSchemaLocation="http://sumo.dlr.de/xsd/tripinfo_file.xsd">
    <tripinfo id="carIn89578:1" depart="57614.00" departLane="124812856#0_1" departPos="5.10" departSpeed="0.00" departDelay="3.60" arrival="57630.00" arrivalLane="201956810_1" arrivalPos="71.65" arrivalSpeed="13.69" duration="16.00" routeLength="134.91" waitingTime="0.00" waitingCount="0" stopTime="0.00" timeLoss="4.89" rerouteNo="1" devices="tripinfo_carIn89578:1 routing_carIn89578:1" vType="default_016" speedFactor="0.99" vaporized=""/>
    <tripinfo id="carIn107084:1" depart="57601.00" departLane="124812856#0_1" departPos="5.10" departSpeed="0.00" departDelay="0.70" arrival="57639.00" arrivalLane="-653473569#5_1" arrivalPos="73.05" arrivalSpeed="13.43" duration="38.00" routeLength="450.40" waitingTime="0.00" waitingCount="0" stopTime="0.00" timeLoss="5.85" rerouteNo="1" devices="tripinfo_carIn107084:1 routing_carIn107084:1" vType="default_016" speedFactor="1.03" vaporized=""/>
    <tripinfo id="randUni10474:1" depart="57605.00" departLane="124812856#0_1" departPos="5.10" departSpeed="0.00" departDelay="0.20" arrival="57643.00" arrivalLane="-653473569#5_1" arrivalPos="73.05" arrivalSpeed="13.55" duration="38.00" routeLength="450.40" waitingTime="0.00" waitingCount="0" stopTime="0.00" timeLoss="6.32" rerouteNo="1" devices="tripinfo_randUni10474:1 routing_randUni10474:1" vType="random_016" speedFactor="1.04" vaporized=""/>
    <tripinfo id="carIn28488:1" depart="57611.00" departLane="653473569#5_1" departPos="5.10" departSpeed="0.00" departDelay="0.80" arrival="57650.00" arrivalLane="201956820_1" arrivalPos="48.33" arrivalSpeed="13.60" duration="39.00" routeLength="437.07" waitingTime="0.00" waitingCount="0" stopTime="0.00" timeLoss="6.68" rerouteNo="1" devices="tripinfo_carIn28488:1 routing_carIn28488:1" vType="default_016" speedFactor="1.01" vaporized=""/>
    <tripinfo id="carIn77943:1" depart="57608.00" departLane="124812856#0_1" departPos="5.10" departSpeed="0.00" departDelay="2.50" arrival="57651.00" arrivalLane="-653473569#5_1" arrivalPos="73.05" arrivalSpeed="12.37" duration="43.00" routeLength="450.40" waitingTime="0.00" waitingCount="0" stopTime="0.00" timeLoss="5.11" rerouteNo="1" devices="tripinfo_carIn77943:1 routing_carIn77943:1" vType="default_016" speedFactor="0.90" vaporized=""/>
    <tripinfo id="carIn81046:1" depart="57611.00" departLane="124812856#0_1" departPos="5.10" departSpeed="0.00" departDelay="2.50" arrival="57653.00" arrivalLane="-653473569#5_1" arrivalPos="73.05" arrivalSpeed="13.00" duration="42.00" routeLength="450.40" waitingTime="0.00" waitingCount="0" stopTime="0.00" timeLoss="7.45" rerouteNo="1" devices="tripinfo_carIn81046:1 routing_carIn81046:1" vType="default_016" speedFactor="0.98" vaporized=""/>
    <tripinfo id="carIn77438:1" depart="57618.00" departLane="124812856#0_1" departPos="5.10" departSpeed="0.00" departDelay="5.10" arrival="57658.00" arrivalLane="-653473569#5_1" arrivalPos="73.05" arrivalSpeed="13.26" duration="40.00" routeLength="450.40" waitingTime="0.00" waitingCount="0" stopTime="0.00" timeLoss="6.51" rerouteNo="1" devices="tripinfo_carIn77438:1 routing_carIn77438:1" vType="default_016" speedFactor="1.01" vaporized=""/>
    <tripinfo id="h19804c1:3" depart="57624.00" departLane="124812856#0_1" departPos="5.10" departSpeed="0.00" departDelay="8.50" arrival="57660.00" arrivalLane="-653473569#5_1" arrivalPos="73.05" arrivalSpeed="14.82" duration="36.00" routeLength="450.40" waitingTime="0.00" waitingCount="0" stopTime="0.00" timeLoss="6.37" rerouteNo="1" devices="tripinfo_h19804c1:3 routing_h19804c1:3" vType="default_016" speedFactor="1.14" vaporized=""/>
    <tripinfo id="carIn25202:1" depart="57629.00" departLane="315358253#1_1" departPos="5.10" departSpeed="0.00" departDelay="1.50" arrival="57664.00" arrivalLane="32978638#0_1" arrivalPos="49.29" arrivalSpeed="15.11" duration="35.00" routeLength="405.15" waitingTime="0.00" waitingCount="0" stopTime="0.00" timeLoss="6.29" rerouteNo="1" devices="tripinfo_carIn25202:1 routing_carIn25202:1" vType="default_016" speedFactor="1.09" vaporized=""/>
    <tripinfo id="carIn925:1" depart="57654.00" departLane="124812856#0_1" departPos="5.10" departSpeed="0.00" departDelay="27.90" arrival="57670.00" arrivalLane="201956810_1" arrivalPos="71.65" arrivalSpeed="15.00" duration="16.00" routeLength="134.91" waitingTime="0.00" waitingCount="0" stopTime="0.00" timeLoss="5.57" rerouteNo="1" devices="tripinfo_carIn925:1 routing_carIn925:1" vType="default_016" speedFactor="1.10" vaporized=""/>
    <tripinfo id="carIn767:1" depart="57633.00" departLane="124812856#0_1" departPos="5.10" departSpeed="0.00" departDelay="14.50" arrival="57676.00" arrivalLane="-653473569#5_1" arrivalPos="73.05" arrivalSpeed="15.60" duration="43.00" routeLength="450.40" waitingTime="2.00" waitingCount="1" stopTime="0.00" timeLoss="14.08" rerouteNo="1" devices="tripinfo_carIn767:1 routing_carIn767:1" vType="default_016" speedFactor="1.16" vaporized=""/>
    <tripinfo id="carIn96537:1" depart="57615.00" departLane="124812856#0_1" departPos="5.10" departSpeed="0.00" departDelay="3.80" arrival="57678.00" arrivalLane="202070434#2_1" arrivalPos="39.03" arrivalSpeed="13.62" duration="63.00" routeLength="569.75" waitingTime="12.00" waitingCount="1" stopTime="0.00" timeLoss="23.41" rerouteNo="1" devices="tripinfo_carIn96537:1 routing_carIn96537:1" vType="default_016" speedFactor="1.05" vaporized=""/>
    <tripinfo id="carIn26410:1" depart="57621.00" departLane="124812856#0_1" departPos="5.10" departSpeed="0.00" departDelay="7.50" arrival="57678.00" arrivalLane="202070434#2_2" arrivalPos="39.03" arrivalSpeed="13.95" duration="57.00" routeLength="569.75" waitingTime="1.00" waitingCount="1" stopTime="0.00" timeLoss="16.21" rerouteNo="1" devices="tripinfo_carIn26410:1 routing_carIn26410:1" vType="default_016" speedFactor="1.01" vaporized=""/>
    <tripinfo id="carIn107842:1" depart="57639.00" departLane="124812856#0_1" departPos="5.10" departSpeed="0.00" departDelay="17.90" arrival="57678.00" arrivalLane="-653473569#5_1" arrivalPos="73.05" arrivalSpeed="13.23" duration="39.00" routeLength="450.40" waitingTime="0.00" waitingCount="0" stopTime="0.00" timeLoss="7.18" rerouteNo="1" devices="tripinfo_carIn107842:1 routing_carIn107842:1" vType="default_016" speedFactor="1.04" vaporized=""/>
    <tripinfo id="carIn51024:1" depart="57626.00" departLane="124812856#0_1" departPos="5.10" departSpeed="0.00" departDelay="9.90" arrival="57681.00" arrivalLane="202070434#2_1" arrivalPos="39.03" arrivalSpeed="14.41" duration="55.00" routeLength="569.75" waitingTime="0.00" waitingCount="0" stopTime="0.00" timeLoss="15.25" rerouteNo="1" devices="tripinfo_carIn51024:1 routing_carIn51024:1" vType="default_016" speedFactor="1.04" vaporized=""/>
    <tripinfo id="carIn33538:1" depart="57671.00" departLane="37386279_1" departPos="5.10" departSpeed="0.00" departDelay="0.30" arrival="57684.00" arrivalLane="-24634414#4_1" arrivalPos="22.88" arrivalSpeed="10.14" duration="13.00" routeLength="125.23" waitingTime="0.00" waitingCount="0" stopTime="0.00" timeLoss="4.36" rerouteNo="0" devices="tripinfo_carIn33538:1 routing_carIn33538:1" vType="default_016" speedFactor="1.27" vaporized=""/>
    <tripinfo id="carIn13117:1" depart="57627.00" departLane="27920078#0_1" departPos="5.10" departSpeed="0.00" departDelay="1.80" arrival="57685.00" arrivalLane="201956820_2" arrivalPos="48.33" arrivalSpeed="13.02" duration="58.00" routeLength="552.44" waitingTime="4.00" waitingCount="1" stopTime="0.00" timeLoss="14.66" rerouteNo="1" devices="tripinfo_carIn13117:1 routing_carIn13117:1" vType="default_016" speedFactor="0.94" vaporized=""/>
    <tripinfo id="h21989c1:1" depart="57636.00" departLane="124812856#0_1" departPos="5.10" departSpeed="0.00" departDelay="15.60" arrival="57690.00" arrivalLane="202070434#2_2" arrivalPos="39.03" arrivalSpeed="12.23" duration="54.00" routeLength="569.75" waitingTime="0.00" waitingCount="0" stopTime="0.00" timeLoss="8.19" rerouteNo="1" devices="tripinfo_h21989c1:1 routing_h21989c1:1" vType="default_016" speedFactor="0.91" vaporized=""/>
    <tripinfo id="h15382c1:3" depart="57642.00" departLane="124812856#0_1" departPos="5.10" departSpeed="0.00" departDelay="19.80" arrival="57690.00" arrivalLane="-653473569#5_1" arrivalPos="73.05" arrivalSpeed="10.69" duration="48.00" routeLength="450.40" waitingTime="0.00" waitingCount="0" stopTime="0.00" timeLoss="8.63" rerouteNo="1" devices="tripinfo_h15382c1:3 routing_h15382c1:3" vType="default_016" speedFactor="0.85" vaporized=""/>
    <tripinfo id="carIn20106:1" depart="57630.00" departLane="27920078#0_1" departPos="5.10" departSpeed="0.00" departDelay="2.70" arrival="57690.00" arrivalLane="201956820_1" arrivalPos="48.33" arrivalSpeed="11.33" duration="60.00" routeLength="552.44" waitingTime="4.00" waitingCount="1" stopTime="0.00" timeLoss="13.27" rerouteNo="1" devices="tripinfo_carIn20106:1 routing_carIn20106:1" vType="default_016" speedFactor="0.86" vaporized=""/>
    <tripinfo id="carIn128705:1" depart="57629.00" departLane="124812856#0_1" departPos="5.10" departSpeed="0.00" departDelay="10.60" arrival="57691.00" arrivalLane="202070434#2_1" arrivalPos="39.03" arrivalSpeed="11.68" duration="62.00" routeLength="569.75" waitingTime="2.00" waitingCount="1" stopTime="0.00" timeLoss="16.39" rerouteNo="1" devices="tripinfo_carIn128705:1 routing_carIn128705:1" vType="default_016" speedFactor="0.91" vaporized=""/>
    <tripinfo id="carIn131078:1" depart="57679.00" departLane="124812856#0_1" departPos="5.10" departSpeed="0.00" departDelay="43.60" arrival="57695.00" arrivalLane="201956810_1" arrivalPos="71.65" arrivalSpeed="11.30" duration="16.00" routeLength="134.91" waitingTime="0.00" waitingCount="0" stopTime="0.00" timeLoss="4.04" rerouteNo="1" devices="tripinfo_carIn131078:1 routing_carIn131078:1" vType="default_016" speedFactor="0.90" vaporized=""/>
    <tripinfo id="carIn114137:1" depart="57634.00" departLane="27920078#0_1" departPos="5.10" departSpeed="0.00" departDelay="3.10" arrival="57696.00" arrivalLane="-83304175#2_1" arrivalPos="189.34" arrivalSpeed="6.59" duration="62.00" routeLength="501.51" waitingTime="0.00" waitingCount="0" stopTime="0.00" timeLoss="10.48" rerouteNo="1" devices="tripinfo_carIn114137:1 routing_carIn114137:1" vType="default_016" speedFactor="0.92" vaporized=""/>
    <tripinfo id="carIn22637:1" depart="57635.00" departLane="27920078#0_1" departPos="5.10" departSpeed="0.00" departDelay="2.50" arrival="57698.00" arrivalLane="-83304175#2_1" arrivalPos="189.34" arrivalSpeed="8.49" duration="63.00" routeLength="501.51" waitingTime="0.00" waitingCount="0" stopTime="0.00" timeLoss="16.70" rerouteNo="1" devices="tripinfo_carIn22637:1 routing_carIn22637:1" vType="default_016" speedFactor="1.02" vaporized=""/>
    <tripinfo id="carIn3969:1" depart="57645.00" departLane="124812856#0_1" departPos="5.10" departSpeed="0.00" departDelay="21.30" arrival="57704.00" arrivalLane="-653473569#5_1" arrivalPos="73.05" arrivalSpeed="13.49" duration="59.00" routeLength="450.40" waitingTime="10.00" waitingCount="1" stopTime="0.00" timeLoss="25.22" rerouteNo="1" devices="tripinfo_carIn3969:1 routing_carIn3969:1" vType="default_016" speedFactor="0.98" vaporized=""/>
    <tripinfo id="carIn56649:1" depart="57648.00" departLane="124812856#0_1" departPos="5.10" departSpeed="0.00" departDelay="24.10" arrival="57707.00" arrivalLane="-653473569#5_1" arrivalPos="73.05" arrivalSpeed="12.90" duration="59.00" routeLength="450.40" waitingTime="8.00" waitingCount="1" stopTime="0.00" timeLoss="22.80" rerouteNo="1" devices="tripinfo_carIn56649:1 routing_carIn56649:1" vType="default_016" speedFactor="0.94" vaporized=""/>
    <tripinfo id="carIn38625:1" depart="57651.00" departLane="124812856#0_1" departPos="5.10" departSpeed="0.00" departDelay="25.50" arrival="57709.00" arrivalLane="-653473569#5_1" arrivalPos="73.05" arrivalSpeed="13.17" duration="58.00" routeLength="450.40" waitingTime="7.00" waitingCount="1" stopTime="0.00" timeLoss="23.07" rerouteNo="1" devices="tripinfo_carIn38625:1 routing_carIn38625:1" vType="default_016" speedFactor="0.96" vaporized=""/>
    <tripinfo id="carIn105842:1" depart="57601.00" departLane="653473569#5_1" departPos="5.10" departSpeed="0.00" departDelay="0.80" arrival="57710.00" arrivalLane="201956811#0_1" arrivalPos="40.40" arrivalSpeed="14.78" duration="109.00" routeLength="313.24" waitingTime="75.00" waitingCount="1" stopTime="0.00" timeLoss="87.13" rerouteNo="1" devices="tripinfo_carIn105842:1 routing_carIn105842:1" vType="default_016" speedFactor="1.09" vaporized=""/>
    <tripinfo id="carIn17767:1" depart="57655.00" departLane="124812856#0_1" departPos="5.10" departSpeed="0.00" departDelay="27.80" arrival="57711.00" arrivalLane="-653473569#5_1" arrivalPos="73.05" arrivalSpeed="13.51" duration="56.00" routeLength="450.40" waitingTime="6.00" waitingCount="1" stopTime="0.00" timeLoss="21.71" rerouteNo="1" devices="tripinfo_carIn17767:1 routing_carIn17767:1" vType="default_016" speedFactor="0.98" vaporized=""/>
    <tripinfo id="carIn64859:1" depart="57658.00" departLane="124812856#0_1" departPos="5.10" departSpeed="0.00" departDelay="29.60" arrival="57713.00" arrivalLane="-653473569#5_1" arrivalPos="73.05" arrivalSpeed="11.13" duration="55.00" routeLength="450.40" waitingTime="6.00" waitingCount="1" stopTime="0.00" timeLoss="17.82" rerouteNo="1" devices="tripinfo_carIn64859:1 routing_carIn64859:1" vType="default_016" speedFactor="0.89" vaporized=""/>
    <tripinfo id="carIn12900:1" depart="57698.00" departLane="124812856#0_1" departPos="5.10" departSpeed="0.00" departDelay="49.80" arrival="57714.00" arrivalLane="201956810_1" arrivalPos="71.65" arrivalSpeed="11.51" duration="16.00" routeLength="134.91" waitingTime="0.00" waitingCount="0" stopTime="0.00" timeLoss="3.60" rerouteNo="1" devices="tripinfo_carIn12900:1 routing_carIn12900:1" vType="default_016" speedFactor="0.87" vaporized=""/>
    <tripinfo id="carIn48979:1" depart="57661.00" departLane="124812856#0_1" departPos="5.10" departSpeed="0.00" departDelay="32.10" arrival="57715.00" arrivalLane="-653473569#5_1" arrivalPos="73.05" arrivalSpeed="12.72" duration="54.00" routeLength="450.40" waitingTime="5.00" waitingCount="1" stopTime="0.00" timeLoss="18.74" rerouteNo="1" devices="tripinfo_carIn48979:1 routing_carIn48979:1" vType="default_016" speedFactor="0.95" vaporized=""/>
    <tripinfo id="h3688c1:1" depart="57679.00" departLane="315358253#1_1" departPos="5.10" departSpeed="0.00" departDelay="0.50" arrival="57716.00" arrivalLane="32978638#0_1" arrivalPos="49.29" arrivalSpeed="13.58" duration="37.00" routeLength="405.15" waitingTime="0.00" waitingCount="0" stopTime="0.00" timeLoss="6.88" rerouteNo="1" devices="tripinfo_h3688c1:1 routing_h3688c1:1" vType="default_016" speedFactor="1.00" vaporized=""/>
    <tripinfo id="carIn88932:1" depart="57664.00" departLane="124812856#0_1" departPos="5.10" departSpeed="0.00" departDelay="33.40" arrival="57718.00" arrivalLane="-653473569#5_1" arrivalPos="73.05" arrivalSpeed="12.69" duration="54.00" routeLength="450.40" waitingTime="3.00" waitingCount="1" stopTime="0.00" timeLoss="19.66" rerouteNo="1" devices="tripinfo_carIn88932:1 routing_carIn88932:1" vType="default_016" speedFactor="0.99" vaporized=""/>
    <tripinfo id="carIn106322:1" depart="57614.00" departLane="653473569#5_1" departPos="5.10" departSpeed="0.00" departDelay="2.20" arrival="57719.00" arrivalLane="201956811#0_1" arrivalPos="40.40" arrivalSpeed="13.56" duration="105.00" routeLength="313.24" waitingTime="65.00" waitingCount="2" stopTime="0.00" timeLoss="81.89" rerouteNo="1" devices="tripinfo_carIn106322:1 routing_carIn106322:1" vType="default_016" speedFactor="1.05" vaporized=""/>
    <tripinfo id="carIn5482:1" depart="57617.00" departLane="653473569#5_1" departPos="5.10" departSpeed="0.00" departDelay="3.60" arrival="57720.00" arrivalLane="201956811#0_1" arrivalPos="40.40" arrivalSpeed="14.86" duration="103.00" routeLength="313.24" waitingTime="64.00" waitingCount="2" stopTime="0.00" timeLoss="81.75" rerouteNo="1" devices="tripinfo_carIn5482:1 routing_carIn5482:1" vType="default_016" speedFactor="1.13" vaporized=""/>
    <tripinfo id="carIn36103:1" depart="57620.00" departLane="653473569#5_1" departPos="5.10" departSpeed="0.00" departDelay="4.00" arrival="57724.00" arrivalLane="201956811#0_1" arrivalPos="40.40" arrivalSpeed="14.75" duration="104.00" routeLength="313.24" waitingTime="61.00" waitingCount="2" stopTime="0.00" timeLoss="82.03" rerouteNo="1" devices="tripinfo_carIn36103:1 routing_carIn36103:1" vType="default_016" speedFactor="1.13" vaporized=""/>
    <tripinfo id="h15353c2:1" depart="57667.00" departLane="124812856#0_1" departPos="5.10" departSpeed="0.00" departDelay="36.30" arrival="57724.00" arrivalLane="-653473569#5_1" arrivalPos="73.05" arrivalSpeed="14.26" duration="57.00" routeLength="450.40" waitingTime="3.00" waitingCount="1" stopTime="0.00" timeLoss="24.69" rerouteNo="1" devices="tripinfo_h15353c2:1 routing_h15353c2:1" vType="default_016" speedFactor="1.05" vaporized=""/>
    <tripinfo id="carIn102997:1" depart="57623.00" departLane="653473569#5_1" departPos="5.10" departSpeed="0.00" departDelay="4.80" arrival="57726.00" arrivalLane="201956811#0_1" arrivalPos="40.40" arrivalSpeed="14.57" duration="103.00" routeLength="313.24" waitingTime="60.00" waitingCount="2" stopTime="0.00" timeLoss="81.29" rerouteNo="1" devices="tripinfo_carIn102997:1 routing_carIn102997:1" vType="default_016" speedFactor="1.10" vaporized=""/>
    <tripinfo id="carIn44740:1" depart="57670.00" departLane="124812856#0_1" departPos="5.10" departSpeed="0.00" departDelay="37.70" arrival="57726.00" arrivalLane="-653473569#5_1" arrivalPos="73.05" arrivalSpeed="11.94" duration="56.00" routeLength="450.40" waitingTime="3.00" waitingCount="1" stopTime="0.00" timeLoss="20.75" rerouteNo="1" devices="tripinfo_carIn44740:1 routing_carIn44740:1" vType="default_016" speedFactor="0.94" vaporized=""/>
    <tripinfo id="carIn129626:1" depart="57664.00" departLane="653473569#5_1" departPos="5.10" departSpeed="0.00" departDelay="1.60" arrival="57728.00" arrivalLane="201956811#0_1" arrivalPos="40.40" arrivalSpeed="13.92" duration="64.00" routeLength="313.24" waitingTime="24.00" waitingCount="2" stopTime="0.00" timeLoss="40.80" rerouteNo="1" devices="tripinfo_carIn129626:1 routing_carIn129626:1" vType="default_016" speedFactor="1.03" vaporized=""/>
    <tripinfo id="randUni29093:1" depart="57673.00" departLane="124812856#0_1" departPos="5.10" departSpeed="0.00" departDelay="40.00" arrival="57730.00" arrivalLane="-653473569#5_1" arrivalPos="73.05" arrivalSpeed="10.76" duration="57.00" routeLength="450.40" waitingTime="0.00" waitingCount="0" stopTime="0.00" timeLoss="16.60" rerouteNo="1" devices="tripinfo_randUni29093:1 routing_randUni29093:1" vType="random_016" speedFactor="0.83" vaporized=""/>
    <tripinfo id="carIn75554:1" depart="57626.00" departLane="653473569#5_1" departPos="5.10" departSpeed="0.00" departDelay="5.20" arrival="57731.00" arrivalLane="201956811#0_1" arrivalPos="40.40" arrivalSpeed="13.21" duration="105.00" routeLength="313.24" waitingTime="61.00" waitingCount="2" stopTime="0.00" timeLoss="81.05" rerouteNo="1" devices="tripinfo_carIn75554:1 routing_carIn75554:1" vType="default_016" speedFactor="0.99" vaporized=""/>
    <tripinfo id="carIn64490:1" depart="57675.00" departLane="124812856#0_1" departPos="5.10" departSpeed="0.00" departDelay="41.10" arrival="57732.00" arrivalLane="-653473569#5_1" arrivalPos="73.05" arrivalSpeed="14.02" duration="57.00" routeLength="450.40" waitingTime="0.00" waitingCount="0" stopTime="0.00" timeLoss="25.72" rerouteNo="1" devices="tripinfo_carIn64490:1 routing_carIn64490:1" vType="default_016" speedFactor="1.08" vaporized=""/>
    <tripinfo id="randUni20090:1" depart="57629.00" departLane="653473569#5_1" departPos="5.10" departSpeed="0.00" departDelay="1.00" arrival="57733.00" arrivalLane="201956811#0_1" arrivalPos="40.40" arrivalSpeed="13.92" duration="104.00" routeLength="313.24" waitingTime="57.00" waitingCount="2" stopTime="0.00" timeLoss="79.97" rerouteNo="1" devices="tripinfo_randUni20090:1 routing_randUni20090:1" vType="random_016" speedFactor="1.03" vaporized=""/>
    <tripinfo id="carIn13362:1" depart="57680.00" departLane="124812856#0_1" departPos="5.10" departSpeed="0.00" departDelay="44.40" arrival="57733.00" arrivalLane="-653473569#5_1" arrivalPos="73.05" arrivalSpeed="13.62" duration="53.00" routeLength="450.40" waitingTime="0.00" waitingCount="0" stopTime="0.00" timeLoss="20.16" rerouteNo="1" devices="tripinfo_carIn13362:1 routing_carIn13362:1" vType="default_016" speedFactor="1.01" vaporized=""/>
    <tripinfo id="carIn7887:1" depart="57661.00" departLane="27920078#0_1" departPos="5.10" departSpeed="0.00" departDelay="0.50" arrival="57733.00" arrivalLane="-83304175#2_1" arrivalPos="189.34" arrivalSpeed="8.77" duration="72.00" routeLength="501.51" waitingTime="11.00" waitingCount="1" stopTime="0.00" timeLoss="31.91" rerouteNo="1" devices="tripinfo_carIn7887:1 routing_carIn7887:1" vType="default_016" speedFactor="1.18" vaporized=""/>
    <tripinfo id="carIn37268:1" depart="57636.00" departLane="653473569#5_1" departPos="5.10" departSpeed="0.00" departDelay="0.90" arrival="57736.00" arrivalLane="201956811#0_1" arrivalPos="40.40" arrivalSpeed="14.50" duration="100.00" routeLength="313.24" waitingTime="54.00" waitingCount="2" stopTime="0.00" timeLoss="77.40" rerouteNo="1" devices="tripinfo_carIn37268:1 routing_carIn37268:1" vType="default_016" speedFactor="1.06" vaporized=""/>
    <tripinfo id="h317c2:1" depart="57707.00" departLane="-32978638#0_1" departPos="5.10" departSpeed="0.00" departDelay="0.10" arrival="57740.00" arrivalLane="-266565295#5_1" arrivalPos="172.76" arrivalSpeed="13.63" duration="33.00" routeLength="370.53" waitingTime="0.00" waitingCount="0" stopTime="0.00" timeLoss="6.19" rerouteNo="1" devices="tripinfo_h317c2:1 routing_h317c2:1" vType="default_016" speedFactor="1.02" vaporized=""/>
    <tripinfo id="60R.41" depart="57623.00" departLane="27920078#0_1" departPos="12.10" departSpeed="0.00" departDelay="0.30" arrival="57741.00" arrivalLane="201956811#0_1" arrivalPos="40.40" arrivalSpeed="10.96" duration="118.00" routeLength="425.03" waitingTime="50.00" waitingCount="3" stopTime="0.00" timeLoss="86.62" rerouteNo="1" devices="tripinfo_60R.41 routing_60R.41" vType="bus" speedFactor="1.00" vaporized=""/>
    <tripinfo id="h20403c1:5" depart="57640.00" departLane="27920078#0_1" departPos="5.10" departSpeed="0.00" departDelay="4.60" arrival="57743.00" arrivalLane="201956811#0_1" arrivalPos="40.40" arrivalSpeed="14.26" duration="103.00" routeLength="428.61" waitingTime="41.00" waitingCount="1" stopTime="0.00" timeLoss="73.07" rerouteNo="1" devices="tripinfo_h20403c1:5 routing_h20403c1:5" vType="default_016" speedFactor="1.05" vaporized=""/>
    <tripinfo id="randUni27349:1" depart="57637.00" departLane="27920078#0_1" departPos="5.10" departSpeed="0.00" departDelay="3.10" arrival="57746.00" arrivalLane="201956811#0_1" arrivalPos="40.40" arrivalSpeed="11.14" duration="109.00" routeLength="432.03" waitingTime="39.00" waitingCount="1" stopTime="0.00" timeLoss="69.18" rerouteNo="1" devices="tripinfo_randUni27349:1 routing_randUni27349:1" vType="random_016" speedFactor="0.80" vaporized=""/>
    <tripinfo id="carIn129760:1" depart="57661.00" departLane="653473569#5_1" departPos="5.10" departSpeed="0.00" departDelay="0.80" arrival="57748.00" arrivalLane="201956811#0_1" arrivalPos="40.40" arrivalSpeed="15.36" duration="87.00" routeLength="313.24" waitingTime="33.00" waitingCount="1" stopTime="0.00" timeLoss="65.31" rerouteNo="1" devices="tripinfo_carIn129760:1 routing_carIn129760:1" vType="default_016" speedFactor="1.12" vaporized=""/>
    <tripinfo id="carIn73466:1" depart="57643.00" departLane="27920078#0_1" departPos="5.10" departSpeed="0.00" departDelay="6.10" arrival="57750.00" arrivalLane="201956811#0_1" arrivalPos="40.40" arrivalSpeed="14.61" duration="107.00" routeLength="428.61" waitingTime="41.00" waitingCount="2" stopTime="0.00" timeLoss="77.78" rerouteNo="1" devices="tripinfo_carIn73466:1 routing_carIn73466:1" vType="default_016" speedFactor="1.09" vaporized=""/>
    <tripinfo id="h2215c1:1" depart="57657.00" departLane="25145012#7_1" departPos="5.10" departSpeed="0.00" departDelay="0.90" arrival="57753.00" arrivalLane="201956811#0_1" arrivalPos="40.40" arrivalSpeed="12.66" duration="96.00" routeLength="384.54" waitingTime="32.00" waitingCount="2" stopTime="0.00" timeLoss="67.00" rerouteNo="1" devices="tripinfo_h2215c1:1 routing_h2215c1:1" vType="default_016" speedFactor="0.98" vaporized=""/>
    <tripinfo id="h20539c1:3" depart="57667.00" departLane="653473569#5_1" departPos="5.10" departSpeed="0.00" departDelay="2.20" arrival="57757.00" arrivalLane="201956811#0_1" arrivalPos="40.40" arrivalSpeed="13.93" duration="90.00" routeLength="313.24" waitingTime="32.00" waitingCount="1" stopTime="0.00" timeLoss="66.42" rerouteNo="1" devices="tripinfo_h20539c1:3 routing_h20539c1:3" vType="default_016" speedFactor="1.05" vaporized=""/>
    <tripinfo id="carIn99385:1" depart="57683.00" departLane="124812856#0_1" departPos="5.10" departSpeed="0.00" departDelay="45.90" arrival="57758.00" arrivalLane="-653473569#5_1" arrivalPos="73.05" arrivalSpeed="14.33" duration="75.00" routeLength="450.40" waitingTime="19.00" waitingCount="1" stopTime="0.00" timeLoss="44.46" rerouteNo="1" devices="tripinfo_carIn99385:1 routing_carIn99385:1" vType="default_016" speedFactor="1.10" vaporized=""/>
    <tripinfo id="carIn102740:1" depart="57667.00" departLane="25145012#7_1" departPos="5.10" departSpeed="0.00" departDelay="0.00" arrival="57759.00" arrivalLane="201956811#0_1" arrivalPos="40.40" arrivalSpeed="13.83" duration="92.00" routeLength="384.54" waitingTime="29.00" waitingCount="1" stopTime="0.00" timeLoss="65.53" rerouteNo="1" devices="tripinfo_carIn102740:1 routing_carIn102740:1" vType="default_016" speedFactor="1.09" vaporized=""/>
    <tripinfo id="randUni22709:1" depart="57718.00" departLane="315358253#1_1" departPos="5.10" departSpeed="0.00" departDelay="0.20" arrival="57760.00" arrivalLane="32978638#0_1" arrivalPos="49.29" arrivalSpeed="10.92" duration="42.00" routeLength="405.15" waitingTime="0.00" waitingCount="0" stopTime="0.00" timeLoss="6.69" rerouteNo="1" devices="tripinfo_randUni22709:1 routing_randUni22709:1" vType="random_016" speedFactor="0.88" vaporized=""/>
    <tripinfo id="carIn11547:1" depart="57686.00" departLane="124812856#0_1" departPos="5.10" departSpeed="0.00" departDelay="48.30" arrival="57761.00" arrivalLane="-653473569#5_1" arrivalPos="73.05" arrivalSpeed="12.09" duration="75.00" routeLength="450.40" waitingTime="18.00" waitingCount="1" stopTime="0.00" timeLoss="39.92" rerouteNo="1" devices="tripinfo_carIn11547:1 routing_carIn11547:1" vType="default_016" speedFactor="0.96" vaporized=""/>
    <tripinfo id="h134c1:3" depart="57721.00" departLane="315358253#1_1" departPos="5.10" departSpeed="0.00" departDelay="1.60" arrival="57761.00" arrivalLane="32978638#0_1" arrivalPos="49.29" arrivalSpeed="14.31" duration="40.00" routeLength="405.15" waitingTime="0.00" waitingCount="0" stopTime="0.00" timeLoss="10.52" rerouteNo="1" devices="tripinfo_h134c1:3 routing_h134c1:3" vType="default_016" speedFactor="1.05" vaporized=""/>
    <tripinfo id="carIn106797:1" depart="57725.00" departLane="653473569#5_1" departPos="5.10" departSpeed="0.00" departDelay="0.00" arrival="57761.00" arrivalLane="201956811#0_1" arrivalPos="40.40" arrivalSpeed="13.57" duration="36.00" routeLength="313.24" waitingTime="0.00" waitingCount="0" stopTime="0.00" timeLoss="13.01" rerouteNo="1" devices="tripinfo_carIn106797:1 routing_carIn106797:1" vType="default_016" speedFactor="1.04" vaporized=""/>
    <tripinfo id="carIn99509:1" depart="57720.00" departLane="-32978638#0_1" departPos="5.10" departSpeed="0.00" departDelay="0.20" arrival="57762.00" arrivalLane="-315358253#1_1" arrivalPos="63.90" arrivalSpeed="11.33" duration="42.00" routeLength="422.17" waitingTime="0.00" waitingCount="0" stopTime="0.00" timeLoss="5.92" rerouteNo="1" devices="tripinfo_carIn99509:1 routing_carIn99509:1" vType="default_015" speedFactor="0.89" vaporized=""/>
    <tripinfo id="carIn74045:1" depart="57724.00" departLane="315358253#1_1" departPos="5.10" departSpeed="0.00" departDelay="3.00" arrival="57762.00" arrivalLane="32978638#0_2" arrivalPos="49.29" arrivalSpeed="13.88" duration="38.00" routeLength="409.47" waitingTime="0.00" waitingCount="0" stopTime="0.00" timeLoss="7.54" rerouteNo="1" devices="tripinfo_carIn74045:1 routing_carIn74045:1" vType="default_016" speedFactor="1.01" vaporized=""/>