<?xml version="1.0" encoding="UTF-8"?>

<!-- generated on 2023-08-31 12:50:38 by Eclipse SUMO libsumo Version 1.18.0
<configuration xmlns:xsi="http://www.w3.org/2001/XMLSchema-instance" xsi:noNamespaceSchemaLocation="http://sumo.dlr.de/xsd/libsumoConfiguration.xsd">

    <input>
        <net-file value="/home/stefan/RESCO/./environments/ingolstadt7/ingolstadt7.net.xml"/>
        <route-files value="/home/stefan/RESCO/./environments/ingolstadt7/ingolstadt7.rou.xml"/>
    </input>

    <output>
        <tripinfo-output value="/home/stefan/results/RAINBOW-tr0-ingolstadt7-7-drq_norm-wait_norm/tripinfo_86.xml"/>
        <tripinfo-output.write-unfinished value="true"/>
    </output>

    <time>
        <begin value="57600"/>
        <end value="61200"/>
    </time>

    <processing>
        <time-to-teleport value="-1"/>
    </processing>

    <report>
        <no-warnings value="True"/>
        <no-step-log value="True"/>
    </report>

    <random_number>
        <random value="true"/>
    </random_number>

</configuration>
-->

<tripinfos xmlns:xsi="http://www.w3.org/2001/XMLSchema-instance" xsi:noNamespaceSchemaLocation="http://sumo.dlr.de/xsd/tripinfo_file.xsd">
    <tripinfo id="carIn89578:1" depart="57614.00" departLane="124812856#0_1" departPos="5.10" departSpeed="0.00" departDelay="3.60" arrival="57629.00" arrivalLane="201956810_1" arrivalPos="71.65" arrivalSpeed="16.20" duration="15.00" routeLength="134.91" waitingTime="0.00" waitingCount="0" stopTime="0.00" timeLoss="6.05" rerouteNo="1" devices="tripinfo_carIn89578:1 routing_carIn89578:1" vType="default_016" speedFactor="1.18" vaporized=""/>
    <tripinfo id="carIn28951:1" depart="57606.00" departLane="10425609#0_1" departPos="5.10" departSpeed="0.00" departDelay="0.20" arrival="57637.00" arrivalLane="-653473569#5_1" arrivalPos="73.05" arrivalSpeed="12.89" duration="31.00" routeLength="312.95" waitingTime="0.00" waitingCount="0" stopTime="0.00" timeLoss="6.25" rerouteNo="1" devices="tripinfo_carIn28951:1 routing_carIn28951:1" vType="default_016" speedFactor="0.96" vaporized=""/>
    <tripinfo id="carIn28488:1" depart="57611.00" departLane="653473569#5_1" departPos="5.10" departSpeed="0.00" departDelay="0.80" arrival="57657.00" arrivalLane="201956820_1" arrivalPos="48.33" arrivalSpeed="13.84" duration="46.00" routeLength="437.07" waitingTime="3.00" waitingCount="1" stopTime="0.00" timeLoss="15.86" rerouteNo="1" devices="tripinfo_carIn28488:1 routing_carIn28488:1" vType="default_016" speedFactor="1.06" vaporized=""/>
    <tripinfo id="carIn925:1" depart="57654.00" departLane="124812856#0_1" departPos="5.10" departSpeed="0.00" departDelay="27.90" arrival="57670.00" arrivalLane="201956810_1" arrivalPos="71.65" arrivalSpeed="12.43" duration="16.00" routeLength="134.91" waitingTime="0.00" waitingCount="0" stopTime="0.00" timeLoss="4.64" rerouteNo="1" devices="tripinfo_carIn925:1 routing_carIn925:1" vType="default_016" speedFactor="0.93" vaporized=""/>
    <tripinfo id="carIn25202:1" depart="57629.00" departLane="315358253#1_1" departPos="5.10" departSpeed="0.00" departDelay="1.50" arrival="57671.00" arrivalLane="32978638#0_1" arrivalPos="49.29" arrivalSpeed="10.87" duration="42.00" routeLength="405.15" waitingTime="0.00" waitingCount="0" stopTime="0.00" timeLoss="6.85" rerouteNo="1" devices="tripinfo_carIn25202:1 routing_carIn25202:1" vType="default_016" speedFactor="0.87" vaporized=""/>
    <tripinfo id="carIn107084:1" depart="57601.00" departLane="124812856#0_1" departPos="5.10" departSpeed="0.00" departDelay="0.70" arrival="57675.00" arrivalLane="-653473569#5_1" arrivalPos="73.05" arrivalSpeed="11.27" duration="74.00" routeLength="450.40" waitingTime="22.00" waitingCount="1" stopTime="0.00" timeLoss="36.55" rerouteNo="1" devices="tripinfo_carIn107084:1 routing_carIn107084:1" vType="default_016" speedFactor="0.88" vaporized=""/>
    <tripinfo id="randUni10474:1" depart="57605.00" departLane="124812856#0_1" departPos="5.10" departSpeed="0.00" departDelay="0.20" arrival="57677.00" arrivalLane="-653473569#5_1" arrivalPos="73.05" arrivalSpeed="14.38" duration="72.00" routeLength="450.40" waitingTime="20.00" waitingCount="1" stopTime="0.00" timeLoss="41.14" rerouteNo="1" devices="tripinfo_randUni10474:1 routing_randUni10474:1" vType="random_016" speedFactor="1.09" vaporized=""/>
    <tripinfo id="carIn26410:1" depart="57621.00" departLane="124812856#0_1" departPos="5.10" departSpeed="0.00" departDelay="7.50" arrival="57678.00" arrivalLane="202070434#2_2" arrivalPos="39.03" arrivalSpeed="13.93" duration="57.00" routeLength="569.75" waitingTime="2.00" waitingCount="1" stopTime="0.00" timeLoss="18.57" rerouteNo="1" devices="tripinfo_carIn26410:1 routing_carIn26410:1" vType="default_016" speedFactor="1.08" vaporized=""/>
    <tripinfo id="h21130c2:1" depart="57630.00" departLane="10425609#0_1" departPos="5.10" departSpeed="0.00" departDelay="0.10" arrival="57678.00" arrivalLane="202070434#2_1" arrivalPos="39.03" arrivalSpeed="13.31" duration="48.00" routeLength="432.30" waitingTime="0.00" waitingCount="0" stopTime="0.00" timeLoss="15.50" rerouteNo="1" devices="tripinfo_h21130c2:1 routing_h21130c2:1" vType="default_016" speedFactor="0.98" vaporized=""/>
    <tripinfo id="carIn77943:1" depart="57608.00" departLane="124812856#0_1" departPos="5.10" departSpeed="0.00" departDelay="2.50" arrival="57679.00" arrivalLane="-653473569#5_1" arrivalPos="73.05" arrivalSpeed="13.18" duration="71.00" routeLength="450.40" waitingTime="18.00" waitingCount="1" stopTime="0.00" timeLoss="35.54" rerouteNo="1" devices="tripinfo_carIn77943:1 routing_carIn77943:1" vType="default_016" speedFactor="0.95" vaporized=""/>
    <tripinfo id="carIn81046:1" depart="57611.00" departLane="124812856#0_1" departPos="5.10" departSpeed="0.00" departDelay="2.50" arrival="57684.00" arrivalLane="-653473569#5_1" arrivalPos="73.05" arrivalSpeed="14.48" duration="73.00" routeLength="450.40" waitingTime="17.00" waitingCount="1" stopTime="0.00" timeLoss="43.47" rerouteNo="1" devices="tripinfo_carIn81046:1 routing_carIn81046:1" vType="default_016" speedFactor="1.12" vaporized=""/>
    <tripinfo id="carIn77438:1" depart="57618.00" departLane="124812856#0_1" departPos="5.10" departSpeed="0.00" departDelay="5.10" arrival="57688.00" arrivalLane="-653473569#5_1" arrivalPos="73.05" arrivalSpeed="12.61" duration="70.00" routeLength="450.40" waitingTime="12.00" waitingCount="1" stopTime="0.00" timeLoss="33.61" rerouteNo="1" devices="tripinfo_carIn77438:1 routing_carIn77438:1" vType="default_016" speedFactor="0.94" vaporized=""/>
    <tripinfo id="carIn51024:1" depart="57627.00" departLane="124812856#0_1" departPos="5.10" departSpeed="0.00" departDelay="10.90" arrival="57688.00" arrivalLane="202070434#2_2" arrivalPos="39.03" arrivalSpeed="14.58" duration="61.00" routeLength="569.75" waitingTime="0.00" waitingCount="0" stopTime="0.00" timeLoss="23.26" rerouteNo="1" devices="tripinfo_carIn51024:1 routing_carIn51024:1" vType="default_016" speedFactor="1.10" vaporized=""/>
    <tripinfo id="carIn33538:1" depart="57671.00" departLane="37386279_1" departPos="5.10" departSpeed="0.00" departDelay="0.30" arrival="57688.00" arrivalLane="-24634414#4_1" arrivalPos="22.88" arrivalSpeed="6.72" duration="17.00" routeLength="125.23" waitingTime="0.00" waitingCount="0" stopTime="0.00" timeLoss="3.73" rerouteNo="0" devices="tripinfo_carIn33538:1 routing_carIn33538:1" vType="default_016" speedFactor="0.86" vaporized=""/>
    <tripinfo id="carIn96537:1" depart="57615.00" departLane="124812856#0_1" departPos="5.10" departSpeed="0.00" departDelay="3.80" arrival="57689.00" arrivalLane="202070434#2_1" arrivalPos="39.03" arrivalSpeed="9.87" duration="74.00" routeLength="569.75" waitingTime="7.00" waitingCount="1" stopTime="0.00" timeLoss="22.28" rerouteNo="1" devices="tripinfo_carIn96537:1 routing_carIn96537:1" vType="default_016" speedFactor="0.80" vaporized=""/>
    <tripinfo id="carIn128705:1" depart="57630.00" departLane="124812856#0_1" departPos="5.10" departSpeed="0.00" departDelay="11.60" arrival="57692.00" arrivalLane="202070434#2_1" arrivalPos="39.03" arrivalSpeed="10.66" duration="62.00" routeLength="569.75" waitingTime="0.00" waitingCount="0" stopTime="0.00" timeLoss="11.87" rerouteNo="1" devices="tripinfo_carIn128705:1 routing_carIn128705:1" vType="default_016" speedFactor="0.83" vaporized=""/>
    <tripinfo id="h19804c1:3" depart="57624.00" departLane="124812856#0_1" departPos="5.10" departSpeed="0.00" departDelay="8.50" arrival="57696.00" arrivalLane="-653473569#5_1" arrivalPos="73.05" arrivalSpeed="11.69" duration="72.00" routeLength="450.40" waitingTime="11.00" waitingCount="2" stopTime="0.00" timeLoss="35.22" rerouteNo="1" devices="tripinfo_h19804c1:3 routing_h19804c1:3" vType="default_016" speedFactor="0.92" vaporized=""/>
    <tripinfo id="carIn131078:1" depart="57679.00" departLane="124812856#0_1" departPos="5.10" departSpeed="0.00" departDelay="43.60" arrival="57697.00" arrivalLane="201956810_1" arrivalPos="71.65" arrivalSpeed="10.43" duration="18.00" routeLength="134.91" waitingTime="0.00" waitingCount="0" stopTime="0.00" timeLoss="4.05" rerouteNo="1" devices="tripinfo_carIn131078:1 routing_carIn131078:1" vType="default_016" speedFactor="0.80" vaporized=""/>
    <tripinfo id="carIn767:1" depart="57633.00" departLane="124812856#0_1" departPos="5.10" departSpeed="0.00" departDelay="14.50" arrival="57698.00" arrivalLane="-653473569#5_1" arrivalPos="73.05" arrivalSpeed="14.23" duration="65.00" routeLength="450.40" waitingTime="1.00" waitingCount="1" stopTime="0.00" timeLoss="32.17" rerouteNo="1" devices="tripinfo_carIn767:1 routing_carIn767:1" vType="default_016" speedFactor="1.04" vaporized=""/>
    <tripinfo id="h21989c1:1" depart="57636.00" departLane="124812856#0_1" departPos="5.10" departSpeed="0.00" departDelay="15.60" arrival="57699.00" arrivalLane="202070434#2_1" arrivalPos="39.03" arrivalSpeed="13.00" duration="63.00" routeLength="569.75" waitingTime="1.00" waitingCount="1" stopTime="0.00" timeLoss="19.55" rerouteNo="1" devices="tripinfo_h21989c1:1 routing_h21989c1:1" vType="default_016" speedFactor="0.96" vaporized=""/>
    <tripinfo id="carIn105842:1" depart="57601.00" departLane="653473569#5_1" departPos="5.10" departSpeed="0.00" departDelay="0.80" arrival="57703.00" arrivalLane="201956811#0_1" arrivalPos="40.40" arrivalSpeed="12.16" duration="102.00" routeLength="313.24" waitingTime="55.00" waitingCount="3" stopTime="0.00" timeLoss="76.27" rerouteNo="1" devices="tripinfo_carIn105842:1 routing_carIn105842:1" vType="default_016" speedFactor="0.95" vaporized=""/>
    <tripinfo id="carIn114137:1" depart="57634.00" departLane="27920078#0_1" departPos="5.10" departSpeed="0.00" departDelay="3.10" arrival="57704.00" arrivalLane="-83304175#2_1" arrivalPos="189.34" arrivalSpeed="8.00" duration="70.00" routeLength="501.51" waitingTime="6.00" waitingCount="1" stopTime="0.00" timeLoss="25.09" rerouteNo="1" devices="tripinfo_carIn114137:1 routing_carIn114137:1" vType="default_016" speedFactor="1.05" vaporized=""/>
    <tripinfo id="carIn107842:1" depart="57639.00" departLane="124812856#0_1" departPos="5.10" departSpeed="0.00" departDelay="17.90" arrival="57705.00" arrivalLane="-653473569#5_1" arrivalPos="73.05" arrivalSpeed="12.55" duration="66.00" routeLength="450.40" waitingTime="3.00" waitingCount="1" stopTime="0.00" timeLoss="31.36" rerouteNo="1" devices="tripinfo_carIn107842:1 routing_carIn107842:1" vType="default_016" speedFactor="0.97" vaporized=""/>
    <tripinfo id="h15382c1:3" depart="57642.00" departLane="124812856#0_1" departPos="5.10" departSpeed="0.00" departDelay="19.80" arrival="57706.00" arrivalLane="-653473569#5_1" arrivalPos="73.05" arrivalSpeed="13.92" duration="64.00" routeLength="450.40" waitingTime="0.00" waitingCount="0" stopTime="0.00" timeLoss="33.73" rerouteNo="1" devices="tripinfo_h15382c1:3 routing_h15382c1:3" vType="default_016" speedFactor="1.10" vaporized=""/>
    <tripinfo id="carIn22637:1" depart="57635.00" departLane="27920078#0_1" departPos="5.10" departSpeed="0.00" departDelay="2.50" arrival="57707.00" arrivalLane="-83304175#2_1" arrivalPos="189.34" arrivalSpeed="8.27" duration="72.00" routeLength="501.51" waitingTime="6.00" waitingCount="2" stopTime="0.00" timeLoss="25.68" rerouteNo="1" devices="tripinfo_carIn22637:1 routing_carIn22637:1" vType="default_016" speedFactor="1.04" vaporized=""/>
    <tripinfo id="carIn3969:1" depart="57645.00" departLane="124812856#0_1" departPos="5.10" departSpeed="0.00" departDelay="21.30" arrival="57715.00" arrivalLane="-653473569#5_1" arrivalPos="73.05" arrivalSpeed="12.34" duration="70.00" routeLength="450.40" waitingTime="2.00" waitingCount="1" stopTime="0.00" timeLoss="35.06" rerouteNo="1" devices="tripinfo_carIn3969:1 routing_carIn3969:1" vType="default_016" speedFactor="0.97" vaporized=""/>
    <tripinfo id="carIn12900:1" depart="57698.00" departLane="124812856#0_1" departPos="5.10" departSpeed="0.00" departDelay="49.80" arrival="57715.00" arrivalLane="201956810_1" arrivalPos="71.65" arrivalSpeed="12.77" duration="17.00" routeLength="134.91" waitingTime="0.00" waitingCount="0" stopTime="0.00" timeLoss="4.98" rerouteNo="1" devices="tripinfo_carIn12900:1 routing_carIn12900:1" vType="default_016" speedFactor="0.92" vaporized=""/>
    <tripinfo id="carIn56649:1" depart="57648.00" departLane="124812856#0_1" departPos="5.10" departSpeed="0.00" departDelay="24.10" arrival="57716.00" arrivalLane="-653473569#5_1" arrivalPos="73.05" arrivalSpeed="13.78" duration="68.00" routeLength="450.40" waitingTime="2.00" waitingCount="1" stopTime="0.00" timeLoss="35.55" rerouteNo="1" devices="tripinfo_carIn56649:1 routing_carIn56649:1" vType="default_016" speedFactor="1.02" vaporized=""/>
    <tripinfo id="carIn38625:1" depart="57651.00" departLane="124812856#0_1" departPos="5.10" departSpeed="0.00" departDelay="25.50" arrival="57718.00" arrivalLane="-653473569#5_1" arrivalPos="73.05" arrivalSpeed="14.00" duration="67.00" routeLength="450.40" waitingTime="1.00" waitingCount="1" stopTime="0.00" timeLoss="34.82" rerouteNo="1" devices="tripinfo_carIn38625:1 routing_carIn38625:1" vType="default_016" speedFactor="1.04" vaporized=""/>
    <tripinfo id="h3688c1:1" depart="57679.00" departLane="315358253#1_1" departPos="5.10" departSpeed="0.00" departDelay="0.50" arrival="57718.00" arrivalLane="32978638#0_1" arrivalPos="49.29" arrivalSpeed="12.60" duration="39.00" routeLength="405.15" waitingTime="0.00" waitingCount="0" stopTime="0.00" timeLoss="6.01" rerouteNo="1" devices="tripinfo_h3688c1:1 routing_h3688c1:1" vType="default_016" speedFactor="0.93" vaporized=""/>
    <tripinfo id="carIn106322:1" depart="57614.00" departLane="653473569#5_1" departPos="5.10" departSpeed="0.00" departDelay="2.20" arrival="57721.00" arrivalLane="201956811#0_1" arrivalPos="40.40" arrivalSpeed="10.98" duration="107.00" routeLength="313.24" waitingTime="55.00" waitingCount="4" stopTime="0.00" timeLoss="78.39" rerouteNo="1" devices="tripinfo_carIn106322:1 routing_carIn106322:1" vType="default_016" speedFactor="0.84" vaporized=""/>
    <tripinfo id="carIn5482:1" depart="57617.00" departLane="653473569#5_1" departPos="5.10" departSpeed="0.00" departDelay="3.60" arrival="57723.00" arrivalLane="201956811#0_1" arrivalPos="40.40" arrivalSpeed="14.48" duration="106.00" routeLength="313.24" waitingTime="52.00" waitingCount="5" stopTime="0.00" timeLoss="83.33" rerouteNo="1" devices="tripinfo_carIn5482:1 routing_carIn5482:1" vType="default_016" speedFactor="1.06" vaporized=""/>
    <tripinfo id="carIn17767:1" depart="57655.00" departLane="124812856#0_1" departPos="5.10" departSpeed="0.00" departDelay="27.80" arrival="57724.00" arrivalLane="-653473569#5_1" arrivalPos="73.05" arrivalSpeed="14.23" duration="69.00" routeLength="450.40" waitingTime="0.00" waitingCount="0" stopTime="0.00" timeLoss="36.59" rerouteNo="1" devices="tripinfo_carIn17767:1 routing_carIn17767:1" vType="default_016" speedFactor="1.03" vaporized=""/>
    <tripinfo id="carIn36103:1" depart="57620.00" departLane="653473569#5_1" departPos="5.10" departSpeed="0.00" departDelay="4.00" arrival="57725.00" arrivalLane="201956811#0_1" arrivalPos="40.40" arrivalSpeed="11.00" duration="105.00" routeLength="313.24" waitingTime="44.00" waitingCount="6" stopTime="0.00" timeLoss="77.58" rerouteNo="1" devices="tripinfo_carIn36103:1 routing_carIn36103:1" vType="default_016" speedFactor="0.85" vaporized=""/>
    <tripinfo id="carIn64859:1" depart="57658.00" departLane="124812856#0_1" departPos="5.10" departSpeed="0.00" departDelay="29.60" arrival="57726.00" arrivalLane="-653473569#5_1" arrivalPos="73.05" arrivalSpeed="13.31" duration="68.00" routeLength="450.40" waitingTime="0.00" waitingCount="0" stopTime="0.00" timeLoss="34.69" rerouteNo="1" devices="tripinfo_carIn64859:1 routing_carIn64859:1" vType="default_016" speedFactor="1.00" vaporized=""/>
    <tripinfo id="carIn102997:1" depart="57623.00" departLane="653473569#5_1" departPos="5.10" departSpeed="0.00" departDelay="4.80" arrival="57728.00" arrivalLane="201956811#0_1" arrivalPos="40.40" arrivalSpeed="11.42" duration="105.00" routeLength="313.24" waitingTime="40.00" waitingCount="6" stopTime="0.00" timeLoss="77.94" rerouteNo="1" devices="tripinfo_carIn102997:1 routing_carIn102997:1" vType="default_016" speedFactor="0.86" vaporized=""/>
    <tripinfo id="carIn75554:1" depart="57626.00" departLane="653473569#5_1" departPos="5.10" departSpeed="0.00" departDelay="5.20" arrival="57730.00" arrivalLane="201956811#0_1" arrivalPos="40.40" arrivalSpeed="13.94" duration="104.00" routeLength="313.24" waitingTime="35.00" waitingCount="7" stopTime="0.00" timeLoss="81.57" rerouteNo="1" devices="tripinfo_carIn75554:1 routing_carIn75554:1" vType="default_016" speedFactor="1.06" vaporized=""/>
    <tripinfo id="carIn48979:1" depart="57661.00" departLane="124812856#0_1" departPos="5.10" departSpeed="0.00" departDelay="32.10" arrival="57730.00" arrivalLane="-653473569#5_1" arrivalPos="73.05" arrivalSpeed="11.19" duration="69.00" routeLength="450.40" waitingTime="0.00" waitingCount="0" stopTime="0.00" timeLoss="28.48" rerouteNo="1" devices="tripinfo_carIn48979:1 routing_carIn48979:1" vType="default_016" speedFactor="0.82" vaporized=""/>
    <tripinfo id="randUni20090:1" depart="57629.00" departLane="653473569#5_1" departPos="5.10" departSpeed="0.00" departDelay="1.00" arrival="57732.00" arrivalLane="201956811#0_1" arrivalPos="40.40" arrivalSpeed="11.89" duration="103.00" routeLength="313.24" waitingTime="31.00" waitingCount="6" stopTime="0.00" timeLoss="77.41" rerouteNo="1" devices="tripinfo_randUni20090:1 routing_randUni20090:1" vType="random_016" speedFactor="0.93" vaporized=""/>
    <tripinfo id="carIn88932:1" depart="57664.00" departLane="124812856#0_1" departPos="5.10" departSpeed="0.00" departDelay="33.40" arrival="57734.00" arrivalLane="-653473569#5_1" arrivalPos="73.05" arrivalSpeed="13.07" duration="70.00" routeLength="450.40" waitingTime="1.00" waitingCount="1" stopTime="0.00" timeLoss="36.87" rerouteNo="1" devices="tripinfo_carIn88932:1 routing_carIn88932:1" vType="default_016" speedFactor="1.01" vaporized=""/>
    <tripinfo id="h15353c2:1" depart="57667.00" departLane="124812856#0_1" departPos="5.10" departSpeed="0.00" departDelay="36.30" arrival="57736.00" arrivalLane="-653473569#5_1" arrivalPos="73.05" arrivalSpeed="13.35" duration="69.00" routeLength="450.40" waitingTime="1.00" waitingCount="1" stopTime="0.00" timeLoss="36.34" rerouteNo="1" devices="tripinfo_h15353c2:1 routing_h15353c2:1" vType="default_016" speedFactor="1.02" vaporized=""/>
    <tripinfo id="carIn37268:1" depart="57636.00" departLane="653473569#5_1" departPos="5.10" departSpeed="0.00" departDelay="0.90" arrival="57736.00" arrivalLane="201956811#0_1" arrivalPos="40.40" arrivalSpeed="11.43" duration="100.00" routeLength="313.24" waitingTime="27.00" waitingCount="7" stopTime="0.00" timeLoss="71.07" rerouteNo="1" devices="tripinfo_carIn37268:1 routing_carIn37268:1" vType="default_016" speedFactor="0.83" vaporized=""/>
    <tripinfo id="carIn129760:1" depart="57661.00" departLane="653473569#5_1" departPos="5.10" departSpeed="0.00" departDelay="0.80" arrival="57737.00" arrivalLane="201956811#0_1" arrivalPos="40.40" arrivalSpeed="14.19" duration="76.00" routeLength="313.24" waitingTime="17.00" waitingCount="5" stopTime="0.00" timeLoss="54.20" rerouteNo="1" devices="tripinfo_carIn129760:1 routing_carIn129760:1" vType="default_016" speedFactor="1.10" vaporized=""/>
    <tripinfo id="carIn44740:1" depart="57670.00" departLane="124812856#0_1" departPos="5.10" departSpeed="0.00" departDelay="37.70" arrival="57738.00" arrivalLane="-653473569#5_1" arrivalPos="73.05" arrivalSpeed="13.86" duration="68.00" routeLength="450.40" waitingTime="0.00" waitingCount="0" stopTime="0.00" timeLoss="35.02" rerouteNo="1" devices="tripinfo_carIn44740:1 routing_carIn44740:1" vType="default_016" speedFactor="1.00" vaporized=""/>
    <tripinfo id="carIn7887:1" depart="57661.00" departLane="27920078#0_1" departPos="5.10" departSpeed="0.00" departDelay="0.50" arrival="57738.00" arrivalLane="-83304175#2_1" arrivalPos="189.34" arrivalSpeed="7.82" duration="77.00" routeLength="501.51" waitingTime="20.00" waitingCount="1" stopTime="0.00" timeLoss="32.14" rerouteNo="1" devices="tripinfo_carIn7887:1 routing_carIn7887:1" vType="default_016" speedFactor="1.06" vaporized=""/>
    <tripinfo id="carIn129626:1" depart="57664.00" departLane="653473569#5_1" departPos="5.10" departSpeed="0.00" departDelay="1.60" arrival="57741.00" arrivalLane="201956811#0_1" arrivalPos="40.40" arrivalSpeed="13.16" duration="77.00" routeLength="313.24" waitingTime="21.00" waitingCount="5" stopTime="0.00" timeLoss="54.09" rerouteNo="1" devices="tripinfo_carIn129626:1 routing_carIn129626:1" vType="default_016" speedFactor="1.03" vaporized=""/>
    <tripinfo id="h317c2:1" depart="57707.00" departLane="-32978638#0_1" departPos="5.10" departSpeed="0.00" departDelay="0.10" arrival="57741.00" arrivalLane="-266565295#5_1" arrivalPos="172.76" arrivalSpeed="13.18" duration="34.00" routeLength="370.53" waitingTime="0.00" waitingCount="0" stopTime="0.00" timeLoss="5.97" rerouteNo="1" devices="tripinfo_h317c2:1 routing_h317c2:1" vType="default_016" speedFactor="0.97" vaporized=""/>
    <tripinfo id="randUni29093:1" depart="57673.00" departLane="124812856#0_1" departPos="5.10" departSpeed="0.00" departDelay="40.00" arrival="57746.00" arrivalLane="-653473569#5_1" arrivalPos="73.05" arrivalSpeed="11.26" duration="73.00" routeLength="450.40" waitingTime="0.00" waitingCount="0" stopTime="0.00" timeLoss="32.67" rerouteNo="1" devices="tripinfo_randUni29093:1 routing_randUni29093:1" vType="random_016" speedFactor="0.83" vaporized=""/>
    <tripinfo id="carIn64490:1" depart="57676.00" departLane="124812856#0_1" departPos="5.10" departSpeed="0.00" departDelay="42.10" arrival="57748.00" arrivalLane="-653473569#5_1" arrivalPos="73.05" arrivalSpeed="13.34" duration="72.00" routeLength="450.40" waitingTime="0.00" waitingCount="0" stopTime="0.00" timeLoss="39.30" rerouteNo="1" devices="tripinfo_carIn64490:1 routing_carIn64490:1" vType="default_016" speedFactor="1.04" vaporized=""/>
    <tripinfo id="h20539c1:3" depart="57667.00" departLane="653473569#5_1" departPos="5.10" departSpeed="0.00" departDelay="2.20" arrival="57751.00" arrivalLane="201956811#0_1" arrivalPos="40.40" arrivalSpeed="12.99" duration="84.00" routeLength="313.24" waitingTime="22.00" waitingCount="6" stopTime="0.00" timeLoss="58.73" rerouteNo="1" devices="tripinfo_h20539c1:3 routing_h20539c1:3" vType="default_016" speedFactor="0.95" vaporized=""/>
    <tripinfo id="randUni22709:1" depart="57718.00" departLane="315358253#1_1" departPos="5.10" departSpeed="0.00" departDelay="0.20" arrival="57751.00" arrivalLane="32978638#0_1" arrivalPos="49.29" arrivalSpeed="14.61" duration="33.00" routeLength="405.15" waitingTime="0.00" waitingCount="0" stopTime="0.00" timeLoss="6.20" rerouteNo="1" devices="tripinfo_randUni22709:1 routing_randUni22709:1" vType="random_016" speedFactor="1.13" vaporized=""/>
    <tripinfo id="carIn99509:1" depart="57720.00" departLane="-32978638#0_1" departPos="5.10" departSpeed="0.00" departDelay="0.20" arrival="57754.00" arrivalLane="-315358253#1_1" arrivalPos="63.90" arrivalSpeed="15.61" duration="34.00" routeLength="422.17" waitingTime="0.00" waitingCount="0" stopTime="0.00" timeLoss="6.41" rerouteNo="1" devices="tripinfo_carIn99509:1 routing_carIn99509:1" vType="default_015" speedFactor="1.17" vaporized=""/>
    <tripinfo id="carIn99385:1" depart="57683.00" departLane="124812856#0_1" departPos="5.10" departSpeed="0.00" departDelay="45.90" arrival="57756.00" arrivalLane="-653473569#5_1" arrivalPos="73.05" arrivalSpeed="11.32" duration="73.00" routeLength="450.40" waitingTime="3.00" waitingCount="1" stopTime="0.00" timeLoss="34.74" rerouteNo="1" devices="tripinfo_carIn99385:1 routing_carIn99385:1" vType="default_016" speedFactor="0.86" vaporized=""/>
    <tripinfo id="carIn13362:1" depart="57680.00" departLane="124812856#0_1" departPos="5.10" departSpeed="0.00" departDelay="44.40" arrival="57758.00" arrivalLane="-653473569#5_1" arrivalPos="73.05" arrivalSpeed="12.39" duration="78.00" routeLength="450.40" waitingTime="2.00" waitingCount="1" stopTime="0.00" timeLoss="41.36" rerouteNo="1" devices="tripinfo_carIn13362:1 routing_carIn13362:1" vType="default_016" speedFactor="0.91" vaporized=""/>
    <tripinfo id="carIn100220:1" depart="57689.00" departLane="124812856#0_1" departPos="5.10" departSpeed="0.00" departDelay="50.00" arrival="57758.00" arrivalLane="202070434#2_1" arrivalPos="39.03" arrivalSpeed="12.60" duration="69.00" routeLength="569.75" waitingTime="10.00" waitingCount="2" stopTime="0.00" timeLoss="25.17" rerouteNo="1" devices="tripinfo_carIn100220:1 routing_carIn100220:1" vType="default_016" speedFactor="0.94" vaporized=""/>
    <tripinfo id="carIn91254:1" depart="57696.00" departLane="653473569#5_1" departPos="5.10" departSpeed="0.00" departDelay="0.10" arrival="57758.00" arrivalLane="201956811#0_1" arrivalPos="40.40" arrivalSpeed="15.41" duration="62.00" routeLength="313.24" waitingTime="18.00" waitingCount="4" stopTime="0.00" timeLoss="41.60" rerouteNo="1" devices="tripinfo_carIn91254:1 routing_carIn91254:1" vType="default_016" speedFactor="1.15" vaporized=""/>
    <tripinfo id="h134c1:3" depart="57721.00" departLane="315358253#1_1" departPos="5.10" departSpeed="0.00" departDelay="1.60" arrival="57760.00" arrivalLane="32978638#0_1" arrivalPos="49.29" arrivalSpeed="12.75" duration="39.00" routeLength="405.15" waitingTime="0.00" waitingCount="0" stopTime="0.00" timeLoss="6.59" rerouteNo="1" devices="tripinfo_h134c1:3 routing_h134c1:3" vType="default_016" speedFactor="0.95" vaporized=""/>
    <tripinfo id="carIn74045:1" depart="57724.00" departLane="315358253#1_1" departPos="5.10" departSpeed="0.00" departDelay="3.00" arrival="57762.00" arrivalLane="32978638#0_1" arrivalPos="49.29" arrivalSpeed="14.40" duration="38.00" routeLength="405.15" waitingTime="0.00" waitingCount="0" stopTime="0.00" timeLoss="9.60" rerouteNo="1" devices="tripinfo_carIn74045:1 routing_carIn74045:1" vType="default_016" speedFactor="1.10" vaporized=""/>
    <tripinfo id="carIn11547:1" depart="57686.00" departLane="124812856#0_1" departPos="5.10" departSpeed="0.00" departDelay="48.30" arrival="57764.00" arrivalLane="-653473569#5_1" arrivalPos="73.05" arrivalSpeed="17.08" duration="78.00" routeLength="450.40" waitingTime="3.00" waitingCount="2" stopTime="0.00" timeLoss="51.63" rerouteNo="1" devices="tripinfo_carIn11547:1 routing_carIn11547:1" vType="default_016" speedFactor="1.29" vaporized=""/>
    <tripinfo id="carIn25314:1" depart="57692.00" departLane="124812856#0_1" departPos="5.10" departSpeed="0.00" departDelay="51.80" arrival="57767.00" arrivalLane="-653473569#5_1" arrivalPos="73.05" arrivalSpeed="13.13" duration="75.00" routeLength="450.40" waitingTime="1.00" waitingCount="1" stopTime="0.00" timeLoss="42.25" rerouteNo="1" devices="tripinfo_carIn25314:1 routing_carIn25314:1" vType="default_016" speedFactor="1.03" vaporized=""/>
    <tripinfo id="h330c1:1" depart="57736.00" departLane="-32978638#0_1" departPos="5.10" departSpeed="0.00" departDelay="0.20" arrival="57767.00" arrivalLane="-266565295#5_1" arrivalPos="172.76" arrivalSpeed="14.45" duration="31.00" routeLength="370.53" waitingTime="0.00" waitingCount="0" stopTime="0.00" timeLoss="6.65" rerouteNo="1" devices="tripinfo_h330c1:1 routing_h330c1:1" vType="default_016" speedFactor="1.12" vaporized=""/>
    <tripinfo id="carIn106797:1" depart="57726.00" departLane="653473569#5_1" departPos="5.10" departSpeed="0.00" departDelay="1.00" arrival="57770.00" arrivalLane="201956811#0_1" arrivalPos="40.40" arrivalSpeed="13.57" duration="44.00" routeLength="313.24" waitingTime="3.00" waitingCount="2" stopTime="0.00" timeLoss="20.44" rerouteNo="1" devices="tripinfo_carIn106797:1 routing_carIn106797:1" vType="default_016" speedFactor="1.03" vaporized=""/>
    <tripinfo id="carIn32621:1" depart="57695.00" departLane="124812856#0_1" departPos="5.10" departSpeed="0.00" departDelay="52.00" arrival="57775.00" arrivalLane="-653473569#5_1" arrivalPos="73.05" arrivalSpeed="12.36" duration="80.00" routeLength="450.40" waitingTime="1.00" waitingCount="1" stopTime="0.00" timeLoss="45.70" rerouteNo="1" devices="tripinfo_carIn32621:1 routing_carIn32621:1" vType="default_016" speedFactor="0.98" vaporized=""/>
    <tripinfo id="carIn106325:1" depart="57713.00" departLane="27920078#0_1" departPos="5.10" departSpeed="0.00" departDelay="0.10" arrival="57780.00" arrivalLane="-83304175#2_1" arrivalPos="189.34" arrivalSpeed="8.14" duration="67.00" routeLength="501.51" waitingTime="9.00" waitingCount="1" stopTime="0.00" timeLoss="23.53" rerouteNo="1" devices="tripinfo_carIn106325:1 routing_carIn106325:1" vType="default_016" speedFactor="1.10" vaporized=""/>