<?xml version="1.0" encoding="UTF-8"?>

<!-- generated on 2023-08-31 12:42:48 by Eclipse SUMO libsumo Version 1.18.0
<configuration xmlns:xsi="http://www.w3.org/2001/XMLSchema-instance" xsi:noNamespaceSchemaLocation="http://sumo.dlr.de/xsd/libsumoConfiguration.xsd">

    <input>
        <net-file value="/home/stefan/RESCO/./environments/ingolstadt7/ingolstadt7.net.xml"/>
        <route-files value="/home/stefan/RESCO/./environments/ingolstadt7/ingolstadt7.rou.xml"/>
    </input>

    <output>
        <tripinfo-output value="/home/stefan/results/RAINBOW-tr0-ingolstadt7-7-drq_norm-wait_norm/tripinfo_68.xml"/>
        <tripinfo-output.write-unfinished value="true"/>
    </output>

    <time>
        <begin value="57600"/>
        <end value="61200"/>
    </time>

    <processing>
        <time-to-teleport value="-1"/>
    </processing>

    <report>
        <no-warnings value="True"/>
        <no-step-log value="True"/>
    </report>

    <random_number>
        <random value="true"/>
    </random_number>

</configuration>
-->

<tripinfos xmlns:xsi="http://www.w3.org/2001/XMLSchema-instance" xsi:noNamespaceSchemaLocation="http://sumo.dlr.de/xsd/tripinfo_file.xsd">
    <tripinfo id="carIn28951:1" depart="57606.00" departLane="10425609#0_1" departPos="5.10" departSpeed="0.00" departDelay="0.20" arrival="57634.00" arrivalLane="-653473569#5_1" arrivalPos="73.05" arrivalSpeed="14.57" duration="28.00" routeLength="312.95" waitingTime="0.00" waitingCount="0" stopTime="0.00" timeLoss="5.55" rerouteNo="1" devices="tripinfo_carIn28951:1 routing_carIn28951:1" vType="default_016" speedFactor="1.06" vaporized=""/>
    <tripinfo id="carIn89578:1" depart="57613.00" departLane="124812856#0_1" departPos="5.10" departSpeed="0.00" departDelay="2.60" arrival="57637.00" arrivalLane="201956810_1" arrivalPos="71.65" arrivalSpeed="12.27" duration="24.00" routeLength="134.91" waitingTime="3.00" waitingCount="1" stopTime="0.00" timeLoss="13.08" rerouteNo="1" devices="tripinfo_carIn89578:1 routing_carIn89578:1" vType="default_016" speedFactor="0.95" vaporized=""/>
    <tripinfo id="h20232c1:2" depart="57634.00" departLane="-173169611#0_1" departPos="5.10" departSpeed="0.00" departDelay="0.50" arrival="57649.00" arrivalLane="201956820_1" arrivalPos="48.33" arrivalSpeed="13.32" duration="15.00" routeLength="122.35" waitingTime="0.00" waitingCount="0" stopTime="0.00" timeLoss="5.50" rerouteNo="0" devices="tripinfo_h20232c1:2 routing_h20232c1:2" vType="default_016" speedFactor="1.04" vaporized=""/>
    <tripinfo id="carIn25202:1" depart="57629.00" departLane="315358253#1_1" departPos="5.10" departSpeed="0.00" departDelay="1.50" arrival="57666.00" arrivalLane="32978638#0_1" arrivalPos="49.29" arrivalSpeed="14.11" duration="37.00" routeLength="405.15" waitingTime="0.00" waitingCount="0" stopTime="0.00" timeLoss="6.97" rerouteNo="1" devices="tripinfo_carIn25202:1 routing_carIn25202:1" vType="default_016" speedFactor="1.04" vaporized=""/>
    <tripinfo id="h20540c1:1" depart="57634.00" departLane="10425609#0_1" departPos="5.10" departSpeed="0.00" departDelay="0.50" arrival="57667.00" arrivalLane="-653473569#5_1" arrivalPos="73.05" arrivalSpeed="10.76" duration="33.00" routeLength="312.95" waitingTime="0.00" waitingCount="0" stopTime="0.00" timeLoss="5.39" rerouteNo="1" devices="tripinfo_h20540c1:1 routing_h20540c1:1" vType="default_016" speedFactor="0.86" vaporized=""/>
    <tripinfo id="h21130c2:1" depart="57630.00" departLane="10425609#0_1" departPos="5.10" departSpeed="0.00" departDelay="0.10" arrival="57677.00" arrivalLane="202070434#2_1" arrivalPos="39.03" arrivalSpeed="13.52" duration="47.00" routeLength="432.30" waitingTime="0.00" waitingCount="0" stopTime="0.00" timeLoss="14.94" rerouteNo="1" devices="tripinfo_h21130c2:1 routing_h21130c2:1" vType="default_016" speedFactor="1.01" vaporized=""/>
    <tripinfo id="carIn124416:1" depart="57663.00" departLane="-173169611#0_1" departPos="5.10" departSpeed="0.00" departDelay="0.50" arrival="57677.00" arrivalLane="201956820_1" arrivalPos="48.33" arrivalSpeed="15.82" duration="14.00" routeLength="122.35" waitingTime="0.00" waitingCount="0" stopTime="0.00" timeLoss="5.39" rerouteNo="0" devices="tripinfo_carIn124416:1 routing_carIn124416:1" vType="default_016" speedFactor="1.14" vaporized=""/>
    <tripinfo id="carIn55461:1" depart="57652.00" departLane="10425609#0_1" departPos="5.10" departSpeed="0.00" departDelay="0.30" arrival="57679.00" arrivalLane="201956810_1" arrivalPos="71.65" arrivalSpeed="13.01" duration="27.00" routeLength="255.78" waitingTime="0.00" waitingCount="0" stopTime="0.00" timeLoss="5.96" rerouteNo="1" devices="tripinfo_carIn55461:1 routing_carIn55461:1" vType="default_016" speedFactor="0.98" vaporized=""/>
    <tripinfo id="carIn55090:1" depart="57666.00" departLane="-173169611#0_1" departPos="5.10" departSpeed="0.00" departDelay="1.40" arrival="57680.00" arrivalLane="201956820_1" arrivalPos="48.33" arrivalSpeed="13.76" duration="14.00" routeLength="122.35" waitingTime="0.00" waitingCount="0" stopTime="0.00" timeLoss="4.96" rerouteNo="0" devices="tripinfo_carIn55090:1 routing_carIn55090:1" vType="default_016" speedFactor="1.05" vaporized=""/>
    <tripinfo id="carIn33538:1" depart="57671.00" departLane="37386279_1" departPos="5.10" departSpeed="0.00" departDelay="0.30" arrival="57686.00" arrivalLane="-24634414#4_1" arrivalPos="22.88" arrivalSpeed="8.22" duration="15.00" routeLength="125.23" waitingTime="0.00" waitingCount="0" stopTime="0.00" timeLoss="3.97" rerouteNo="0" devices="tripinfo_carIn33538:1 routing_carIn33538:1" vType="default_016" speedFactor="1.00" vaporized=""/>
    <tripinfo id="60.39" depart="57643.00" departLane="10425609#0_1" departPos="12.10" departSpeed="0.00" departDelay="0.50" arrival="57690.00" arrivalLane="202070434#2_1" arrivalPos="39.03" arrivalSpeed="13.02" duration="47.00" routeLength="425.30" waitingTime="0.00" waitingCount="0" stopTime="0.00" timeLoss="15.14" rerouteNo="1" devices="tripinfo_60.39 routing_60.39" vType="bus" speedFactor="1.00" vaporized=""/>
    <tripinfo id="carIn114137:1" depart="57634.00" departLane="27920078#0_1" departPos="5.10" departSpeed="0.00" departDelay="3.10" arrival="57700.00" arrivalLane="-83304175#2_1" arrivalPos="189.34" arrivalSpeed="8.61" duration="66.00" routeLength="501.51" waitingTime="6.00" waitingCount="1" stopTime="0.00" timeLoss="21.43" rerouteNo="1" devices="tripinfo_carIn114137:1 routing_carIn114137:1" vType="default_016" speedFactor="1.07" vaporized=""/>
    <tripinfo id="carIn105842:1" depart="57601.00" departLane="653473569#5_1" departPos="5.10" departSpeed="0.00" departDelay="0.80" arrival="57701.00" arrivalLane="201956811#0_1" arrivalPos="40.40" arrivalSpeed="12.75" duration="100.00" routeLength="313.24" waitingTime="60.00" waitingCount="2" stopTime="0.00" timeLoss="75.80" rerouteNo="1" devices="tripinfo_carIn105842:1 routing_carIn105842:1" vType="default_016" speedFactor="0.98" vaporized=""/>
    <tripinfo id="carIn106322:1" depart="57614.00" departLane="653473569#5_1" departPos="5.10" departSpeed="0.00" departDelay="2.20" arrival="57703.00" arrivalLane="201956811#0_1" arrivalPos="40.40" arrivalSpeed="13.69" duration="89.00" routeLength="313.24" waitingTime="43.00" waitingCount="4" stopTime="0.00" timeLoss="64.97" rerouteNo="1" devices="tripinfo_carIn106322:1 routing_carIn106322:1" vType="default_016" speedFactor="1.00" vaporized=""/>
    <tripinfo id="carIn22637:1" depart="57635.00" departLane="27920078#0_1" departPos="5.10" departSpeed="0.00" departDelay="2.50" arrival="57703.00" arrivalLane="-83304175#2_1" arrivalPos="189.34" arrivalSpeed="8.40" duration="68.00" routeLength="501.51" waitingTime="6.00" waitingCount="2" stopTime="0.00" timeLoss="22.07" rerouteNo="1" devices="tripinfo_carIn22637:1 routing_carIn22637:1" vType="default_016" speedFactor="1.04" vaporized=""/>
    <tripinfo id="carIn5482:1" depart="57617.00" departLane="653473569#5_1" departPos="5.10" departSpeed="0.00" departDelay="3.60" arrival="57706.00" arrivalLane="201956811#0_1" arrivalPos="40.40" arrivalSpeed="10.97" duration="89.00" routeLength="313.24" waitingTime="35.00" waitingCount="5" stopTime="0.00" timeLoss="59.12" rerouteNo="1" devices="tripinfo_carIn5482:1 routing_carIn5482:1" vType="default_016" speedFactor="0.80" vaporized=""/>
    <tripinfo id="carIn36103:1" depart="57620.00" departLane="653473569#5_1" departPos="5.10" departSpeed="0.00" departDelay="4.00" arrival="57707.00" arrivalLane="201956811#0_1" arrivalPos="40.40" arrivalSpeed="13.03" duration="87.00" routeLength="313.24" waitingTime="28.00" waitingCount="6" stopTime="0.00" timeLoss="64.13" rerouteNo="1" devices="tripinfo_carIn36103:1 routing_carIn36103:1" vType="default_016" speedFactor="1.03" vaporized=""/>
    <tripinfo id="carIn77943:1" depart="57607.00" departLane="124812856#0_1" departPos="5.10" departSpeed="0.00" departDelay="1.50" arrival="57715.00" arrivalLane="-653473569#5_1" arrivalPos="73.05" arrivalSpeed="12.27" duration="108.00" routeLength="450.40" waitingTime="56.00" waitingCount="3" stopTime="0.00" timeLoss="72.32" rerouteNo="1" devices="tripinfo_carIn77943:1 routing_carIn77943:1" vType="default_016" speedFactor="0.95" vaporized=""/>
    <tripinfo id="h3688c1:1" depart="57679.00" departLane="315358253#1_1" departPos="5.10" departSpeed="0.00" departDelay="0.50" arrival="57715.00" arrivalLane="32978638#0_1" arrivalPos="49.29" arrivalSpeed="14.33" duration="36.00" routeLength="405.15" waitingTime="0.00" waitingCount="0" stopTime="0.00" timeLoss="6.43" rerouteNo="1" devices="tripinfo_h3688c1:1 routing_h3688c1:1" vType="default_016" speedFactor="1.05" vaporized=""/>
    <tripinfo id="carIn107084:1" depart="57601.00" departLane="124812856#0_1" departPos="5.10" departSpeed="0.00" departDelay="0.70" arrival="57717.00" arrivalLane="-653473569#5_1" arrivalPos="73.05" arrivalSpeed="12.23" duration="116.00" routeLength="450.40" waitingTime="59.00" waitingCount="2" stopTime="0.00" timeLoss="80.05" rerouteNo="1" devices="tripinfo_carIn107084:1 routing_carIn107084:1" vType="default_016" speedFactor="0.93" vaporized=""/>
    <tripinfo id="carIn96537:1" depart="57614.00" departLane="124812856#0_1" departPos="5.10" departSpeed="0.00" departDelay="2.80" arrival="57717.00" arrivalLane="202070434#2_1" arrivalPos="39.03" arrivalSpeed="14.07" duration="103.00" routeLength="569.75" waitingTime="42.00" waitingCount="3" stopTime="0.00" timeLoss="64.64" rerouteNo="1" devices="tripinfo_carIn96537:1 routing_carIn96537:1" vType="default_016" speedFactor="1.09" vaporized=""/>
    <tripinfo id="randUni10474:1" depart="57605.00" departLane="124812856#0_1" departPos="5.10" departSpeed="0.00" departDelay="0.20" arrival="57719.00" arrivalLane="-653473569#5_1" arrivalPos="73.05" arrivalSpeed="14.35" duration="114.00" routeLength="450.40" waitingTime="52.00" waitingCount="3" stopTime="0.00" timeLoss="81.06" rerouteNo="1" devices="tripinfo_randUni10474:1 routing_randUni10474:1" vType="random_016" speedFactor="1.03" vaporized=""/>
    <tripinfo id="carIn102997:1" depart="57623.00" departLane="653473569#5_1" departPos="5.10" departSpeed="0.00" departDelay="4.80" arrival="57722.00" arrivalLane="201956811#0_1" arrivalPos="40.40" arrivalSpeed="13.27" duration="99.00" routeLength="313.24" waitingTime="28.00" waitingCount="7" stopTime="0.00" timeLoss="75.37" rerouteNo="1" devices="tripinfo_carIn102997:1 routing_carIn102997:1" vType="default_016" speedFactor="1.01" vaporized=""/>
    <tripinfo id="carIn75554:1" depart="57626.00" departLane="653473569#5_1" departPos="5.10" departSpeed="0.00" departDelay="5.20" arrival="57724.00" arrivalLane="201956811#0_1" arrivalPos="40.40" arrivalSpeed="12.08" duration="98.00" routeLength="313.24" waitingTime="27.00" waitingCount="7" stopTime="0.00" timeLoss="72.16" rerouteNo="1" devices="tripinfo_carIn75554:1 routing_carIn75554:1" vType="default_016" speedFactor="0.92" vaporized=""/>
    <tripinfo id="carIn81046:1" depart="57610.00" departLane="124812856#0_1" departPos="5.10" departSpeed="0.00" departDelay="1.50" arrival="57726.00" arrivalLane="-653473569#5_1" arrivalPos="73.05" arrivalSpeed="12.54" duration="116.00" routeLength="450.40" waitingTime="49.00" waitingCount="4" stopTime="0.00" timeLoss="79.44" rerouteNo="1" devices="tripinfo_carIn81046:1 routing_carIn81046:1" vType="default_016" speedFactor="0.93" vaporized=""/>
    <tripinfo id="randUni20090:1" depart="57629.00" departLane="653473569#5_1" departPos="5.10" departSpeed="0.00" departDelay="1.00" arrival="57727.00" arrivalLane="201956811#0_1" arrivalPos="40.40" arrivalSpeed="14.64" duration="98.00" routeLength="313.24" waitingTime="26.00" waitingCount="6" stopTime="0.00" timeLoss="75.62" rerouteNo="1" devices="tripinfo_randUni20090:1 routing_randUni20090:1" vType="random_016" speedFactor="1.07" vaporized=""/>
    <tripinfo id="carIn37268:1" depart="57636.00" departLane="653473569#5_1" departPos="5.10" departSpeed="0.00" departDelay="0.90" arrival="57729.00" arrivalLane="201956811#0_1" arrivalPos="40.40" arrivalSpeed="12.41" duration="93.00" routeLength="313.24" waitingTime="21.00" waitingCount="7" stopTime="0.00" timeLoss="68.62" rerouteNo="1" devices="tripinfo_carIn37268:1 routing_carIn37268:1" vType="default_016" speedFactor="0.98" vaporized=""/>
    <tripinfo id="carIn129760:1" depart="57661.00" departLane="653473569#5_1" departPos="5.10" departSpeed="0.00" departDelay="0.80" arrival="57732.00" arrivalLane="201956811#0_1" arrivalPos="40.40" arrivalSpeed="13.90" duration="71.00" routeLength="313.24" waitingTime="17.00" waitingCount="5" stopTime="0.00" timeLoss="47.73" rerouteNo="1" devices="tripinfo_carIn129760:1 routing_carIn129760:1" vType="default_016" speedFactor="1.03" vaporized=""/>
    <tripinfo id="carIn12775:1" depart="57676.00" departLane="10425609#0_1" departPos="5.10" departSpeed="0.00" departDelay="0.60" arrival="57735.00" arrivalLane="-653473569#5_1" arrivalPos="73.05" arrivalSpeed="12.08" duration="59.00" routeLength="312.95" waitingTime="22.00" waitingCount="2" stopTime="0.00" timeLoss="31.89" rerouteNo="1" devices="tripinfo_carIn12775:1 routing_carIn12775:1" vType="default_016" speedFactor="0.91" vaporized=""/>
    <tripinfo id="carIn129626:1" depart="57664.00" departLane="653473569#5_1" departPos="5.10" departSpeed="0.00" departDelay="1.60" arrival="57744.00" arrivalLane="201956811#0_1" arrivalPos="40.40" arrivalSpeed="11.51" duration="80.00" routeLength="313.24" waitingTime="19.00" waitingCount="5" stopTime="0.00" timeLoss="51.07" rerouteNo="1" devices="tripinfo_carIn129626:1 routing_carIn129626:1" vType="default_016" speedFactor="0.83" vaporized=""/>
    <tripinfo id="h317c2:1" depart="57707.00" departLane="-32978638#0_1" departPos="5.10" departSpeed="0.00" departDelay="0.10" arrival="57744.00" arrivalLane="-266565295#5_1" arrivalPos="172.76" arrivalSpeed="12.06" duration="37.00" routeLength="370.53" waitingTime="0.00" waitingCount="0" stopTime="0.00" timeLoss="6.28" rerouteNo="1" devices="tripinfo_h317c2:1 routing_h317c2:1" vType="default_016" speedFactor="0.89" vaporized=""/>
    <tripinfo id="h20539c1:3" depart="57667.00" departLane="653473569#5_1" departPos="5.10" departSpeed="0.00" departDelay="2.20" arrival="57751.00" arrivalLane="201956811#0_1" arrivalPos="40.40" arrivalSpeed="12.44" duration="84.00" routeLength="313.24" waitingTime="17.00" waitingCount="6" stopTime="0.00" timeLoss="59.52" rerouteNo="1" devices="tripinfo_h20539c1:3 routing_h20539c1:3" vType="default_016" speedFactor="0.97" vaporized=""/>
    <tripinfo id="carIn99509:1" depart="57720.00" departLane="-32978638#0_1" departPos="5.10" departSpeed="0.00" departDelay="0.20" arrival="57756.00" arrivalLane="-315358253#1_1" arrivalPos="63.90" arrivalSpeed="13.18" duration="36.00" routeLength="422.17" waitingTime="0.00" waitingCount="0" stopTime="0.00" timeLoss="5.32" rerouteNo="1" devices="tripinfo_carIn99509:1 routing_carIn99509:1" vType="default_015" speedFactor="1.02" vaporized=""/>
    <tripinfo id="randUni22709:1" depart="57718.00" departLane="315358253#1_1" departPos="5.10" departSpeed="0.00" departDelay="0.20" arrival="57758.00" arrivalLane="32978638#0_1" arrivalPos="49.29" arrivalSpeed="12.52" duration="40.00" routeLength="405.15" waitingTime="0.00" waitingCount="0" stopTime="0.00" timeLoss="6.46" rerouteNo="1" devices="tripinfo_randUni22709:1 routing_randUni22709:1" vType="random_016" speedFactor="0.92" vaporized=""/>
    <tripinfo id="h134c1:3" depart="57721.00" departLane="315358253#1_1" departPos="5.10" departSpeed="0.00" departDelay="1.60" arrival="57761.00" arrivalLane="32978638#0_1" arrivalPos="49.29" arrivalSpeed="12.71" duration="40.00" routeLength="405.15" waitingTime="0.00" waitingCount="0" stopTime="0.00" timeLoss="6.30" rerouteNo="1" devices="tripinfo_h134c1:3 routing_h134c1:3" vType="default_016" speedFactor="0.93" vaporized=""/>
    <tripinfo id="carIn75079:1" depart="57747.00" departLane="-173169611#0_1" departPos="5.10" departSpeed="0.00" departDelay="0.60" arrival="57763.00" arrivalLane="201956820_1" arrivalPos="48.33" arrivalSpeed="13.57" duration="16.00" routeLength="122.35" waitingTime="0.00" waitingCount="0" stopTime="0.00" timeLoss="5.38" rerouteNo="0" devices="tripinfo_carIn75079:1 routing_carIn75079:1" vType="default_016" speedFactor="1.01" vaporized=""/>
    <tripinfo id="carIn74045:1" depart="57724.00" departLane="315358253#1_1" departPos="5.10" departSpeed="0.00" departDelay="3.00" arrival="57764.00" arrivalLane="32978638#0_1" arrivalPos="49.29" arrivalSpeed="11.87" duration="40.00" routeLength="405.15" waitingTime="0.00" waitingCount="0" stopTime="0.00" timeLoss="6.32" rerouteNo="1" devices="tripinfo_carIn74045:1 routing_carIn74045:1" vType="default_016" speedFactor="0.91" vaporized=""/>
    <tripinfo id="h15454c2:3" depart="57612.00" departLane="24608844_1" departPos="5.10" departSpeed="0.00" departDelay="0.50" arrival="57766.00" arrivalLane="32978638#0_1" arrivalPos="49.29" arrivalSpeed="14.98" duration="154.00" routeLength="354.79" waitingTime="108.00" waitingCount="2" stopTime="0.00" timeLoss="123.34" rerouteNo="1" devices="tripinfo_h15454c2:3 routing_h15454c2:3" vType="default_016" speedFactor="1.11" vaporized=""/>
    <tripinfo id="h645c1:1" depart="57622.00" departLane="266565295#5_1" departPos="5.10" departSpeed="0.00" departDelay="0.40" arrival="57771.00" arrivalLane="-315358253#1_1" arrivalPos="63.90" arrivalSpeed="12.40" duration="149.00" routeLength="547.76" waitingTime="94.00" waitingCount="1" stopTime="0.00" timeLoss="106.18" rerouteNo="1" devices="tripinfo_h645c1:1 routing_h645c1:1" vType="default_016" speedFactor="0.94" vaporized=""/>
    <tripinfo id="carIn91254:1" depart="57696.00" departLane="653473569#5_1" departPos="5.10" departSpeed="0.00" departDelay="0.10" arrival="57772.00" arrivalLane="201956811#0_1" arrivalPos="40.40" arrivalSpeed="12.72" duration="76.00" routeLength="313.24" waitingTime="19.00" waitingCount="5" stopTime="0.00" timeLoss="51.41" rerouteNo="1" devices="tripinfo_carIn91254:1 routing_carIn91254:1" vType="default_016" speedFactor="0.95" vaporized=""/>
    <tripinfo id="carIn7887:1" depart="57661.00" departLane="27920078#0_1" departPos="5.10" departSpeed="0.00" departDelay="0.50" arrival="57774.00" arrivalLane="-83304175#2_1" arrivalPos="189.34" arrivalSpeed="8.79" duration="113.00" routeLength="501.51" waitingTime="60.00" waitingCount="1" stopTime="0.00" timeLoss="72.79" rerouteNo="1" devices="tripinfo_carIn7887:1 routing_carIn7887:1" vType="default_016" speedFactor="1.18" vaporized=""/>
    <tripinfo id="carIn106797:1" depart="57725.00" departLane="653473569#5_1" departPos="5.10" departSpeed="0.00" departDelay="0.00" arrival="57775.00" arrivalLane="201956811#0_1" arrivalPos="40.40" arrivalSpeed="13.18" duration="50.00" routeLength="313.24" waitingTime="9.00" waitingCount="2" stopTime="0.00" timeLoss="25.86" rerouteNo="1" devices="tripinfo_carIn106797:1 routing_carIn106797:1" vType="default_016" speedFactor="0.98" vaporized=""/>
    <tripinfo id="h330c1:1" depart="57736.00" departLane="-32978638#0_1" departPos="5.10" departSpeed="0.00" departDelay="0.20" arrival="57775.00" arrivalLane="-266565295#5_1" arrivalPos="172.76" arrivalSpeed="13.97" duration="39.00" routeLength="370.53" waitingTime="2.00" waitingCount="1" stopTime="0.00" timeLoss="12.68" rerouteNo="1" devices="tripinfo_h330c1:1 routing_h330c1:1" vType="default_016" speedFactor="1.04" vaporized=""/>
    <tripinfo id="carIn26708:1" depart="57728.00" departLane="653473569#5_1" departPos="5.10" departSpeed="0.00" departDelay="1.40" arrival="57777.00" arrivalLane="201956811#0_1" arrivalPos="40.40" arrivalSpeed="12.52" duration="49.00" routeLength="313.24" waitingTime="5.00" waitingCount="2" stopTime="0.00" timeLoss="25.05" rerouteNo="1" devices="tripinfo_carIn26708:1 routing_carIn26708:1" vType="default_016" speedFactor="0.99" vaporized=""/>
    <tripinfo id="11_frequency1.42" depart="57739.00" departLane="315358253#1_1" departPos="12.10" departSpeed="0.00" departDelay="0.30" arrival="57780.00" arrivalLane="32978638#0_1" arrivalPos="49.29" arrivalSpeed="13.37" duration="41.00" routeLength="398.15" waitingTime="0.00" waitingCount="0" stopTime="0.00" timeLoss="11.01" rerouteNo="1" devices="tripinfo_11_frequency1.42 routing_11_frequency1.42" vType="bus" speedFactor="1.00" vaporized=""/>
    <tripinfo id="carIn34550:1" depart="57732.00" departLane="653473569#5_1" departPos="5.10" departSpeed="0.00" departDelay="1.60" arrival="57781.00" arrivalLane="201956811#0_1" arrivalPos="40.40" arrivalSpeed="11.59" duration="49.00" routeLength="313.24" waitingTime="6.00" waitingCount="1" stopTime="0.00" timeLoss="20.86" rerouteNo="1" devices="tripinfo_carIn34550:1 routing_carIn34550:1" vType="default_016" speedFactor="0.85" vaporized=""/>
    <tripinfo id="carIn106325:1" depart="57713.00" departLane="27920078#0_1" departPos="5.10" departSpeed="0.00" departDelay="0.10" arrival="57782.00" arrivalLane="-83304175#2_1" arrivalPos="189.34" arrivalSpeed="7.41" duration="69.00" routeLength="501.51" waitingTime="9.00" waitingCount="1" stopTime="0.00" timeLoss="22.13" rerouteNo="1" devices="tripinfo_carIn106325:1 routing_carIn106325:1" vType="default_016" speedFactor="1.00" vaporized=""/>
    <tripinfo id="carIn41791:1" depart="57735.00" departLane="653473569#5_1" departPos="5.10" departSpeed="0.00" departDelay="2.80" arrival="57783.00" arrivalLane="201956811#0_1" arrivalPos="40.40" arrivalSpeed="12.97" duration="48.00" routeLength="313.24" waitingTime="6.00" waitingCount="1" stopTime="0.00" timeLoss="23.09" rerouteNo="1" devices="tripinfo_carIn41791:1 routing_carIn41791:1" vType="default_016" speedFactor="0.96" vaporized=""/>
    <tripinfo id="carIn13016:1" depart="57738.00" departLane="653473569#5_1" departPos="5.10" departSpeed="0.00" departDelay="2.50" arrival="57785.00" arrivalLane="201956811#0_1" arrivalPos="40.40" arrivalSpeed="15.04" duration="47.00" routeLength="313.24" waitingTime="5.00" waitingCount="1" stopTime="0.00" timeLoss="25.23" rerouteNo="1" devices="tripinfo_carIn13016:1 routing_carIn13016:1" vType="default_016" speedFactor="1.13" vaporized=""/>
    <tripinfo id="carIn98605:1" depart="57743.00" departLane="315358253#1_1" departPos="5.10" departSpeed="0.00" departDelay="2.20" arrival="57786.00" arrivalLane="32978638#0_1" arrivalPos="49.29" arrivalSpeed="11.83" duration="43.00" routeLength="405.15" waitingTime="0.00" waitingCount="0" stopTime="0.00" timeLoss="8.22" rerouteNo="1" devices="tripinfo_carIn98605:1 routing_carIn98605:1" vType="default_016" speedFactor="0.89" vaporized=""/>
    <tripinfo id="h319c1:3" depart="57746.00" departLane="315358253#1_1" departPos="5.10" departSpeed="0.00" departDelay="3.70" arrival="57787.00" arrivalLane="32978638#0_1" arrivalPos="49.29" arrivalSpeed="12.73" duration="41.00" routeLength="405.15" waitingTime="1.00" waitingCount="1" stopTime="0.00" timeLoss="9.29" rerouteNo="1" devices="tripinfo_h319c1:3 routing_h319c1:3" vType="default_016" speedFactor="0.96" vaporized=""/>
    <tripinfo id="carIn42216:1" depart="57774.00" departLane="-173169611#0_1" departPos="5.10" departSpeed="0.00" departDelay="0.10" arrival="57789.00" arrivalLane="201956820_1" arrivalPos="48.33" arrivalSpeed="14.11" duration="15.00" routeLength="122.35" waitingTime="0.00" waitingCount="0" stopTime="0.00" timeLoss="5.11" rerouteNo="0" devices="tripinfo_carIn42216:1 routing_carIn42216:1" vType="default_016" speedFactor="1.02" vaporized=""/>
    <tripinfo id="carIn107250:1" depart="57753.00" departLane="315358253#1_1" departPos="5.10" departSpeed="0.00" departDelay="7.70" arrival="57790.00" arrivalLane="32978638#0_1" arrivalPos="49.29" arrivalSpeed="14.24" duration="37.00" routeLength="405.15" waitingTime="0.00" waitingCount="0" stopTime="0.00" timeLoss="6.96" rerouteNo="1" devices="tripinfo_carIn107250:1 routing_carIn107250:1" vType="default_016" speedFactor="1.03" vaporized=""/>
    <tripinfo id="h14316c1:3" depart="57760.00" departLane="315358253#1_1" departPos="5.10" departSpeed="0.00" departDelay="11.00" arrival="57796.00" arrivalLane="32978638#0_1" arrivalPos="49.29" arrivalSpeed="13.01" duration="36.00" routeLength="405.15" waitingTime="0.00" waitingCount="0" stopTime="0.00" timeLoss="6.09" rerouteNo="1" devices="tripinfo_h14316c1:3 routing_h14316c1:3" vType="default_016" speedFactor="1.02" vaporized=""/>
    <tripinfo id="carIn117869:1" depart="57758.00" departLane="-32978638#0_1" departPos="5.10" departSpeed="0.00" departDelay="0.60" arrival="57799.00" arrivalLane="-315358253#1_1" arrivalPos="63.90" arrivalSpeed="12.69" duration="41.00" routeLength="422.17" waitingTime="0.00" waitingCount="0" stopTime="0.00" timeLoss="6.01" rerouteNo="1" devices="tripinfo_carIn117869:1 routing_carIn117869:1" vType="default_016" speedFactor="0.92" vaporized=""/>
    <tripinfo id="carIn70477:1" depart="57741.00" departLane="653473569#5_1" departPos="5.10" departSpeed="0.00" departDelay="3.20" arrival="57802.00" arrivalLane="201956811#0_1" arrivalPos="40.40" arrivalSpeed="13.37" duration="61.00" routeLength="313.24" waitingTime="15.00" waitingCount="2" stopTime="0.00" timeLoss="36.65" rerouteNo="1" devices="tripinfo_carIn70477:1 routing_carIn70477:1" vType="default_016" speedFactor="0.99" vaporized=""/>
    <tripinfo id="randUni26227:1" depart="57744.00" departLane="653473569#5_1" departPos="5.10" departSpeed="0.00" departDelay="3.50" arrival="57804.00" arrivalLane="201956811#0_1" arrivalPos="40.40" arrivalSpeed="13.55" duration="60.00" routeLength="313.24" waitingTime="10.00" waitingCount="2" stopTime="0.00" timeLoss="36.46" rerouteNo="1" devices="tripinfo_randUni26227:1 routing_randUni26227:1" vType="random_016" speedFactor="1.02" vaporized=""/>
    <tripinfo id="carIn86816:1" depart="57769.00" departLane="653473569#5_1" departPos="5.10" departSpeed="0.00" departDelay="0.70" arrival="57807.00" arrivalLane="201956811#0_1" arrivalPos="40.40" arrivalSpeed="12.65" duration="38.00" routeLength="313.24" waitingTime="0.00" waitingCount="0" stopTime="0.00" timeLoss="13.94" rerouteNo="1" devices="tripinfo_carIn86816:1 routing_carIn86816:1" vType="default_016" speedFactor="0.99" vaporized=""/>
    <tripinfo id="carIn99738:1" depart="57718.00" departLane="27920078#0_1" departPos="5.10" departSpeed="0.00" departDelay="0.30" arrival="57809.00" arrivalLane="-83304175#2_1" arrivalPos="189.34" arrivalSpeed="7.63" duration="91.00" routeLength="501.51" waitingTime="24.00" waitingCount="3" stopTime="0.00" timeLoss="46.21" rerouteNo="1" devices="tripinfo_carIn99738:1 routing_carIn99738:1" vType="default_016" speedFactor="1.06" vaporized=""/>
    <tripinfo id="carIn28488:1" depart="57611.00" departLane="653473569#5_1" departPos="5.10" departSpeed="0.00" departDelay="0.80" arrival="57811.00" arrivalLane="201956820_1" arrivalPos="48.33" arrivalSpeed="13.36" duration="200.00" routeLength="437.07" waitingTime="147.00" waitingCount="3" stopTime="0.00" timeLoss="166.98" rerouteNo="1" devices="tripinfo_carIn28488:1 routing_carIn28488:1" vType="default_016" speedFactor="0.99" vaporized=""/>
    <tripinfo id="carIn95310:1" depart="57753.00" departLane="27920078#0_1" departPos="5.10" departSpeed="0.00" departDelay="0.50" arrival="57814.00" arrivalLane="-83304175#2_1" arrivalPos="189.34" arrivalSpeed="9.46" duration="61.00" routeLength="501.51" waitingTime="3.00" waitingCount="1" stopTime="0.00" timeLoss="20.81" rerouteNo="1" devices="tripinfo_carIn95310:1 routing_carIn95310:1" vType="default_016" speedFactor="1.18" vaporized=""/>
    <tripinfo id="carIn7631:1" depart="57786.00" departLane="-32978638#0_1" departPos="5.10" departSpeed="0.00" departDelay="0.70" arrival="57819.00" arrivalLane="-315358253#1_1" arrivalPos="63.90" arrivalSpeed="16.29" duration="33.00" routeLength="422.17" waitingTime="0.00" waitingCount="0" stopTime="0.00" timeLoss="6.12" rerouteNo="1" devices="tripinfo_carIn7631:1 routing_carIn7631:1" vType="default_016" speedFactor="1.17" vaporized=""/>
    <tripinfo id="h19989c1:1" depart="57730.00" departLane="10425609#0_1" departPos="5.10" departSpeed="0.00" departDelay="0.60" arrival="57837.00" arrivalLane="-653473569#5_1" arrivalPos="73.05" arrivalSpeed="10.63" duration="107.00" routeLength="312.95" waitingTime="61.00" waitingCount="2" stopTime="0.00" timeLoss="75.23" rerouteNo="1" devices="tripinfo_h19989c1:1 routing_h19989c1:1" vType="default_016" speedFactor="0.78" vaporized=""/>
    <tripinfo id="carIn92858:1" depart="57733.00" departLane="10425609#0_1" departPos="5.10" departSpeed="0.00" departDelay="0.80" arrival="57839.00" arrivalLane="-653473569#5_1" arrivalPos="73.05" arrivalSpeed="11.26" duration="106.00" routeLength="312.95" waitingTime="59.00" waitingCount="2" stopTime="0.00" timeLoss="77.28" rerouteNo="1" devices="tripinfo_carIn92858:1 routing_carIn92858:1" vType="default_016" speedFactor="0.86" vaporized=""/>