<?xml version="1.0" encoding="UTF-8"?>

<!-- generated on 2023-08-31 12:35:27 by Eclipse SUMO libsumo Version 1.18.0
<configuration xmlns:xsi="http://www.w3.org/2001/XMLSchema-instance" xsi:noNamespaceSchemaLocation="http://sumo.dlr.de/xsd/libsumoConfiguration.xsd">

    <input>
        <net-file value="/home/stefan/RESCO/./environments/ingolstadt7/ingolstadt7.net.xml"/>
        <route-files value="/home/stefan/RESCO/./environments/ingolstadt7/ingolstadt7.rou.xml"/>
    </input>

    <output>
        <tripinfo-output value="/home/stefan/results/RAINBOW-tr0-ingolstadt7-7-drq_norm-wait_norm/tripinfo_48.xml"/>
        <tripinfo-output.write-unfinished value="true"/>
    </output>

    <time>
        <begin value="57600"/>
        <end value="61200"/>
    </time>

    <processing>
        <time-to-teleport value="-1"/>
    </processing>

    <report>
        <no-warnings value="True"/>
        <no-step-log value="True"/>
    </report>

    <random_number>
        <random value="true"/>
    </random_number>

</configuration>
-->

<tripinfos xmlns:xsi="http://www.w3.org/2001/XMLSchema-instance" xsi:noNamespaceSchemaLocation="http://sumo.dlr.de/xsd/tripinfo_file.xsd">
    <tripinfo id="carIn105842:1" depart="57601.00" departLane="653473569#5_1" departPos="5.10" departSpeed="0.00" departDelay="0.80" arrival="57642.00" arrivalLane="201956811#0_1" arrivalPos="40.40" arrivalSpeed="11.68" duration="41.00" routeLength="313.24" waitingTime="3.00" waitingCount="1" stopTime="0.00" timeLoss="12.13" rerouteNo="1" devices="tripinfo_carIn105842:1 routing_carIn105842:1" vType="default_016" speedFactor="0.85" vaporized=""/>
    <tripinfo id="carIn28951:1" depart="57606.00" departLane="10425609#0_1" departPos="5.10" departSpeed="0.00" departDelay="0.20" arrival="57643.00" arrivalLane="-653473569#5_1" arrivalPos="73.05" arrivalSpeed="14.69" duration="37.00" routeLength="312.95" waitingTime="4.00" waitingCount="1" stopTime="0.00" timeLoss="15.14" rerouteNo="1" devices="tripinfo_carIn28951:1 routing_carIn28951:1" vType="default_016" speedFactor="1.13" vaporized=""/>
    <tripinfo id="h20232c1:2" depart="57634.00" departLane="-173169611#0_1" departPos="5.10" departSpeed="0.00" departDelay="0.50" arrival="57649.00" arrivalLane="201956820_1" arrivalPos="48.33" arrivalSpeed="13.16" duration="15.00" routeLength="122.35" waitingTime="0.00" waitingCount="0" stopTime="0.00" timeLoss="5.12" rerouteNo="0" devices="tripinfo_h20232c1:2 routing_h20232c1:2" vType="default_016" speedFactor="1.01" vaporized=""/>
    <tripinfo id="carIn106322:1" depart="57614.00" departLane="653473569#5_1" departPos="5.10" departSpeed="0.00" departDelay="2.20" arrival="57655.00" arrivalLane="201956811#0_1" arrivalPos="40.40" arrivalSpeed="9.96" duration="41.00" routeLength="313.24" waitingTime="0.00" waitingCount="0" stopTime="0.00" timeLoss="10.52" rerouteNo="1" devices="tripinfo_carIn106322:1 routing_carIn106322:1" vType="default_016" speedFactor="0.79" vaporized=""/>
    <tripinfo id="carIn5482:1" depart="57617.00" departLane="653473569#5_1" departPos="5.10" departSpeed="0.00" departDelay="3.60" arrival="57656.00" arrivalLane="201956811#0_1" arrivalPos="40.40" arrivalSpeed="12.67" duration="39.00" routeLength="313.24" waitingTime="1.00" waitingCount="1" stopTime="0.00" timeLoss="15.40" rerouteNo="1" devices="tripinfo_carIn5482:1 routing_carIn5482:1" vType="default_016" speedFactor="0.98" vaporized=""/>
    <tripinfo id="carIn25202:1" depart="57629.00" departLane="315358253#1_1" departPos="5.10" departSpeed="0.00" departDelay="1.50" arrival="57667.00" arrivalLane="32978638#0_1" arrivalPos="49.29" arrivalSpeed="12.27" duration="38.00" routeLength="405.15" waitingTime="0.00" waitingCount="0" stopTime="0.00" timeLoss="6.22" rerouteNo="1" devices="tripinfo_carIn25202:1 routing_carIn25202:1" vType="default_016" speedFactor="0.96" vaporized=""/>
    <tripinfo id="carIn107084:1" depart="57601.00" departLane="124812856#0_1" departPos="5.10" departSpeed="0.00" departDelay="0.70" arrival="57670.00" arrivalLane="-653473569#5_1" arrivalPos="73.05" arrivalSpeed="12.10" duration="69.00" routeLength="450.40" waitingTime="24.00" waitingCount="1" stopTime="0.00" timeLoss="33.72" rerouteNo="1" devices="tripinfo_carIn107084:1 routing_carIn107084:1" vType="default_016" speedFactor="0.95" vaporized=""/>
    <tripinfo id="carIn36103:1" depart="57620.00" departLane="653473569#5_1" departPos="5.10" departSpeed="0.00" departDelay="4.00" arrival="57673.00" arrivalLane="201956811#0_1" arrivalPos="40.40" arrivalSpeed="11.25" duration="53.00" routeLength="313.24" waitingTime="9.00" waitingCount="1" stopTime="0.00" timeLoss="24.70" rerouteNo="1" devices="tripinfo_carIn36103:1 routing_carIn36103:1" vType="default_016" speedFactor="0.84" vaporized=""/>
    <tripinfo id="carIn102997:1" depart="57623.00" departLane="653473569#5_1" departPos="5.10" departSpeed="0.00" departDelay="4.80" arrival="57675.00" arrivalLane="201956811#0_1" arrivalPos="40.40" arrivalSpeed="14.72" duration="52.00" routeLength="313.24" waitingTime="7.00" waitingCount="1" stopTime="0.00" timeLoss="30.98" rerouteNo="1" devices="tripinfo_carIn102997:1 routing_carIn102997:1" vType="default_016" speedFactor="1.15" vaporized=""/>
    <tripinfo id="carIn75554:1" depart="57627.00" departLane="653473569#5_1" departPos="5.10" departSpeed="0.00" departDelay="6.20" arrival="57677.00" arrivalLane="201956811#0_1" arrivalPos="40.40" arrivalSpeed="13.91" duration="50.00" routeLength="313.24" waitingTime="7.00" waitingCount="1" stopTime="0.00" timeLoss="27.92" rerouteNo="1" devices="tripinfo_carIn75554:1 routing_carIn75554:1" vType="default_016" speedFactor="1.09" vaporized=""/>
    <tripinfo id="carIn89578:1" depart="57614.00" departLane="124812856#0_1" departPos="5.10" departSpeed="0.00" departDelay="3.60" arrival="57684.00" arrivalLane="201956810_1" arrivalPos="71.65" arrivalSpeed="14.98" duration="70.00" routeLength="134.91" waitingTime="52.00" waitingCount="1" stopTime="0.00" timeLoss="60.81" rerouteNo="1" devices="tripinfo_carIn89578:1 routing_carIn89578:1" vType="default_016" speedFactor="1.17" vaporized=""/>
    <tripinfo id="carIn124416:1" depart="57663.00" departLane="-173169611#0_1" departPos="5.10" departSpeed="0.00" departDelay="0.50" arrival="57686.00" arrivalLane="201956820_1" arrivalPos="48.33" arrivalSpeed="12.24" duration="23.00" routeLength="122.35" waitingTime="4.00" waitingCount="1" stopTime="0.00" timeLoss="13.38" rerouteNo="0" devices="tripinfo_carIn124416:1 routing_carIn124416:1" vType="default_016" speedFactor="0.98" vaporized=""/>
    <tripinfo id="carIn33538:1" depart="57671.00" departLane="37386279_1" departPos="5.10" departSpeed="0.00" departDelay="0.30" arrival="57686.00" arrivalLane="-24634414#4_1" arrivalPos="22.88" arrivalSpeed="8.94" duration="15.00" routeLength="125.23" waitingTime="0.00" waitingCount="0" stopTime="0.00" timeLoss="4.08" rerouteNo="0" devices="tripinfo_carIn33538:1 routing_carIn33538:1" vType="default_016" speedFactor="1.09" vaporized=""/>
    <tripinfo id="carIn55090:1" depart="57666.00" departLane="-173169611#0_1" departPos="5.10" departSpeed="0.00" departDelay="1.40" arrival="57696.00" arrivalLane="201956820_1" arrivalPos="48.33" arrivalSpeed="13.23" duration="30.00" routeLength="122.35" waitingTime="6.00" waitingCount="2" stopTime="0.00" timeLoss="20.17" rerouteNo="0" devices="tripinfo_carIn55090:1 routing_carIn55090:1" vType="default_016" speedFactor="1.03" vaporized=""/>
    <tripinfo id="carIn28488:1" depart="57611.00" departLane="653473569#5_1" departPos="5.10" departSpeed="0.00" departDelay="0.80" arrival="57700.00" arrivalLane="201956820_1" arrivalPos="48.33" arrivalSpeed="15.08" duration="89.00" routeLength="437.07" waitingTime="42.00" waitingCount="2" stopTime="0.00" timeLoss="61.59" rerouteNo="1" devices="tripinfo_carIn28488:1 routing_carIn28488:1" vType="default_016" speedFactor="1.20" vaporized=""/>
    <tripinfo id="carIn13117:1" depart="57627.00" departLane="27920078#0_1" departPos="5.10" departSpeed="0.00" departDelay="1.80" arrival="57700.00" arrivalLane="201956820_2" arrivalPos="48.33" arrivalSpeed="13.72" duration="73.00" routeLength="552.44" waitingTime="16.00" waitingCount="2" stopTime="0.00" timeLoss="35.20" rerouteNo="1" devices="tripinfo_carIn13117:1 routing_carIn13117:1" vType="default_016" speedFactor="1.07" vaporized=""/>
    <tripinfo id="randUni20090:1" depart="57630.00" departLane="653473569#5_1" departPos="5.10" departSpeed="0.00" departDelay="2.00" arrival="57701.00" arrivalLane="201956811#0_1" arrivalPos="40.40" arrivalSpeed="13.16" duration="71.00" routeLength="313.24" waitingTime="26.00" waitingCount="2" stopTime="0.00" timeLoss="47.03" rerouteNo="1" devices="tripinfo_randUni20090:1 routing_randUni20090:1" vType="random_016" speedFactor="1.02" vaporized=""/>
    <tripinfo id="h20540c1:1" depart="57634.00" departLane="10425609#0_1" departPos="5.10" departSpeed="0.00" departDelay="0.50" arrival="57701.00" arrivalLane="-653473569#5_1" arrivalPos="73.05" arrivalSpeed="14.06" duration="67.00" routeLength="312.95" waitingTime="23.00" waitingCount="3" stopTime="0.00" timeLoss="43.91" rerouteNo="1" devices="tripinfo_h20540c1:1 routing_h20540c1:1" vType="default_016" speedFactor="1.05" vaporized=""/>
    <tripinfo id="carIn37268:1" depart="57636.00" departLane="653473569#5_1" departPos="5.10" departSpeed="0.00" departDelay="0.90" arrival="57703.00" arrivalLane="201956811#0_1" arrivalPos="40.40" arrivalSpeed="12.43" duration="67.00" routeLength="313.24" waitingTime="24.00" waitingCount="2" stopTime="0.00" timeLoss="42.39" rerouteNo="1" devices="tripinfo_carIn37268:1 routing_carIn37268:1" vType="default_016" speedFactor="0.97" vaporized=""/>
    <tripinfo id="carIn52610:1" depart="57615.00" departLane="-24693977#1_1" departPos="5.10" departSpeed="0.00" departDelay="0.10" arrival="57704.00" arrivalLane="-266565295#5_1" arrivalPos="172.76" arrivalSpeed="17.18" duration="89.00" routeLength="840.03" waitingTime="12.00" waitingCount="1" stopTime="0.00" timeLoss="39.99" rerouteNo="1" devices="tripinfo_carIn52610:1 routing_carIn52610:1" vType="default_016" speedFactor="1.27" vaporized=""/>
    <tripinfo id="carIn55461:1" depart="57652.00" departLane="10425609#0_1" departPos="5.10" departSpeed="0.00" departDelay="0.30" arrival="57704.00" arrivalLane="201956810_1" arrivalPos="71.65" arrivalSpeed="12.78" duration="52.00" routeLength="255.78" waitingTime="22.00" waitingCount="1" stopTime="0.00" timeLoss="32.02" rerouteNo="1" devices="tripinfo_carIn55461:1 routing_carIn55461:1" vType="default_016" speedFactor="1.00" vaporized=""/>
    <tripinfo id="h15454c2:3" depart="57612.00" departLane="24608844_1" departPos="5.10" departSpeed="0.00" departDelay="0.50" arrival="57705.00" arrivalLane="32978638#0_1" arrivalPos="49.29" arrivalSpeed="12.41" duration="93.00" routeLength="354.79" waitingTime="42.00" waitingCount="2" stopTime="0.00" timeLoss="56.80" rerouteNo="1" devices="tripinfo_h15454c2:3 routing_h15454c2:3" vType="default_016" speedFactor="0.95" vaporized=""/>
    <tripinfo id="carIn113711:1" depart="57601.00" departLane="-24693977#1_1" departPos="5.10" departSpeed="0.00" departDelay="0.70" arrival="57706.00" arrivalLane="-266565295#5_1" arrivalPos="172.76" arrivalSpeed="14.02" duration="105.00" routeLength="840.03" waitingTime="30.00" waitingCount="2" stopTime="0.00" timeLoss="47.21" rerouteNo="1" devices="tripinfo_carIn113711:1 routing_carIn113711:1" vType="default_016" speedFactor="1.07" vaporized=""/>
    <tripinfo id="carIn114137:1" depart="57635.00" departLane="27920078#0_1" departPos="5.10" departSpeed="0.00" departDelay="4.10" arrival="57707.00" arrivalLane="-83304175#2_1" arrivalPos="189.34" arrivalSpeed="6.65" duration="72.00" routeLength="501.51" waitingTime="5.00" waitingCount="1" stopTime="0.00" timeLoss="20.44" rerouteNo="1" devices="tripinfo_carIn114137:1 routing_carIn114137:1" vType="default_016" speedFactor="0.91" vaporized=""/>
    <tripinfo id="carIn10158:1" depart="57622.00" departLane="-24693977#1_1" departPos="5.10" departSpeed="0.00" departDelay="0.80" arrival="57708.00" arrivalLane="-266565295#5_2" arrivalPos="172.76" arrivalSpeed="14.70" duration="86.00" routeLength="840.03" waitingTime="11.00" waitingCount="1" stopTime="0.00" timeLoss="28.73" rerouteNo="1" devices="tripinfo_carIn10158:1 routing_carIn10158:1" vType="default_016" speedFactor="1.09" vaporized=""/>
    <tripinfo id="carIn12152:1" depart="57647.00" departLane="24599188#0.94_1" departPos="5.10" departSpeed="0.00" departDelay="0.50" arrival="57708.00" arrivalLane="24693977#1_1" arrivalPos="96.83" arrivalSpeed="15.36" duration="61.00" routeLength="511.77" waitingTime="3.00" waitingCount="1" stopTime="0.00" timeLoss="17.87" rerouteNo="1" devices="tripinfo_carIn12152:1 routing_carIn12152:1" vType="default_016" speedFactor="1.12" vaporized=""/>
    <tripinfo id="carIn79400:1" depart="57604.00" departLane="-24693977#1_1" departPos="5.10" departSpeed="0.00" departDelay="0.10" arrival="57709.00" arrivalLane="-266565295#5_1" arrivalPos="172.76" arrivalSpeed="12.71" duration="105.00" routeLength="840.03" waitingTime="21.00" waitingCount="3" stopTime="0.00" timeLoss="42.96" rerouteNo="1" devices="tripinfo_carIn79400:1 routing_carIn79400:1" vType="default_016" speedFactor="1.00" vaporized=""/>
    <tripinfo id="carIn22637:1" depart="57636.00" departLane="27920078#0_1" departPos="5.10" departSpeed="0.00" departDelay="3.50" arrival="57709.00" arrivalLane="-83304175#2_1" arrivalPos="189.34" arrivalSpeed="7.79" duration="73.00" routeLength="501.51" waitingTime="5.00" waitingCount="2" stopTime="0.00" timeLoss="29.18" rerouteNo="1" devices="tripinfo_carIn22637:1 routing_carIn22637:1" vType="default_016" speedFactor="1.08" vaporized=""/>
    <tripinfo id="h645c1:1" depart="57622.00" departLane="266565295#5_1" departPos="5.10" departSpeed="0.00" departDelay="0.40" arrival="57710.00" arrivalLane="-315358253#1_1" arrivalPos="63.90" arrivalSpeed="13.10" duration="88.00" routeLength="547.76" waitingTime="36.00" waitingCount="1" stopTime="0.00" timeLoss="48.46" rerouteNo="1" devices="tripinfo_h645c1:1 routing_h645c1:1" vType="default_016" speedFactor="1.02" vaporized=""/>
    <tripinfo id="carIn115641:1" depart="57614.00" departLane="-24693977#1_1" departPos="5.10" departSpeed="0.00" departDelay="0.90" arrival="57712.00" arrivalLane="-266565295#5_1" arrivalPos="172.76" arrivalSpeed="12.55" duration="98.00" routeLength="840.03" waitingTime="12.00" waitingCount="2" stopTime="0.00" timeLoss="34.65" rerouteNo="1" devices="tripinfo_carIn115641:1 routing_carIn115641:1" vType="default_016" speedFactor="0.97" vaporized=""/>
    <tripinfo id="h3688c1:1" depart="57679.00" departLane="315358253#1_1" departPos="5.10" departSpeed="0.00" departDelay="0.50" arrival="57712.00" arrivalLane="32978638#0_1" arrivalPos="49.29" arrivalSpeed="16.01" duration="33.00" routeLength="405.15" waitingTime="0.00" waitingCount="0" stopTime="0.00" timeLoss="7.12" rerouteNo="1" devices="tripinfo_h3688c1:1 routing_h3688c1:1" vType="default_016" speedFactor="1.21" vaporized=""/>
    <tripinfo id="carIn7887:1" depart="57661.00" departLane="27920078#0_1" departPos="5.10" departSpeed="0.00" departDelay="0.50" arrival="57721.00" arrivalLane="-83304175#2_1" arrivalPos="189.34" arrivalSpeed="6.97" duration="60.00" routeLength="501.51" waitingTime="0.00" waitingCount="0" stopTime="0.00" timeLoss="7.41" rerouteNo="1" devices="tripinfo_carIn7887:1 routing_carIn7887:1" vType="default_016" speedFactor="0.90" vaporized=""/>
    <tripinfo id="carIn925:1" depart="57691.00" departLane="124812856#0_1" departPos="5.10" departSpeed="0.00" departDelay="64.90" arrival="57725.00" arrivalLane="201956810_1" arrivalPos="71.65" arrivalSpeed="11.56" duration="34.00" routeLength="134.91" waitingTime="9.00" waitingCount="2" stopTime="0.00" timeLoss="22.31" rerouteNo="1" devices="tripinfo_carIn925:1 routing_carIn925:1" vType="default_016" speedFactor="0.92" vaporized=""/>
    <tripinfo id="carIn12775:1" depart="57677.00" departLane="10425609#0_1" departPos="5.10" departSpeed="0.00" departDelay="1.60" arrival="57730.00" arrivalLane="-653473569#5_1" arrivalPos="73.05" arrivalSpeed="12.78" duration="53.00" routeLength="312.95" waitingTime="14.00" waitingCount="2" stopTime="0.00" timeLoss="27.29" rerouteNo="1" devices="tripinfo_carIn12775:1 routing_carIn12775:1" vType="default_016" speedFactor="0.93" vaporized=""/>
    <tripinfo id="carIn131078:1" depart="57717.00" departLane="124812856#0_1" departPos="5.10" departSpeed="0.00" departDelay="81.60" arrival="57737.00" arrivalLane="201956810_1" arrivalPos="71.65" arrivalSpeed="13.45" duration="20.00" routeLength="134.91" waitingTime="0.00" waitingCount="0" stopTime="0.00" timeLoss="9.22" rerouteNo="1" devices="tripinfo_carIn131078:1 routing_carIn131078:1" vType="default_016" speedFactor="1.01" vaporized=""/>
    <tripinfo id="carIn106665:1" depart="57659.00" departLane="266565295#5_1" departPos="5.10" departSpeed="0.00" departDelay="1.80" arrival="57739.00" arrivalLane="24693977#1_1" arrivalPos="96.83" arrivalSpeed="13.39" duration="80.00" routeLength="834.40" waitingTime="2.00" waitingCount="1" stopTime="0.00" timeLoss="19.36" rerouteNo="1" devices="tripinfo_carIn106665:1 routing_carIn106665:1" vType="default_016" speedFactor="1.02" vaporized=""/>
    <tripinfo id="h317c2:1" depart="57707.00" departLane="-32978638#0_1" departPos="5.10" departSpeed="0.00" departDelay="0.10" arrival="57739.00" arrivalLane="-266565295#5_1" arrivalPos="172.76" arrivalSpeed="14.24" duration="32.00" routeLength="370.53" waitingTime="0.00" waitingCount="0" stopTime="0.00" timeLoss="6.85" rerouteNo="1" devices="tripinfo_h317c2:1 routing_h317c2:1" vType="default_016" speedFactor="1.11" vaporized=""/>
    <tripinfo id="h3568c1:3" depart="57656.00" departLane="266565295#5_1" departPos="5.10" departSpeed="0.00" departDelay="0.80" arrival="57743.00" arrivalLane="-24634415_1" arrivalPos="64.03" arrivalSpeed="14.51" duration="87.00" routeLength="810.20" waitingTime="4.00" waitingCount="1" stopTime="0.00" timeLoss="29.81" rerouteNo="1" devices="tripinfo_h3568c1:3 routing_h3568c1:3" vType="default_016" speedFactor="1.13" vaporized=""/>
    <tripinfo id="60R.41" depart="57623.00" departLane="27920078#0_1" departPos="12.10" departSpeed="0.00" departDelay="0.30" arrival="57745.00" arrivalLane="201956811#0_1" arrivalPos="40.40" arrivalSpeed="12.33" duration="122.00" routeLength="425.03" waitingTime="56.00" waitingCount="3" stopTime="0.00" timeLoss="90.38" rerouteNo="1" devices="tripinfo_60R.41 routing_60R.41" vType="bus" speedFactor="1.00" vaporized=""/>
    <tripinfo id="h9894c1:3" depart="57698.00" departLane="-24693977#1_1" departPos="5.10" departSpeed="0.00" departDelay="0.20" arrival="57758.00" arrivalLane="32978638#0_1" arrivalPos="49.29" arrivalSpeed="12.87" duration="60.00" routeLength="677.49" waitingTime="0.00" waitingCount="0" stopTime="0.00" timeLoss="8.11" rerouteNo="1" devices="tripinfo_h9894c1:3 routing_h9894c1:3" vType="default_016" speedFactor="0.97" vaporized=""/>
    <tripinfo id="carIn99509:1" depart="57720.00" departLane="-32978638#0_1" departPos="5.10" departSpeed="0.00" departDelay="0.20" arrival="57759.00" arrivalLane="-315358253#1_1" arrivalPos="63.90" arrivalSpeed="13.38" duration="39.00" routeLength="422.17" waitingTime="0.00" waitingCount="0" stopTime="0.00" timeLoss="6.62" rerouteNo="1" devices="tripinfo_carIn99509:1 routing_carIn99509:1" vType="default_015" speedFactor="0.99" vaporized=""/>
    <tripinfo id="carIn106325:1" depart="57713.00" departLane="27920078#0_1" departPos="5.10" departSpeed="0.00" departDelay="0.10" arrival="57764.00" arrivalLane="-83304175#2_1" arrivalPos="189.34" arrivalSpeed="9.40" duration="51.00" routeLength="501.51" waitingTime="0.00" waitingCount="0" stopTime="0.00" timeLoss="9.83" rerouteNo="1" devices="tripinfo_carIn106325:1 routing_carIn106325:1" vType="default_016" speedFactor="1.15" vaporized=""/>
    <tripinfo id="h9878c1:3" depart="57686.00" departLane="-24693977#1_1" departPos="5.10" departSpeed="0.00" departDelay="0.70" arrival="57765.00" arrivalLane="32978638#0_1" arrivalPos="49.29" arrivalSpeed="10.26" duration="79.00" routeLength="677.49" waitingTime="3.00" waitingCount="1" stopTime="0.00" timeLoss="16.99" rerouteNo="1" devices="tripinfo_h9878c1:3 routing_h9878c1:3" vType="default_016" speedFactor="0.82" vaporized=""/>
    <tripinfo id="carIn75079:1" depart="57747.00" departLane="-173169611#0_1" departPos="5.10" departSpeed="0.00" departDelay="0.60" arrival="57766.00" arrivalLane="201956820_1" arrivalPos="48.33" arrivalSpeed="10.69" duration="19.00" routeLength="122.35" waitingTime="1.00" waitingCount="1" stopTime="0.00" timeLoss="7.10" rerouteNo="0" devices="tripinfo_carIn75079:1 routing_carIn75079:1" vType="default_016" speedFactor="0.81" vaporized=""/>
    <tripinfo id="carIn129760:1" depart="57661.00" departLane="653473569#5_1" departPos="5.10" departSpeed="0.00" departDelay="0.80" arrival="57769.00" arrivalLane="201956811#0_1" arrivalPos="40.40" arrivalSpeed="10.31" duration="108.00" routeLength="313.24" waitingTime="53.00" waitingCount="4" stopTime="0.00" timeLoss="79.28" rerouteNo="1" devices="tripinfo_carIn129760:1 routing_carIn129760:1" vType="default_016" speedFactor="0.82" vaporized=""/>
    <tripinfo id="h330c1:1" depart="57736.00" departLane="-32978638#0_1" departPos="5.10" departSpeed="0.00" departDelay="0.20" arrival="57770.00" arrivalLane="-266565295#5_1" arrivalPos="172.76" arrivalSpeed="13.28" duration="34.00" routeLength="370.53" waitingTime="0.00" waitingCount="0" stopTime="0.00" timeLoss="6.58" rerouteNo="1" devices="tripinfo_h330c1:1 routing_h330c1:1" vType="default_016" speedFactor="1.01" vaporized=""/>
    <tripinfo id="randUni27349:1" depart="57638.00" departLane="27920078#0_1" departPos="5.10" departSpeed="0.00" departDelay="4.10" arrival="57771.00" arrivalLane="201956811#0_1" arrivalPos="40.40" arrivalSpeed="15.12" duration="133.00" routeLength="432.03" waitingTime="54.00" waitingCount="6" stopTime="0.00" timeLoss="105.68" rerouteNo="1" devices="tripinfo_randUni27349:1 routing_randUni27349:1" vType="random_016" speedFactor="1.17" vaporized=""/>
    <tripinfo id="h20403c1:5" depart="57641.00" departLane="27920078#0_1" departPos="5.10" departSpeed="0.00" departDelay="5.60" arrival="57773.00" arrivalLane="201956811#0_1" arrivalPos="40.40" arrivalSpeed="11.47" duration="132.00" routeLength="432.03" waitingTime="50.00" waitingCount="6" stopTime="0.00" timeLoss="95.33" rerouteNo="1" devices="tripinfo_h20403c1:5 routing_h20403c1:5" vType="default_016" speedFactor="0.86" vaporized=""/>
    <tripinfo id="carIn99738:1" depart="57719.00" departLane="27920078#0_1" departPos="5.10" departSpeed="0.00" departDelay="1.30" arrival="57774.00" arrivalLane="-83304175#2_1" arrivalPos="189.34" arrivalSpeed="7.67" duration="55.00" routeLength="501.51" waitingTime="1.00" waitingCount="1" stopTime="0.00" timeLoss="10.24" rerouteNo="1" devices="tripinfo_carIn99738:1 routing_carIn99738:1" vType="default_016" speedFactor="1.06" vaporized=""/>
    <tripinfo id="carIn12900:1" depart="57739.00" departLane="124812856#0_1" departPos="5.10" departSpeed="0.00" departDelay="90.80" arrival="57782.00" arrivalLane="201956810_1" arrivalPos="71.65" arrivalSpeed="12.76" duration="43.00" routeLength="134.91" waitingTime="18.00" waitingCount="2" stopTime="0.00" timeLoss="32.21" rerouteNo="1" devices="tripinfo_carIn12900:1 routing_carIn12900:1" vType="default_016" speedFactor="0.95" vaporized=""/>
    <tripinfo id="carIn33467:1" depart="57723.00" departLane="-24693977#1_1" departPos="5.10" departSpeed="0.00" departDelay="0.00" arrival="57791.00" arrivalLane="32978638#0_1" arrivalPos="49.29" arrivalSpeed="11.60" duration="68.00" routeLength="677.49" waitingTime="0.00" waitingCount="0" stopTime="0.00" timeLoss="8.02" rerouteNo="1" devices="tripinfo_carIn33467:1 routing_carIn33467:1" vType="default_016" speedFactor="0.85" vaporized=""/>
    <tripinfo id="h20539c1:3" depart="57667.00" departLane="653473569#5_1" departPos="5.10" departSpeed="0.00" departDelay="2.20" arrival="57792.00" arrivalLane="201956811#0_1" arrivalPos="40.40" arrivalSpeed="13.14" duration="125.00" routeLength="313.24" waitingTime="55.00" waitingCount="6" stopTime="0.00" timeLoss="100.94" rerouteNo="1" devices="tripinfo_h20539c1:3 routing_h20539c1:3" vType="default_016" speedFactor="1.02" vaporized=""/>
    <tripinfo id="carIn34550:1" depart="57734.00" departLane="653473569#5_1" departPos="5.10" departSpeed="0.00" departDelay="3.60" arrival="57794.00" arrivalLane="201956811#0_1" arrivalPos="40.40" arrivalSpeed="12.54" duration="60.00" routeLength="313.24" waitingTime="11.00" waitingCount="3" stopTime="0.00" timeLoss="34.97" rerouteNo="1" devices="tripinfo_carIn34550:1 routing_carIn34550:1" vType="default_016" speedFactor="0.95" vaporized=""/>
    <tripinfo id="carIn129628:1" depart="57739.00" departLane="24599188#0.94_1" departPos="5.10" departSpeed="0.00" departDelay="0.50" arrival="57794.00" arrivalLane="24693977#1_1" arrivalPos="96.83" arrivalSpeed="15.32" duration="55.00" routeLength="511.77" waitingTime="1.00" waitingCount="1" stopTime="0.00" timeLoss="13.58" rerouteNo="1" devices="tripinfo_carIn129628:1 routing_carIn129628:1" vType="default_016" speedFactor="1.19" vaporized=""/>
    <tripinfo id="h19989c1:1" depart="57730.00" departLane="10425609#0_1" departPos="5.10" departSpeed="0.00" departDelay="0.60" arrival="57795.00" arrivalLane="-653473569#5_1" arrivalPos="73.05" arrivalSpeed="12.55" duration="65.00" routeLength="312.95" waitingTime="26.00" waitingCount="1" stopTime="0.00" timeLoss="39.65" rerouteNo="1" devices="tripinfo_h19989c1:1 routing_h19989c1:1" vType="default_016" speedFactor="0.97" vaporized=""/>
    <tripinfo id="carIn41791:1" depart="57737.00" departLane="653473569#5_1" departPos="5.10" departSpeed="0.00" departDelay="4.80" arrival="57796.00" arrivalLane="201956811#0_1" arrivalPos="40.40" arrivalSpeed="12.98" duration="59.00" routeLength="313.24" waitingTime="17.00" waitingCount="4" stopTime="0.00" timeLoss="34.21" rerouteNo="1" devices="tripinfo_carIn41791:1 routing_carIn41791:1" vType="default_016" speedFactor="0.99" vaporized=""/>
    <tripinfo id="carIn42216:1" depart="57774.00" departLane="-173169611#0_1" departPos="5.10" departSpeed="0.00" departDelay="0.10" arrival="57796.00" arrivalLane="201956820_1" arrivalPos="48.33" arrivalSpeed="14.59" duration="22.00" routeLength="122.35" waitingTime="5.00" waitingCount="1" stopTime="0.00" timeLoss="12.17" rerouteNo="0" devices="tripinfo_carIn42216:1 routing_carIn42216:1" vType="default_016" speedFactor="1.06" vaporized=""/>
    <tripinfo id="randUni22709:1" depart="57718.00" departLane="315358253#1_1" departPos="5.10" departSpeed="0.00" departDelay="0.20" arrival="57798.00" arrivalLane="32978638#0_1" arrivalPos="49.29" arrivalSpeed="13.91" duration="80.00" routeLength="405.15" waitingTime="38.00" waitingCount="1" stopTime="0.00" timeLoss="49.23" rerouteNo="1" devices="tripinfo_randUni22709:1 routing_randUni22709:1" vType="random_016" speedFactor="1.01" vaporized=""/>
    <tripinfo id="carIn92858:1" depart="57733.00" departLane="10425609#0_1" departPos="5.10" departSpeed="0.00" departDelay="0.80" arrival="57798.00" arrivalLane="-653473569#5_1" arrivalPos="73.05" arrivalSpeed="12.31" duration="65.00" routeLength="312.95" waitingTime="25.00" waitingCount="1" stopTime="0.00" timeLoss="38.32" rerouteNo="1" devices="tripinfo_carIn92858:1 routing_carIn92858:1" vType="default_016" speedFactor="0.93" vaporized=""/>
    <tripinfo id="carIn117869:1" depart="57758.00" departLane="-32978638#0_1" departPos="5.10" departSpeed="0.00" departDelay="0.60" arrival="57803.00" arrivalLane="-315358253#1_1" arrivalPos="63.90" arrivalSpeed="10.47" duration="45.00" routeLength="422.17" waitingTime="0.00" waitingCount="0" stopTime="0.00" timeLoss="6.59" rerouteNo="1" devices="tripinfo_carIn117869:1 routing_carIn117869:1" vType="default_016" speedFactor="0.83" vaporized=""/>
    <tripinfo id="h134c1:3" depart="57721.00" departLane="315358253#1_1" departPos="5.10" departSpeed="0.00" departDelay="1.60" arrival="57806.00" arrivalLane="32978638#0_1" arrivalPos="49.29" arrivalSpeed="13.51" duration="85.00" routeLength="405.15" waitingTime="41.00" waitingCount="2" stopTime="0.00" timeLoss="55.73" rerouteNo="1" devices="tripinfo_h134c1:3 routing_h134c1:3" vType="default_016" speedFactor="1.05" vaporized=""/>
    <tripinfo id="carIn95310:1" depart="57753.00" departLane="27920078#0_1" departPos="5.10" departSpeed="0.00" departDelay="0.50" arrival="57814.00" arrivalLane="-83304175#2_1" arrivalPos="189.34" arrivalSpeed="7.17" duration="61.00" routeLength="501.51" waitingTime="0.00" waitingCount="0" stopTime="0.00" timeLoss="7.19" rerouteNo="1" devices="tripinfo_carIn95310:1 routing_carIn95310:1" vType="default_016" speedFactor="0.88" vaporized=""/>
    <tripinfo id="carIn115169:1" depart="57759.00" departLane="24599188#0.94_1" departPos="5.10" departSpeed="0.00" departDelay="0.50" arrival="57815.00" arrivalLane="24693977#1_1" arrivalPos="96.83" arrivalSpeed="14.96" duration="56.00" routeLength="511.77" waitingTime="0.00" waitingCount="0" stopTime="0.00" timeLoss="13.16" rerouteNo="1" devices="tripinfo_carIn115169:1 routing_carIn115169:1" vType="default_016" speedFactor="1.12" vaporized=""/>
    <tripinfo id="carIn40211:1" depart="57756.00" departLane="27920078#0_1" departPos="5.10" departSpeed="0.00" departDelay="0.00" arrival="57816.00" arrivalLane="-83304175#2_1" arrivalPos="189.34" arrivalSpeed="8.23" duration="60.00" routeLength="501.51" waitingTime="0.00" waitingCount="0" stopTime="0.00" timeLoss="13.56" rerouteNo="1" devices="tripinfo_carIn40211:1 routing_carIn40211:1" vType="default_016" speedFactor="1.03" vaporized=""/>