<?xml version="1.0" encoding="UTF-8"?>

<!-- generated on 2023-08-31 12:45:38 by Eclipse SUMO libsumo Version 1.18.0
<configuration xmlns:xsi="http://www.w3.org/2001/XMLSchema-instance" xsi:noNamespaceSchemaLocation="http://sumo.dlr.de/xsd/libsumoConfiguration.xsd">

    <input>
        <net-file value="/home/stefan/RESCO/./environments/ingolstadt7/ingolstadt7.net.xml"/>
        <route-files value="/home/stefan/RESCO/./environments/ingolstadt7/ingolstadt7.rou.xml"/>
    </input>

    <output>
        <tripinfo-output value="/home/stefan/results/RAINBOW-tr0-ingolstadt7-7-drq_norm-wait_norm/tripinfo_75.xml"/>
        <tripinfo-output.write-unfinished value="true"/>
    </output>

    <time>
        <begin value="57600"/>
        <end value="61200"/>
    </time>

    <processing>
        <time-to-teleport value="-1"/>
    </processing>

    <report>
        <no-warnings value="True"/>
        <no-step-log value="True"/>
    </report>

    <random_number>
        <random value="true"/>
    </random_number>

</configuration>
-->

<tripinfos xmlns:xsi="http://www.w3.org/2001/XMLSchema-instance" xsi:noNamespaceSchemaLocation="http://sumo.dlr.de/xsd/tripinfo_file.xsd">
    <tripinfo id="carIn89578:1" depart="57614.00" departLane="124812856#0_1" departPos="5.10" departSpeed="0.00" departDelay="3.60" arrival="57631.00" arrivalLane="201956810_1" arrivalPos="71.65" arrivalSpeed="16.66" duration="17.00" routeLength="134.91" waitingTime="0.00" waitingCount="0" stopTime="0.00" timeLoss="8.84" rerouteNo="1" devices="tripinfo_carIn89578:1 routing_carIn89578:1" vType="default_016" speedFactor="1.27" vaporized=""/>
    <tripinfo id="carIn105842:1" depart="57601.00" departLane="653473569#5_1" departPos="5.10" departSpeed="0.00" departDelay="0.80" arrival="57645.00" arrivalLane="201956811#0_1" arrivalPos="40.40" arrivalSpeed="14.13" duration="44.00" routeLength="313.24" waitingTime="7.00" waitingCount="2" stopTime="0.00" timeLoss="21.18" rerouteNo="1" devices="tripinfo_carIn105842:1 routing_carIn105842:1" vType="default_016" speedFactor="1.03" vaporized=""/>
    <tripinfo id="carIn107084:1" depart="57601.00" departLane="124812856#0_1" departPos="5.10" departSpeed="0.00" departDelay="0.70" arrival="57645.00" arrivalLane="-653473569#5_1" arrivalPos="73.05" arrivalSpeed="11.67" duration="44.00" routeLength="450.40" waitingTime="0.00" waitingCount="0" stopTime="0.00" timeLoss="5.23" rerouteNo="1" devices="tripinfo_carIn107084:1 routing_carIn107084:1" vType="default_016" speedFactor="0.87" vaporized=""/>
    <tripinfo id="randUni10474:1" depart="57605.00" departLane="124812856#0_1" departPos="5.10" departSpeed="0.00" departDelay="0.20" arrival="57646.00" arrivalLane="-653473569#5_1" arrivalPos="73.05" arrivalSpeed="13.30" duration="41.00" routeLength="450.40" waitingTime="0.00" waitingCount="0" stopTime="0.00" timeLoss="12.79" rerouteNo="1" devices="tripinfo_randUni10474:1 routing_randUni10474:1" vType="random_016" speedFactor="1.18" vaporized=""/>
    <tripinfo id="carIn77943:1" depart="57608.00" departLane="124812856#0_1" departPos="5.10" departSpeed="0.00" departDelay="2.50" arrival="57649.00" arrivalLane="-653473569#5_1" arrivalPos="73.05" arrivalSpeed="14.30" duration="41.00" routeLength="450.40" waitingTime="0.00" waitingCount="0" stopTime="0.00" timeLoss="8.63" rerouteNo="1" devices="tripinfo_carIn77943:1 routing_carIn77943:1" vType="default_016" speedFactor="1.05" vaporized=""/>
    <tripinfo id="carIn81046:1" depart="57611.00" departLane="124812856#0_1" departPos="5.10" departSpeed="0.00" departDelay="2.50" arrival="57654.00" arrivalLane="-653473569#5_1" arrivalPos="73.05" arrivalSpeed="14.29" duration="43.00" routeLength="450.40" waitingTime="1.00" waitingCount="1" stopTime="0.00" timeLoss="10.71" rerouteNo="1" devices="tripinfo_carIn81046:1 routing_carIn81046:1" vType="default_016" speedFactor="1.03" vaporized=""/>
    <tripinfo id="carIn77438:1" depart="57618.00" departLane="124812856#0_1" departPos="5.10" departSpeed="0.00" departDelay="5.10" arrival="57656.00" arrivalLane="-653473569#5_1" arrivalPos="73.05" arrivalSpeed="14.98" duration="38.00" routeLength="450.40" waitingTime="0.00" waitingCount="0" stopTime="0.00" timeLoss="7.29" rerouteNo="1" devices="tripinfo_carIn77438:1 routing_carIn77438:1" vType="default_016" speedFactor="1.08" vaporized=""/>
    <tripinfo id="h20232c1:2" depart="57634.00" departLane="-173169611#0_1" departPos="5.10" departSpeed="0.00" departDelay="0.50" arrival="57656.00" arrivalLane="201956820_1" arrivalPos="48.33" arrivalSpeed="13.21" duration="22.00" routeLength="122.35" waitingTime="5.00" waitingCount="1" stopTime="0.00" timeLoss="12.05" rerouteNo="0" devices="tripinfo_h20232c1:2 routing_h20232c1:2" vType="default_016" speedFactor="1.01" vaporized=""/>
    <tripinfo id="carIn96537:1" depart="57615.00" departLane="124812856#0_1" departPos="5.10" departSpeed="0.00" departDelay="3.80" arrival="57666.00" arrivalLane="202070434#2_1" arrivalPos="39.03" arrivalSpeed="12.84" duration="51.00" routeLength="569.75" waitingTime="0.00" waitingCount="0" stopTime="0.00" timeLoss="9.21" rerouteNo="1" devices="tripinfo_carIn96537:1 routing_carIn96537:1" vType="default_016" speedFactor="0.99" vaporized=""/>
    <tripinfo id="carIn25202:1" depart="57629.00" departLane="315358253#1_1" departPos="5.10" departSpeed="0.00" departDelay="1.50" arrival="57669.00" arrivalLane="32978638#0_1" arrivalPos="49.29" arrivalSpeed="11.57" duration="40.00" routeLength="405.15" waitingTime="0.00" waitingCount="0" stopTime="0.00" timeLoss="6.10" rerouteNo="1" devices="tripinfo_carIn25202:1 routing_carIn25202:1" vType="default_016" speedFactor="0.89" vaporized=""/>
    <tripinfo id="carIn925:1" depart="57654.00" departLane="124812856#0_1" departPos="5.10" departSpeed="0.00" departDelay="27.90" arrival="57673.00" arrivalLane="201956810_1" arrivalPos="71.65" arrivalSpeed="13.00" duration="19.00" routeLength="134.91" waitingTime="0.00" waitingCount="0" stopTime="0.00" timeLoss="8.33" rerouteNo="1" devices="tripinfo_carIn925:1 routing_carIn925:1" vType="default_016" speedFactor="1.01" vaporized=""/>
    <tripinfo id="h19804c1:3" depart="57624.00" departLane="124812856#0_1" departPos="5.10" departSpeed="0.00" departDelay="8.50" arrival="57675.00" arrivalLane="-653473569#5_1" arrivalPos="73.05" arrivalSpeed="11.83" duration="51.00" routeLength="450.40" waitingTime="2.00" waitingCount="2" stopTime="0.00" timeLoss="13.33" rerouteNo="1" devices="tripinfo_h19804c1:3 routing_h19804c1:3" vType="default_016" speedFactor="0.89" vaporized=""/>
    <tripinfo id="carIn26410:1" depart="57621.00" departLane="124812856#0_1" departPos="5.10" departSpeed="0.00" departDelay="7.50" arrival="57676.00" arrivalLane="202070434#2_1" arrivalPos="39.03" arrivalSpeed="13.08" duration="55.00" routeLength="569.75" waitingTime="0.00" waitingCount="0" stopTime="0.00" timeLoss="10.83" rerouteNo="1" devices="tripinfo_carIn26410:1 routing_carIn26410:1" vType="default_016" speedFactor="0.94" vaporized=""/>
    <tripinfo id="carIn767:1" depart="57633.00" departLane="124812856#0_1" departPos="5.10" departSpeed="0.00" departDelay="14.50" arrival="57677.00" arrivalLane="-653473569#5_1" arrivalPos="73.05" arrivalSpeed="14.64" duration="44.00" routeLength="450.40" waitingTime="0.00" waitingCount="0" stopTime="0.00" timeLoss="12.18" rerouteNo="1" devices="tripinfo_carIn767:1 routing_carIn767:1" vType="default_016" speedFactor="1.06" vaporized=""/>
    <tripinfo id="carIn106322:1" depart="57614.00" departLane="653473569#5_1" departPos="5.10" departSpeed="0.00" departDelay="2.20" arrival="57679.00" arrivalLane="201956811#0_1" arrivalPos="40.40" arrivalSpeed="15.78" duration="65.00" routeLength="313.24" waitingTime="22.00" waitingCount="3" stopTime="0.00" timeLoss="44.31" rerouteNo="1" devices="tripinfo_carIn106322:1 routing_carIn106322:1" vType="default_016" speedFactor="1.17" vaporized=""/>
    <tripinfo id="carIn5482:1" depart="57617.00" departLane="653473569#5_1" departPos="5.10" departSpeed="0.00" departDelay="3.60" arrival="57681.00" arrivalLane="201956811#0_1" arrivalPos="40.40" arrivalSpeed="14.14" duration="64.00" routeLength="313.24" waitingTime="13.00" waitingCount="4" stopTime="0.00" timeLoss="41.14" rerouteNo="1" devices="tripinfo_carIn5482:1 routing_carIn5482:1" vType="default_016" speedFactor="1.06" vaporized=""/>
    <tripinfo id="carIn36103:1" depart="57620.00" departLane="653473569#5_1" departPos="5.10" departSpeed="0.00" departDelay="4.00" arrival="57682.00" arrivalLane="201956811#0_1" arrivalPos="40.40" arrivalSpeed="13.91" duration="62.00" routeLength="313.24" waitingTime="14.00" waitingCount="4" stopTime="0.00" timeLoss="39.20" rerouteNo="1" devices="tripinfo_carIn36103:1 routing_carIn36103:1" vType="default_016" speedFactor="1.02" vaporized=""/>
    <tripinfo id="carIn107842:1" depart="57639.00" departLane="124812856#0_1" departPos="5.10" departSpeed="0.00" departDelay="17.90" arrival="57685.00" arrivalLane="-653473569#5_1" arrivalPos="73.05" arrivalSpeed="11.80" duration="46.00" routeLength="450.40" waitingTime="0.00" waitingCount="0" stopTime="0.00" timeLoss="7.61" rerouteNo="1" devices="tripinfo_carIn107842:1 routing_carIn107842:1" vType="default_016" speedFactor="0.88" vaporized=""/>
    <tripinfo id="carIn51024:1" depart="57627.00" departLane="124812856#0_1" departPos="5.10" departSpeed="0.00" departDelay="10.90" arrival="57687.00" arrivalLane="202070434#2_1" arrivalPos="39.03" arrivalSpeed="11.02" duration="60.00" routeLength="569.75" waitingTime="2.00" waitingCount="1" stopTime="0.00" timeLoss="11.77" rerouteNo="1" devices="tripinfo_carIn51024:1 routing_carIn51024:1" vType="default_016" speedFactor="0.86" vaporized=""/>
    <tripinfo id="carIn3969:1" depart="57645.00" departLane="124812856#0_1" departPos="5.10" departSpeed="0.00" departDelay="21.30" arrival="57687.00" arrivalLane="-653473569#5_1" arrivalPos="73.05" arrivalSpeed="13.11" duration="42.00" routeLength="450.40" waitingTime="0.00" waitingCount="0" stopTime="0.00" timeLoss="7.27" rerouteNo="1" devices="tripinfo_carIn3969:1 routing_carIn3969:1" vType="default_016" speedFactor="0.97" vaporized=""/>
    <tripinfo id="carIn124416:1" depart="57663.00" departLane="-173169611#0_1" departPos="5.10" departSpeed="0.00" departDelay="0.50" arrival="57687.00" arrivalLane="201956820_1" arrivalPos="48.33" arrivalSpeed="11.95" duration="24.00" routeLength="122.35" waitingTime="4.00" waitingCount="1" stopTime="0.00" timeLoss="13.21" rerouteNo="0" devices="tripinfo_carIn124416:1 routing_carIn124416:1" vType="default_016" speedFactor="0.95" vaporized=""/>
    <tripinfo id="carIn33538:1" depart="57671.00" departLane="37386279_1" departPos="5.10" departSpeed="0.00" departDelay="0.30" arrival="57687.00" arrivalLane="-24634414#4_1" arrivalPos="22.88" arrivalSpeed="6.69" duration="16.00" routeLength="125.23" waitingTime="0.00" waitingCount="0" stopTime="0.00" timeLoss="4.01" rerouteNo="0" devices="tripinfo_carIn33538:1 routing_carIn33538:1" vType="default_016" speedFactor="0.94" vaporized=""/>
    <tripinfo id="carIn28488:1" depart="57611.00" departLane="653473569#5_1" departPos="5.10" departSpeed="0.00" departDelay="0.80" arrival="57690.00" arrivalLane="201956820_1" arrivalPos="48.33" arrivalSpeed="15.24" duration="79.00" routeLength="437.07" waitingTime="32.00" waitingCount="2" stopTime="0.00" timeLoss="51.09" rerouteNo="1" devices="tripinfo_carIn28488:1 routing_carIn28488:1" vType="default_016" speedFactor="1.16" vaporized=""/>
    <tripinfo id="carIn128705:1" depart="57630.00" departLane="124812856#0_1" departPos="5.10" departSpeed="0.00" departDelay="11.60" arrival="57690.00" arrivalLane="202070434#2_1" arrivalPos="39.03" arrivalSpeed="12.12" duration="60.00" routeLength="569.75" waitingTime="1.00" waitingCount="1" stopTime="0.00" timeLoss="16.16" rerouteNo="1" devices="tripinfo_carIn128705:1 routing_carIn128705:1" vType="default_016" speedFactor="0.95" vaporized=""/>
    <tripinfo id="h21989c1:1" depart="57636.00" departLane="124812856#0_1" departPos="5.10" departSpeed="0.00" departDelay="15.60" arrival="57696.00" arrivalLane="202070434#2_1" arrivalPos="39.03" arrivalSpeed="12.59" duration="60.00" routeLength="569.75" waitingTime="3.00" waitingCount="1" stopTime="0.00" timeLoss="18.31" rerouteNo="1" devices="tripinfo_h21989c1:1 routing_h21989c1:1" vType="default_016" speedFactor="0.99" vaporized=""/>
    <tripinfo id="carIn131078:1" depart="57679.00" departLane="124812856#0_1" departPos="5.10" departSpeed="0.00" departDelay="43.60" arrival="57696.00" arrivalLane="201956810_1" arrivalPos="71.65" arrivalSpeed="12.24" duration="17.00" routeLength="134.91" waitingTime="0.00" waitingCount="0" stopTime="0.00" timeLoss="6.05" rerouteNo="1" devices="tripinfo_carIn131078:1 routing_carIn131078:1" vType="default_016" speedFactor="0.97" vaporized=""/>
    <tripinfo id="carIn55461:1" depart="57652.00" departLane="10425609#0_1" departPos="5.10" departSpeed="0.00" departDelay="0.30" arrival="57700.00" arrivalLane="201956810_1" arrivalPos="71.65" arrivalSpeed="13.94" duration="48.00" routeLength="255.78" waitingTime="17.00" waitingCount="1" stopTime="0.00" timeLoss="29.33" rerouteNo="1" devices="tripinfo_carIn55461:1 routing_carIn55461:1" vType="default_016" speedFactor="1.06" vaporized=""/>
    <tripinfo id="carIn38625:1" depart="57651.00" departLane="124812856#0_1" departPos="5.10" departSpeed="0.00" departDelay="25.50" arrival="57705.00" arrivalLane="-653473569#5_1" arrivalPos="73.05" arrivalSpeed="11.17" duration="54.00" routeLength="450.40" waitingTime="7.00" waitingCount="1" stopTime="0.00" timeLoss="16.64" rerouteNo="1" devices="tripinfo_carIn38625:1 routing_carIn38625:1" vType="default_016" speedFactor="0.89" vaporized=""/>
    <tripinfo id="h15382c1:3" depart="57642.00" departLane="124812856#0_1" departPos="5.10" departSpeed="0.00" departDelay="19.80" arrival="57707.00" arrivalLane="-653473569#5_1" arrivalPos="73.05" arrivalSpeed="13.70" duration="65.00" routeLength="450.40" waitingTime="11.00" waitingCount="2" stopTime="0.00" timeLoss="33.18" rerouteNo="1" devices="tripinfo_h15382c1:3 routing_h15382c1:3" vType="default_016" speedFactor="1.06" vaporized=""/>
    <tripinfo id="carIn12900:1" depart="57698.00" departLane="124812856#0_1" departPos="5.10" departSpeed="0.00" departDelay="49.80" arrival="57714.00" arrivalLane="201956810_1" arrivalPos="71.65" arrivalSpeed="14.04" duration="16.00" routeLength="134.91" waitingTime="0.00" waitingCount="0" stopTime="0.00" timeLoss="4.97" rerouteNo="1" devices="tripinfo_carIn12900:1 routing_carIn12900:1" vType="default_016" speedFactor="1.03" vaporized=""/>
    <tripinfo id="h3688c1:1" depart="57679.00" departLane="315358253#1_1" departPos="5.10" departSpeed="0.00" departDelay="0.50" arrival="57715.00" arrivalLane="32978638#0_1" arrivalPos="49.29" arrivalSpeed="14.35" duration="36.00" routeLength="405.15" waitingTime="0.00" waitingCount="0" stopTime="0.00" timeLoss="7.64" rerouteNo="1" devices="tripinfo_h3688c1:1 routing_h3688c1:1" vType="default_016" speedFactor="1.09" vaporized=""/>
    <tripinfo id="carIn28951:1" depart="57606.00" departLane="10425609#0_1" departPos="5.10" departSpeed="0.00" departDelay="0.20" arrival="57716.00" arrivalLane="-653473569#5_1" arrivalPos="73.05" arrivalSpeed="12.31" duration="110.00" routeLength="312.95" waitingTime="69.00" waitingCount="2" stopTime="0.00" timeLoss="83.80" rerouteNo="1" devices="tripinfo_carIn28951:1 routing_carIn28951:1" vType="default_016" speedFactor="0.94" vaporized=""/>
    <tripinfo id="carIn56649:1" depart="57648.00" departLane="124812856#0_1" departPos="5.10" departSpeed="0.00" departDelay="24.10" arrival="57717.00" arrivalLane="-653473569#5_1" arrivalPos="73.05" arrivalSpeed="13.59" duration="69.00" routeLength="450.40" waitingTime="11.00" waitingCount="2" stopTime="0.00" timeLoss="35.49" rerouteNo="1" devices="tripinfo_carIn56649:1 routing_carIn56649:1" vType="default_016" speedFactor="0.99" vaporized=""/>
    <tripinfo id="carIn102997:1" depart="57623.00" departLane="653473569#5_1" departPos="5.10" departSpeed="0.00" departDelay="4.80" arrival="57720.00" arrivalLane="201956811#0_1" arrivalPos="40.40" arrivalSpeed="12.86" duration="97.00" routeLength="313.24" waitingTime="39.00" waitingCount="5" stopTime="0.00" timeLoss="71.82" rerouteNo="1" devices="tripinfo_carIn102997:1 routing_carIn102997:1" vType="default_016" speedFactor="0.97" vaporized=""/>
    <tripinfo id="carIn75554:1" depart="57626.00" departLane="653473569#5_1" departPos="5.10" departSpeed="0.00" departDelay="5.20" arrival="57722.00" arrivalLane="201956811#0_1" arrivalPos="40.40" arrivalSpeed="13.54" duration="96.00" routeLength="313.24" waitingTime="32.00" waitingCount="5" stopTime="0.00" timeLoss="70.89" rerouteNo="1" devices="tripinfo_carIn75554:1 routing_carIn75554:1" vType="default_016" speedFactor="0.97" vaporized=""/>
    <tripinfo id="randUni20090:1" depart="57629.00" departLane="653473569#5_1" departPos="5.10" departSpeed="0.00" departDelay="1.00" arrival="57724.00" arrivalLane="201956811#0_1" arrivalPos="40.40" arrivalSpeed="11.20" duration="95.00" routeLength="313.24" waitingTime="30.00" waitingCount="5" stopTime="0.00" timeLoss="67.44" rerouteNo="1" devices="tripinfo_randUni20090:1 routing_randUni20090:1" vType="random_016" speedFactor="0.87" vaporized=""/>
    <tripinfo id="carIn37268:1" depart="57636.00" departLane="653473569#5_1" departPos="5.10" departSpeed="0.00" departDelay="0.90" arrival="57726.00" arrivalLane="201956811#0_1" arrivalPos="40.40" arrivalSpeed="11.97" duration="90.00" routeLength="313.24" waitingTime="26.00" waitingCount="5" stopTime="0.00" timeLoss="63.33" rerouteNo="1" devices="tripinfo_carIn37268:1 routing_carIn37268:1" vType="default_016" speedFactor="0.89" vaporized=""/>
    <tripinfo id="carIn129760:1" depart="57661.00" departLane="653473569#5_1" departPos="5.10" departSpeed="0.00" departDelay="0.80" arrival="57729.00" arrivalLane="201956811#0_1" arrivalPos="40.40" arrivalSpeed="13.73" duration="68.00" routeLength="313.24" waitingTime="17.00" waitingCount="4" stopTime="0.00" timeLoss="44.15" rerouteNo="1" devices="tripinfo_carIn129760:1 routing_carIn129760:1" vType="default_016" speedFactor="0.99" vaporized=""/>
    <tripinfo id="carIn129626:1" depart="57664.00" departLane="653473569#5_1" departPos="5.10" departSpeed="0.00" departDelay="1.60" arrival="57732.00" arrivalLane="201956811#0_1" arrivalPos="40.40" arrivalSpeed="14.89" duration="68.00" routeLength="313.24" waitingTime="17.00" waitingCount="3" stopTime="0.00" timeLoss="47.71" rerouteNo="1" devices="tripinfo_carIn129626:1 routing_carIn129626:1" vType="default_016" speedFactor="1.16" vaporized=""/>
    <tripinfo id="h20539c1:3" depart="57667.00" departLane="653473569#5_1" departPos="5.10" departSpeed="0.00" departDelay="2.20" arrival="57734.00" arrivalLane="201956811#0_1" arrivalPos="40.40" arrivalSpeed="14.56" duration="67.00" routeLength="313.24" waitingTime="14.00" waitingCount="2" stopTime="0.00" timeLoss="45.36" rerouteNo="1" devices="tripinfo_h20539c1:3 routing_h20539c1:3" vType="default_016" speedFactor="1.12" vaporized=""/>
    <tripinfo id="carIn17767:1" depart="57655.00" departLane="124812856#0_1" departPos="5.10" departSpeed="0.00" departDelay="27.80" arrival="57735.00" arrivalLane="-653473569#5_1" arrivalPos="73.05" arrivalSpeed="13.65" duration="80.00" routeLength="450.40" waitingTime="22.00" waitingCount="3" stopTime="0.00" timeLoss="45.71" rerouteNo="1" devices="tripinfo_carIn17767:1 routing_carIn17767:1" vType="default_016" speedFactor="0.98" vaporized=""/>
    <tripinfo id="carIn64859:1" depart="57658.00" departLane="124812856#0_1" departPos="5.10" departSpeed="0.00" departDelay="29.60" arrival="57737.00" arrivalLane="-653473569#5_1" arrivalPos="73.05" arrivalSpeed="13.82" duration="79.00" routeLength="450.40" waitingTime="19.00" waitingCount="3" stopTime="0.00" timeLoss="45.35" rerouteNo="1" devices="tripinfo_carIn64859:1 routing_carIn64859:1" vType="default_016" speedFactor="1.00" vaporized=""/>
    <tripinfo id="carIn91254:1" depart="57696.00" departLane="653473569#5_1" departPos="5.10" departSpeed="0.00" departDelay="0.10" arrival="57738.00" arrivalLane="201956811#0_1" arrivalPos="40.40" arrivalSpeed="14.25" duration="42.00" routeLength="313.24" waitingTime="5.00" waitingCount="1" stopTime="0.00" timeLoss="18.30" rerouteNo="1" devices="tripinfo_carIn91254:1 routing_carIn91254:1" vType="default_016" speedFactor="1.03" vaporized=""/>
    <tripinfo id="h317c2:1" depart="57707.00" departLane="-32978638#0_1" departPos="5.10" departSpeed="0.00" departDelay="0.10" arrival="57739.00" arrivalLane="-266565295#5_1" arrivalPos="172.76" arrivalSpeed="14.34" duration="32.00" routeLength="370.53" waitingTime="0.00" waitingCount="0" stopTime="0.00" timeLoss="6.95" rerouteNo="1" devices="tripinfo_h317c2:1 routing_h317c2:1" vType="default_016" speedFactor="1.10" vaporized=""/>
    <tripinfo id="carIn48979:1" depart="57661.00" departLane="124812856#0_1" departPos="5.10" departSpeed="0.00" departDelay="32.10" arrival="57745.00" arrivalLane="-653473569#5_1" arrivalPos="73.05" arrivalSpeed="13.09" duration="84.00" routeLength="450.40" waitingTime="18.00" waitingCount="3" stopTime="0.00" timeLoss="48.86" rerouteNo="1" devices="tripinfo_carIn48979:1 routing_carIn48979:1" vType="default_016" speedFactor="0.95" vaporized=""/>
    <tripinfo id="carIn100220:1" depart="57689.00" departLane="124812856#0_1" departPos="5.10" departSpeed="0.00" departDelay="50.00" arrival="57746.00" arrivalLane="202070434#2_1" arrivalPos="39.03" arrivalSpeed="13.59" duration="57.00" routeLength="569.75" waitingTime="2.00" waitingCount="1" stopTime="0.00" timeLoss="15.31" rerouteNo="1" devices="tripinfo_carIn100220:1 routing_carIn100220:1" vType="default_016" speedFactor="0.99" vaporized=""/>
    <tripinfo id="h15353c2:1" depart="57667.00" departLane="124812856#0_1" departPos="5.10" departSpeed="0.00" departDelay="36.30" arrival="57748.00" arrivalLane="-653473569#5_1" arrivalPos="73.05" arrivalSpeed="11.10" duration="81.00" routeLength="450.40" waitingTime="15.00" waitingCount="3" stopTime="0.00" timeLoss="42.65" rerouteNo="1" devices="tripinfo_h15353c2:1 routing_h15353c2:1" vType="default_016" speedFactor="0.88" vaporized=""/>
    <tripinfo id="carIn13362:1" depart="57680.00" departLane="124812856#0_1" departPos="5.10" departSpeed="0.00" departDelay="44.40" arrival="57755.00" arrivalLane="-653473569#5_1" arrivalPos="73.05" arrivalSpeed="12.34" duration="75.00" routeLength="450.40" waitingTime="11.00" waitingCount="2" stopTime="0.00" timeLoss="40.05" rerouteNo="1" devices="tripinfo_carIn13362:1 routing_carIn13362:1" vType="default_016" speedFactor="0.96" vaporized=""/>
    <tripinfo id="carIn44740:1" depart="57670.00" departLane="124812856#0_1" departPos="5.10" departSpeed="0.00" departDelay="37.70" arrival="57756.00" arrivalLane="-653473569#5_1" arrivalPos="73.05" arrivalSpeed="13.68" duration="86.00" routeLength="450.40" waitingTime="12.00" waitingCount="3" stopTime="0.00" timeLoss="54.63" rerouteNo="1" devices="tripinfo_carIn44740:1 routing_carIn44740:1" vType="default_016" speedFactor="1.05" vaporized=""/>
    <tripinfo id="randUni22709:1" depart="57718.00" departLane="315358253#1_1" departPos="5.10" departSpeed="0.00" departDelay="0.20" arrival="57757.00" arrivalLane="32978638#0_1" arrivalPos="49.29" arrivalSpeed="12.53" duration="39.00" routeLength="405.15" waitingTime="0.00" waitingCount="0" stopTime="0.00" timeLoss="6.78" rerouteNo="1" devices="tripinfo_randUni22709:1 routing_randUni22709:1" vType="random_016" speedFactor="0.96" vaporized=""/>
    <tripinfo id="h134c1:3" depart="57721.00" departLane="315358253#1_1" departPos="5.10" departSpeed="0.00" departDelay="1.60" arrival="57758.00" arrivalLane="32978638#0_1" arrivalPos="49.29" arrivalSpeed="13.32" duration="37.00" routeLength="405.15" waitingTime="0.00" waitingCount="0" stopTime="0.00" timeLoss="10.02" rerouteNo="1" devices="tripinfo_h134c1:3 routing_h134c1:3" vType="default_016" speedFactor="1.12" vaporized=""/>
    <tripinfo id="carIn99509:1" depart="57720.00" departLane="-32978638#0_1" departPos="5.10" departSpeed="0.00" departDelay="0.20" arrival="57760.00" arrivalLane="-315358253#1_1" arrivalPos="63.90" arrivalSpeed="12.55" duration="40.00" routeLength="422.17" waitingTime="0.00" waitingCount="0" stopTime="0.00" timeLoss="7.12" rerouteNo="1" devices="tripinfo_carIn99509:1 routing_carIn99509:1" vType="default_015" speedFactor="0.96" vaporized=""/>
    <tripinfo id="carIn106797:1" depart="57726.00" departLane="653473569#5_1" departPos="5.10" departSpeed="0.00" departDelay="1.00" arrival="57762.00" arrivalLane="201956811#0_1" arrivalPos="40.40" arrivalSpeed="10.94" duration="36.00" routeLength="313.24" waitingTime="0.00" waitingCount="0" stopTime="0.00" timeLoss="8.93" rerouteNo="1" devices="tripinfo_carIn106797:1 routing_carIn106797:1" vType="default_016" speedFactor="0.88" vaporized=""/>
    <tripinfo id="carIn88932:1" depart="57664.00" departLane="124812856#0_1" departPos="5.10" departSpeed="0.00" departDelay="33.40" arrival="57765.00" arrivalLane="-653473569#5_1" arrivalPos="73.05" arrivalSpeed="12.59" duration="101.00" routeLength="450.40" waitingTime="14.00" waitingCount="4" stopTime="0.00" timeLoss="64.41" rerouteNo="1" devices="tripinfo_carIn88932:1 routing_carIn88932:1" vType="default_016" speedFactor="0.91" vaporized=""/>
    <tripinfo id="carIn55090:1" depart="57666.00" departLane="-173169611#0_1" departPos="5.10" departSpeed="0.00" departDelay="1.40" arrival="57766.00" arrivalLane="201956820_1" arrivalPos="48.33" arrivalSpeed="12.07" duration="100.00" routeLength="122.35" waitingTime="77.00" waitingCount="2" stopTime="0.00" timeLoss="89.60" rerouteNo="0" devices="tripinfo_carIn55090:1 routing_carIn55090:1" vType="default_016" speedFactor="0.93" vaporized=""/>
    <tripinfo id="h15454c2:3" depart="57612.00" departLane="24608844_1" departPos="5.10" departSpeed="0.00" departDelay="0.50" arrival="57767.00" arrivalLane="32978638#0_1" arrivalPos="49.29" arrivalSpeed="13.30" duration="155.00" routeLength="354.79" waitingTime="111.00" waitingCount="1" stopTime="0.00" timeLoss="120.81" rerouteNo="1" devices="tripinfo_h15454c2:3 routing_h15454c2:3" vType="default_016" speedFactor="1.02" vaporized=""/>
    <tripinfo id="carIn64490:1" depart="57676.00" departLane="124812856#0_1" departPos="5.10" departSpeed="0.00" departDelay="42.10" arrival="57767.00" arrivalLane="-653473569#5_1" arrivalPos="73.05" arrivalSpeed="13.87" duration="91.00" routeLength="450.40" waitingTime="10.00" waitingCount="2" stopTime="0.00" timeLoss="58.22" rerouteNo="1" devices="tripinfo_carIn64490:1 routing_carIn64490:1" vType="default_016" speedFactor="1.03" vaporized=""/>
    <tripinfo id="carIn12152:1" depart="57647.00" departLane="24599188#0.94_1" departPos="5.10" departSpeed="0.00" departDelay="0.50" arrival="57769.00" arrivalLane="24693977#1_1" arrivalPos="96.83" arrivalSpeed="14.58" duration="122.00" routeLength="511.77" waitingTime="61.00" waitingCount="1" stopTime="0.00" timeLoss="76.65" rerouteNo="1" devices="tripinfo_carIn12152:1 routing_carIn12152:1" vType="default_016" speedFactor="1.06" vaporized=""/>
    <tripinfo id="carIn74045:1" depart="57724.00" departLane="315358253#1_1" departPos="5.10" departSpeed="0.00" departDelay="3.00" arrival="57770.00" arrivalLane="32978638#0_1" arrivalPos="49.29" arrivalSpeed="12.86" duration="46.00" routeLength="405.15" waitingTime="4.00" waitingCount="1" stopTime="0.00" timeLoss="15.56" rerouteNo="1" devices="tripinfo_carIn74045:1 routing_carIn74045:1" vType="default_016" speedFactor="1.00" vaporized=""/>
    <tripinfo id="carIn26708:1" depart="57729.00" departLane="653473569#5_1" departPos="5.10" departSpeed="0.00" departDelay="2.40" arrival="57770.00" arrivalLane="201956811#0_1" arrivalPos="40.40" arrivalSpeed="13.98" duration="41.00" routeLength="313.24" waitingTime="5.00" waitingCount="1" stopTime="0.00" timeLoss="18.53" rerouteNo="1" devices="tripinfo_carIn26708:1 routing_carIn26708:1" vType="default_016" speedFactor="1.07" vaporized=""/>
    <tripinfo id="h330c1:1" depart="57736.00" departLane="-32978638#0_1" departPos="5.10" departSpeed="0.00" departDelay="0.20" arrival="57771.00" arrivalLane="-266565295#5_1" arrivalPos="172.76" arrivalSpeed="12.71" duration="35.00" routeLength="370.53" waitingTime="0.00" waitingCount="0" stopTime="0.00" timeLoss="5.75" rerouteNo="1" devices="tripinfo_h330c1:1 routing_h330c1:1" vType="default_016" speedFactor="0.94" vaporized=""/>
    <tripinfo id="randUni29093:1" depart="57673.00" departLane="124812856#0_1" departPos="5.10" departSpeed="0.00" departDelay="40.00" arrival="57774.00" arrivalLane="-653473569#5_1" arrivalPos="73.05" arrivalSpeed="12.75" duration="101.00" routeLength="450.40" waitingTime="15.00" waitingCount="4" stopTime="0.00" timeLoss="68.07" rerouteNo="1" devices="tripinfo_randUni29093:1 routing_randUni29093:1" vType="random_016" speedFactor="1.00" vaporized=""/>
    <tripinfo id="carIn99385:1" depart="57683.00" departLane="124812856#0_1" departPos="5.10" departSpeed="0.00" departDelay="45.90" arrival="57777.00" arrivalLane="-653473569#5_1" arrivalPos="73.05" arrivalSpeed="12.92" duration="94.00" routeLength="450.40" waitingTime="9.00" waitingCount="3" stopTime="0.00" timeLoss="58.30" rerouteNo="1" devices="tripinfo_carIn99385:1 routing_carIn99385:1" vType="default_016" speedFactor="0.94" vaporized=""/>
    <tripinfo id="11_frequency1.42" depart="57739.00" departLane="315358253#1_1" departPos="12.10" departSpeed="0.00" departDelay="0.30" arrival="57780.00" arrivalLane="32978638#0_1" arrivalPos="49.29" arrivalSpeed="13.55" duration="41.00" routeLength="398.15" waitingTime="0.00" waitingCount="0" stopTime="0.00" timeLoss="10.70" rerouteNo="1" devices="tripinfo_11_frequency1.42 routing_11_frequency1.42" vType="bus" speedFactor="1.00" vaporized=""/>