<?xml version="1.0" encoding="UTF-8"?>

<!-- generated on 2023-08-31 12:46:30 by Eclipse SUMO libsumo Version 1.18.0
<configuration xmlns:xsi="http://www.w3.org/2001/XMLSchema-instance" xsi:noNamespaceSchemaLocation="http://sumo.dlr.de/xsd/libsumoConfiguration.xsd">

    <input>
        <net-file value="/home/stefan/RESCO/./environments/ingolstadt7/ingolstadt7.net.xml"/>
        <route-files value="/home/stefan/RESCO/./environments/ingolstadt7/ingolstadt7.rou.xml"/>
    </input>

    <output>
        <tripinfo-output value="/home/stefan/results/RAINBOW-tr0-ingolstadt7-7-drq_norm-wait_norm/tripinfo_77.xml"/>
        <tripinfo-output.write-unfinished value="true"/>
    </output>

    <time>
        <begin value="57600"/>
        <end value="61200"/>
    </time>

    <processing>
        <time-to-teleport value="-1"/>
    </processing>

    <report>
        <no-warnings value="True"/>
        <no-step-log value="True"/>
    </report>

    <random_number>
        <random value="true"/>
    </random_number>

</configuration>
-->

<tripinfos xmlns:xsi="http://www.w3.org/2001/XMLSchema-instance" xsi:noNamespaceSchemaLocation="http://sumo.dlr.de/xsd/tripinfo_file.xsd">
    <tripinfo id="carIn105842:1" depart="57601.00" departLane="653473569#5_1" departPos="5.10" departSpeed="0.00" departDelay="0.80" arrival="57630.00" arrivalLane="201956811#0_1" arrivalPos="40.40" arrivalSpeed="13.67" duration="29.00" routeLength="313.24" waitingTime="0.00" waitingCount="0" stopTime="0.00" timeLoss="6.53" rerouteNo="1" devices="tripinfo_carIn105842:1 routing_carIn105842:1" vType="default_016" speedFactor="1.04" vaporized=""/>
    <tripinfo id="carIn89578:1" depart="57614.00" departLane="124812856#0_1" departPos="5.10" departSpeed="0.00" departDelay="3.60" arrival="57632.00" arrivalLane="201956810_1" arrivalPos="71.65" arrivalSpeed="12.29" duration="18.00" routeLength="134.91" waitingTime="0.00" waitingCount="0" stopTime="0.00" timeLoss="6.86" rerouteNo="1" devices="tripinfo_carIn89578:1 routing_carIn89578:1" vType="default_016" speedFactor="0.95" vaporized=""/>
    <tripinfo id="h20232c1:2" depart="57634.00" departLane="-173169611#0_1" departPos="5.10" departSpeed="0.00" departDelay="0.50" arrival="57656.00" arrivalLane="201956820_1" arrivalPos="48.33" arrivalSpeed="14.26" duration="22.00" routeLength="122.35" waitingTime="3.00" waitingCount="1" stopTime="0.00" timeLoss="12.55" rerouteNo="0" devices="tripinfo_h20232c1:2 routing_h20232c1:2" vType="default_016" speedFactor="1.05" vaporized=""/>
    <tripinfo id="carIn25202:1" depart="57629.00" departLane="315358253#1_1" departPos="5.10" departSpeed="0.00" departDelay="1.50" arrival="57663.00" arrivalLane="32978638#0_1" arrivalPos="49.29" arrivalSpeed="15.04" duration="34.00" routeLength="405.15" waitingTime="0.00" waitingCount="0" stopTime="0.00" timeLoss="7.31" rerouteNo="1" devices="tripinfo_carIn25202:1 routing_carIn25202:1" vType="default_016" speedFactor="1.13" vaporized=""/>
    <tripinfo id="carIn106322:1" depart="57614.00" departLane="653473569#5_1" departPos="5.10" departSpeed="0.00" departDelay="2.20" arrival="57664.00" arrivalLane="201956811#0_1" arrivalPos="40.40" arrivalSpeed="14.00" duration="50.00" routeLength="313.24" waitingTime="17.00" waitingCount="1" stopTime="0.00" timeLoss="28.67" rerouteNo="1" devices="tripinfo_carIn106322:1 routing_carIn106322:1" vType="default_016" speedFactor="1.11" vaporized=""/>
    <tripinfo id="carIn925:1" depart="57653.00" departLane="124812856#0_1" departPos="5.10" departSpeed="0.00" departDelay="26.90" arrival="57675.00" arrivalLane="201956810_1" arrivalPos="71.65" arrivalSpeed="12.81" duration="22.00" routeLength="134.91" waitingTime="2.00" waitingCount="1" stopTime="0.00" timeLoss="11.40" rerouteNo="1" devices="tripinfo_carIn925:1 routing_carIn925:1" vType="default_016" speedFactor="0.99" vaporized=""/>
    <tripinfo id="carIn5482:1" depart="57617.00" departLane="653473569#5_1" departPos="5.10" departSpeed="0.00" departDelay="3.60" arrival="57677.00" arrivalLane="201956811#0_1" arrivalPos="40.40" arrivalSpeed="12.11" duration="60.00" routeLength="313.24" waitingTime="20.00" waitingCount="2" stopTime="0.00" timeLoss="33.17" rerouteNo="1" devices="tripinfo_carIn5482:1 routing_carIn5482:1" vType="default_016" speedFactor="0.90" vaporized=""/>
    <tripinfo id="carIn124416:1" depart="57663.00" departLane="-173169611#0_1" departPos="5.10" departSpeed="0.00" departDelay="0.50" arrival="57685.00" arrivalLane="201956820_1" arrivalPos="48.33" arrivalSpeed="14.71" duration="22.00" routeLength="122.35" waitingTime="4.00" waitingCount="1" stopTime="0.00" timeLoss="13.28" rerouteNo="0" devices="tripinfo_carIn124416:1 routing_carIn124416:1" vType="default_016" speedFactor="1.10" vaporized=""/>
    <tripinfo id="carIn33538:1" depart="57671.00" departLane="37386279_1" departPos="5.10" departSpeed="0.00" departDelay="0.30" arrival="57687.00" arrivalLane="-24634414#4_1" arrivalPos="22.88" arrivalSpeed="7.71" duration="16.00" routeLength="125.23" waitingTime="0.00" waitingCount="0" stopTime="0.00" timeLoss="4.09" rerouteNo="0" devices="tripinfo_carIn33538:1 routing_carIn33538:1" vType="default_016" speedFactor="0.95" vaporized=""/>
    <tripinfo id="carIn55090:1" depart="57666.00" departLane="-173169611#0_1" departPos="5.10" departSpeed="0.00" departDelay="1.40" arrival="57696.00" arrivalLane="201956820_1" arrivalPos="48.33" arrivalSpeed="13.24" duration="30.00" routeLength="122.35" waitingTime="6.00" waitingCount="2" stopTime="0.00" timeLoss="20.06" rerouteNo="0" devices="tripinfo_carIn55090:1 routing_carIn55090:1" vType="default_016" speedFactor="1.00" vaporized=""/>
    <tripinfo id="carIn36103:1" depart="57620.00" departLane="653473569#5_1" departPos="5.10" departSpeed="0.00" departDelay="4.00" arrival="57704.00" arrivalLane="201956811#0_1" arrivalPos="40.40" arrivalSpeed="14.30" duration="84.00" routeLength="313.24" waitingTime="40.00" waitingCount="3" stopTime="0.00" timeLoss="61.20" rerouteNo="1" devices="tripinfo_carIn36103:1 routing_carIn36103:1" vType="default_016" speedFactor="1.06" vaporized=""/>
    <tripinfo id="carIn22637:1" depart="57635.00" departLane="27920078#0_1" departPos="5.10" departSpeed="0.00" departDelay="2.50" arrival="57704.00" arrivalLane="-83304175#2_1" arrivalPos="189.34" arrivalSpeed="7.37" duration="69.00" routeLength="501.51" waitingTime="5.00" waitingCount="1" stopTime="0.00" timeLoss="20.37" rerouteNo="1" devices="tripinfo_carIn22637:1 routing_carIn22637:1" vType="default_016" speedFactor="0.97" vaporized=""/>
    <tripinfo id="carIn114137:1" depart="57634.00" departLane="27920078#0_1" departPos="5.10" departSpeed="0.00" departDelay="3.10" arrival="57709.00" arrivalLane="-83304175#2_1" arrivalPos="189.34" arrivalSpeed="6.76" duration="75.00" routeLength="501.51" waitingTime="5.00" waitingCount="1" stopTime="0.00" timeLoss="23.41" rerouteNo="1" devices="tripinfo_carIn114137:1 routing_carIn114137:1" vType="default_016" speedFactor="0.92" vaporized=""/>
    <tripinfo id="h3688c1:1" depart="57679.00" departLane="315358253#1_1" departPos="5.10" departSpeed="0.00" departDelay="0.50" arrival="57712.00" arrivalLane="32978638#0_1" arrivalPos="49.29" arrivalSpeed="15.74" duration="33.00" routeLength="405.15" waitingTime="0.00" waitingCount="0" stopTime="0.00" timeLoss="7.29" rerouteNo="1" devices="tripinfo_h3688c1:1 routing_h3688c1:1" vType="default_016" speedFactor="1.21" vaporized=""/>
    <tripinfo id="carIn102997:1" depart="57623.00" departLane="653473569#5_1" departPos="5.10" departSpeed="0.00" departDelay="4.80" arrival="57714.00" arrivalLane="201956811#0_1" arrivalPos="40.40" arrivalSpeed="12.22" duration="91.00" routeLength="313.24" waitingTime="39.00" waitingCount="4" stopTime="0.00" timeLoss="64.46" rerouteNo="1" devices="tripinfo_carIn102997:1 routing_carIn102997:1" vType="default_016" speedFactor="0.89" vaporized=""/>
    <tripinfo id="carIn75554:1" depart="57626.00" departLane="653473569#5_1" departPos="5.10" departSpeed="0.00" departDelay="5.20" arrival="57716.00" arrivalLane="201956811#0_1" arrivalPos="40.40" arrivalSpeed="14.33" duration="90.00" routeLength="313.24" waitingTime="33.00" waitingCount="4" stopTime="0.00" timeLoss="67.67" rerouteNo="1" devices="tripinfo_carIn75554:1 routing_carIn75554:1" vType="default_016" speedFactor="1.10" vaporized=""/>
    <tripinfo id="carIn131078:1" depart="57678.00" departLane="124812856#0_1" departPos="5.10" departSpeed="0.00" departDelay="42.60" arrival="57717.00" arrivalLane="201956810_1" arrivalPos="71.65" arrivalSpeed="13.73" duration="39.00" routeLength="134.91" waitingTime="5.00" waitingCount="2" stopTime="0.00" timeLoss="28.62" rerouteNo="1" devices="tripinfo_carIn131078:1 routing_carIn131078:1" vType="default_016" speedFactor="1.06" vaporized=""/>
    <tripinfo id="randUni20090:1" depart="57629.00" departLane="653473569#5_1" departPos="5.10" departSpeed="0.00" departDelay="1.00" arrival="57718.00" arrivalLane="201956811#0_1" arrivalPos="40.40" arrivalSpeed="14.86" duration="89.00" routeLength="313.24" waitingTime="31.00" waitingCount="5" stopTime="0.00" timeLoss="68.87" rerouteNo="1" devices="tripinfo_randUni20090:1 routing_randUni20090:1" vType="random_016" speedFactor="1.18" vaporized=""/>
    <tripinfo id="carIn107084:1" depart="57601.00" departLane="124812856#0_1" departPos="5.10" departSpeed="0.00" departDelay="0.70" arrival="57722.00" arrivalLane="-653473569#5_1" arrivalPos="73.05" arrivalSpeed="14.07" duration="121.00" routeLength="450.40" waitingTime="74.00" waitingCount="2" stopTime="0.00" timeLoss="88.27" rerouteNo="1" devices="tripinfo_carIn107084:1 routing_carIn107084:1" vType="default_016" speedFactor="1.02" vaporized=""/>
    <tripinfo id="carIn28951:1" depart="57606.00" departLane="10425609#0_1" departPos="5.10" departSpeed="0.00" departDelay="0.20" arrival="57724.00" arrivalLane="-653473569#5_1" arrivalPos="73.05" arrivalSpeed="14.57" duration="118.00" routeLength="312.95" waitingTime="74.00" waitingCount="3" stopTime="0.00" timeLoss="95.67" rerouteNo="1" devices="tripinfo_carIn28951:1 routing_carIn28951:1" vType="default_016" speedFactor="1.08" vaporized=""/>
    <tripinfo id="carIn37268:1" depart="57636.00" departLane="653473569#5_1" departPos="5.10" departSpeed="0.00" departDelay="0.90" arrival="57725.00" arrivalLane="201956811#0_1" arrivalPos="40.40" arrivalSpeed="14.87" duration="89.00" routeLength="313.24" waitingTime="29.00" waitingCount="4" stopTime="0.00" timeLoss="68.30" rerouteNo="1" devices="tripinfo_carIn37268:1 routing_carIn37268:1" vType="default_016" speedFactor="1.13" vaporized=""/>
    <tripinfo id="carIn96537:1" depart="57615.00" departLane="124812856#0_1" departPos="5.10" departSpeed="0.00" departDelay="3.80" arrival="57726.00" arrivalLane="202070434#2_1" arrivalPos="39.03" arrivalSpeed="12.63" duration="111.00" routeLength="569.75" waitingTime="52.00" waitingCount="1" stopTime="0.00" timeLoss="68.02" rerouteNo="1" devices="tripinfo_carIn96537:1 routing_carIn96537:1" vType="default_016" speedFactor="0.96" vaporized=""/>
    <tripinfo id="carIn129760:1" depart="57661.00" departLane="653473569#5_1" departPos="5.10" departSpeed="0.00" departDelay="0.80" arrival="57727.00" arrivalLane="201956811#0_1" arrivalPos="40.40" arrivalSpeed="14.02" duration="66.00" routeLength="313.24" waitingTime="17.00" waitingCount="2" stopTime="0.00" timeLoss="44.56" rerouteNo="1" devices="tripinfo_carIn129760:1 routing_carIn129760:1" vType="default_016" speedFactor="1.09" vaporized=""/>
    <tripinfo id="carIn26410:1" depart="57621.00" departLane="124812856#0_1" departPos="5.10" departSpeed="0.00" departDelay="7.50" arrival="57728.00" arrivalLane="202070434#2_1" arrivalPos="39.03" arrivalSpeed="13.93" duration="107.00" routeLength="569.75" waitingTime="46.00" waitingCount="2" stopTime="0.00" timeLoss="68.11" rerouteNo="1" devices="tripinfo_carIn26410:1 routing_carIn26410:1" vType="default_016" speedFactor="1.07" vaporized=""/>
    <tripinfo id="carIn7887:1" depart="57661.00" departLane="27920078#0_1" departPos="5.10" departSpeed="0.00" departDelay="0.50" arrival="57730.00" arrivalLane="-83304175#2_1" arrivalPos="189.34" arrivalSpeed="8.42" duration="69.00" routeLength="501.51" waitingTime="11.00" waitingCount="1" stopTime="0.00" timeLoss="22.54" rerouteNo="1" devices="tripinfo_carIn7887:1 routing_carIn7887:1" vType="default_016" speedFactor="1.02" vaporized=""/>
    <tripinfo id="carIn128705:1" depart="57630.00" departLane="124812856#0_1" departPos="5.10" departSpeed="0.00" departDelay="11.60" arrival="57732.00" arrivalLane="202070434#2_1" arrivalPos="39.03" arrivalSpeed="11.87" duration="102.00" routeLength="569.75" waitingTime="32.00" waitingCount="3" stopTime="0.00" timeLoss="57.59" rerouteNo="1" devices="tripinfo_carIn128705:1 routing_carIn128705:1" vType="default_016" speedFactor="0.93" vaporized=""/>
    <tripinfo id="carIn12900:1" depart="57696.00" departLane="124812856#0_1" departPos="5.10" departSpeed="0.00" departDelay="47.80" arrival="57733.00" arrivalLane="201956810_1" arrivalPos="71.65" arrivalSpeed="11.17" duration="37.00" routeLength="134.91" waitingTime="7.00" waitingCount="2" stopTime="0.00" timeLoss="24.82" rerouteNo="1" devices="tripinfo_carIn12900:1 routing_carIn12900:1" vType="default_016" speedFactor="0.87" vaporized=""/>
    <tripinfo id="carIn129626:1" depart="57664.00" departLane="653473569#5_1" departPos="5.10" departSpeed="0.00" departDelay="1.60" arrival="57737.00" arrivalLane="201956811#0_1" arrivalPos="40.40" arrivalSpeed="12.95" duration="73.00" routeLength="313.24" waitingTime="17.00" waitingCount="3" stopTime="0.00" timeLoss="48.84" rerouteNo="1" devices="tripinfo_carIn129626:1 routing_carIn129626:1" vType="default_016" speedFactor="0.98" vaporized=""/>
    <tripinfo id="h20539c1:3" depart="57667.00" departLane="653473569#5_1" departPos="5.10" departSpeed="0.00" departDelay="2.20" arrival="57739.00" arrivalLane="201956811#0_1" arrivalPos="40.40" arrivalSpeed="14.26" duration="72.00" routeLength="313.24" waitingTime="15.00" waitingCount="2" stopTime="0.00" timeLoss="49.36" rerouteNo="1" devices="tripinfo_h20539c1:3 routing_h20539c1:3" vType="default_016" speedFactor="1.08" vaporized=""/>
    <tripinfo id="carIn91254:1" depart="57696.00" departLane="653473569#5_1" departPos="5.10" departSpeed="0.00" departDelay="0.10" arrival="57741.00" arrivalLane="201956811#0_1" arrivalPos="40.40" arrivalSpeed="14.23" duration="45.00" routeLength="313.24" waitingTime="1.00" waitingCount="1" stopTime="0.00" timeLoss="21.78" rerouteNo="1" devices="tripinfo_carIn91254:1 routing_carIn91254:1" vType="default_016" speedFactor="1.04" vaporized=""/>
    <tripinfo id="60R.41" depart="57623.00" departLane="27920078#0_1" departPos="12.10" departSpeed="0.00" departDelay="0.30" arrival="57747.00" arrivalLane="201956811#0_1" arrivalPos="40.40" arrivalSpeed="11.28" duration="124.00" routeLength="425.03" waitingTime="55.00" waitingCount="1" stopTime="0.00" timeLoss="92.44" rerouteNo="1" devices="tripinfo_60R.41 routing_60R.41" vType="bus" speedFactor="1.00" vaporized=""/>
    <tripinfo id="h317c2:1" depart="57707.00" departLane="-32978638#0_1" departPos="5.10" departSpeed="0.00" departDelay="0.10" arrival="57748.00" arrivalLane="-266565295#5_1" arrivalPos="172.76" arrivalSpeed="11.00" duration="41.00" routeLength="370.53" waitingTime="0.00" waitingCount="0" stopTime="0.00" timeLoss="6.14" rerouteNo="1" devices="tripinfo_h317c2:1 routing_h317c2:1" vType="default_016" speedFactor="0.80" vaporized=""/>
    <tripinfo id="carIn102740:1" depart="57667.00" departLane="25145012#7_1" departPos="5.10" departSpeed="0.00" departDelay="0.00" arrival="57751.00" arrivalLane="201956811#0_1" arrivalPos="40.40" arrivalSpeed="13.31" duration="84.00" routeLength="384.54" waitingTime="20.00" waitingCount="2" stopTime="0.00" timeLoss="55.52" rerouteNo="1" devices="tripinfo_carIn102740:1 routing_carIn102740:1" vType="default_016" speedFactor="1.00" vaporized=""/>
    <tripinfo id="carIn106797:1" depart="57726.00" departLane="653473569#5_1" departPos="5.10" departSpeed="0.00" departDelay="1.00" arrival="57754.00" arrivalLane="201956811#0_1" arrivalPos="40.40" arrivalSpeed="17.01" duration="28.00" routeLength="313.24" waitingTime="0.00" waitingCount="0" stopTime="0.00" timeLoss="8.09" rerouteNo="1" devices="tripinfo_carIn106797:1 routing_carIn106797:1" vType="default_016" speedFactor="1.22" vaporized=""/>
    <tripinfo id="randUni22709:1" depart="57718.00" departLane="315358253#1_1" departPos="5.10" departSpeed="0.00" departDelay="0.20" arrival="57756.00" arrivalLane="32978638#0_1" arrivalPos="49.29" arrivalSpeed="12.63" duration="38.00" routeLength="405.15" waitingTime="0.00" waitingCount="0" stopTime="0.00" timeLoss="6.50" rerouteNo="1" devices="tripinfo_randUni22709:1 routing_randUni22709:1" vType="random_016" speedFactor="0.96" vaporized=""/>
    <tripinfo id="carIn26708:1" depart="57729.00" departLane="653473569#5_1" departPos="5.10" departSpeed="0.00" departDelay="2.40" arrival="57759.00" arrivalLane="201956811#0_1" arrivalPos="40.40" arrivalSpeed="15.91" duration="30.00" routeLength="313.24" waitingTime="0.00" waitingCount="0" stopTime="0.00" timeLoss="10.52" rerouteNo="1" devices="tripinfo_carIn26708:1 routing_carIn26708:1" vType="default_016" speedFactor="1.21" vaporized=""/>
    <tripinfo id="h134c1:3" depart="57721.00" departLane="315358253#1_1" departPos="5.10" departSpeed="0.00" departDelay="1.60" arrival="57760.00" arrivalLane="32978638#0_1" arrivalPos="49.29" arrivalSpeed="12.81" duration="39.00" routeLength="405.15" waitingTime="0.00" waitingCount="0" stopTime="0.00" timeLoss="6.62" rerouteNo="1" devices="tripinfo_h134c1:3 routing_h134c1:3" vType="default_016" speedFactor="0.95" vaporized=""/>
    <tripinfo id="carIn74045:1" depart="57724.00" departLane="315358253#1_1" departPos="5.10" departSpeed="0.00" departDelay="3.00" arrival="57762.00" arrivalLane="32978638#0_1" arrivalPos="49.29" arrivalSpeed="13.33" duration="38.00" routeLength="405.15" waitingTime="0.00" waitingCount="0" stopTime="0.00" timeLoss="6.77" rerouteNo="1" devices="tripinfo_carIn74045:1 routing_carIn74045:1" vType="default_016" speedFactor="0.99" vaporized=""/>
    <tripinfo id="carIn34550:1" depart="57734.00" departLane="653473569#5_1" departPos="5.10" departSpeed="0.00" departDelay="3.60" arrival="57762.00" arrivalLane="201956811#0_1" arrivalPos="40.40" arrivalSpeed="15.50" duration="28.00" routeLength="313.24" waitingTime="0.00" waitingCount="0" stopTime="0.00" timeLoss="6.61" rerouteNo="1" devices="tripinfo_carIn34550:1 routing_carIn34550:1" vType="default_016" speedFactor="1.16" vaporized=""/>
    <tripinfo id="carIn99509:1" depart="57720.00" departLane="-32978638#0_1" departPos="5.10" departSpeed="0.00" departDelay="0.20" arrival="57765.00" arrivalLane="-315358253#1_1" arrivalPos="63.90" arrivalSpeed="10.51" duration="45.00" routeLength="422.17" waitingTime="0.00" waitingCount="0" stopTime="0.00" timeLoss="5.70" rerouteNo="1" devices="tripinfo_carIn99509:1 routing_carIn99509:1" vType="default_015" speedFactor="0.81" vaporized=""/>
    <tripinfo id="carIn75079:1" depart="57747.00" departLane="-173169611#0_1" departPos="5.10" departSpeed="0.00" departDelay="0.60" arrival="57766.00" arrivalLane="201956820_1" arrivalPos="48.33" arrivalSpeed="12.65" duration="19.00" routeLength="122.35" waitingTime="0.00" waitingCount="0" stopTime="0.00" timeLoss="8.88" rerouteNo="0" devices="tripinfo_carIn75079:1 routing_carIn75079:1" vType="default_016" speedFactor="0.96" vaporized=""/>
    <tripinfo id="carIn41791:1" depart="57737.00" departLane="653473569#5_1" departPos="5.10" departSpeed="0.00" departDelay="4.80" arrival="57770.00" arrivalLane="201956811#0_1" arrivalPos="40.40" arrivalSpeed="12.33" duration="33.00" routeLength="313.24" waitingTime="0.00" waitingCount="0" stopTime="0.00" timeLoss="8.63" rerouteNo="1" devices="tripinfo_carIn41791:1 routing_carIn41791:1" vType="default_016" speedFactor="0.97" vaporized=""/>
    <tripinfo id="carIn13016:1" depart="57740.00" departLane="653473569#5_1" departPos="5.10" departSpeed="0.00" departDelay="4.50" arrival="57772.00" arrivalLane="201956811#0_1" arrivalPos="40.40" arrivalSpeed="13.82" duration="32.00" routeLength="313.24" waitingTime="0.00" waitingCount="0" stopTime="0.00" timeLoss="8.30" rerouteNo="1" devices="tripinfo_carIn13016:1 routing_carIn13016:1" vType="default_016" speedFactor="1.02" vaporized=""/>
    <tripinfo id="carIn70477:1" depart="57743.00" departLane="653473569#5_1" departPos="5.10" departSpeed="0.00" departDelay="5.20" arrival="57774.00" arrivalLane="201956811#0_1" arrivalPos="40.40" arrivalSpeed="12.74" duration="31.00" routeLength="313.24" waitingTime="0.00" waitingCount="0" stopTime="0.00" timeLoss="6.87" rerouteNo="1" devices="tripinfo_carIn70477:1 routing_carIn70477:1" vType="default_016" speedFactor="0.99" vaporized=""/>
    <tripinfo id="h330c1:1" depart="57736.00" departLane="-32978638#0_1" departPos="5.10" departSpeed="0.00" departDelay="0.20" arrival="57776.00" arrivalLane="-266565295#5_1" arrivalPos="172.76" arrivalSpeed="10.36" duration="40.00" routeLength="370.53" waitingTime="0.00" waitingCount="0" stopTime="0.00" timeLoss="6.29" rerouteNo="1" devices="tripinfo_h330c1:1 routing_h330c1:1" vType="default_016" speedFactor="0.81" vaporized=""/>
    <tripinfo id="carIn106325:1" depart="57713.00" departLane="27920078#0_1" departPos="5.10" departSpeed="0.00" departDelay="0.10" arrival="57780.00" arrivalLane="-83304175#2_1" arrivalPos="189.34" arrivalSpeed="8.59" duration="67.00" routeLength="501.51" waitingTime="6.00" waitingCount="1" stopTime="0.00" timeLoss="23.55" rerouteNo="1" devices="tripinfo_carIn106325:1 routing_carIn106325:1" vType="default_016" speedFactor="1.08" vaporized=""/>
    <tripinfo id="11_frequency1.42" depart="57739.00" departLane="315358253#1_1" departPos="12.10" departSpeed="0.00" departDelay="0.30" arrival="57781.00" arrivalLane="32978638#0_1" arrivalPos="49.29" arrivalSpeed="13.83" duration="42.00" routeLength="398.15" waitingTime="0.00" waitingCount="0" stopTime="0.00" timeLoss="11.20" rerouteNo="1" devices="tripinfo_11_frequency1.42 routing_11_frequency1.42" vType="bus" speedFactor="1.00" vaporized=""/>
    <tripinfo id="randUni26227:1" depart="57746.00" departLane="653473569#5_1" departPos="5.10" departSpeed="0.00" departDelay="5.50" arrival="57781.00" arrivalLane="201956811#0_1" arrivalPos="40.40" arrivalSpeed="13.93" duration="35.00" routeLength="313.24" waitingTime="0.00" waitingCount="0" stopTime="0.00" timeLoss="11.57" rerouteNo="1" devices="tripinfo_randUni26227:1 routing_randUni26227:1" vType="random_016" speedFactor="1.03" vaporized=""/>
    <tripinfo id="carIn99738:1" depart="57718.00" departLane="27920078#0_1" departPos="5.10" departSpeed="0.00" departDelay="0.30" arrival="57785.00" arrivalLane="-83304175#2_1" arrivalPos="189.34" arrivalSpeed="7.52" duration="67.00" routeLength="501.51" waitingTime="5.00" waitingCount="3" stopTime="0.00" timeLoss="20.21" rerouteNo="1" devices="tripinfo_carIn99738:1 routing_carIn99738:1" vType="default_016" speedFactor="1.01" vaporized=""/>
    <tripinfo id="carIn98605:1" depart="57743.00" departLane="315358253#1_1" departPos="5.10" departSpeed="0.00" departDelay="2.20" arrival="57785.00" arrivalLane="32978638#0_1" arrivalPos="49.29" arrivalSpeed="11.55" duration="42.00" routeLength="405.15" waitingTime="0.00" waitingCount="0" stopTime="0.00" timeLoss="8.29" rerouteNo="1" devices="tripinfo_carIn98605:1 routing_carIn98605:1" vType="default_016" speedFactor="0.90" vaporized=""/>
    <tripinfo id="h319c1:3" depart="57746.00" departLane="315358253#1_1" departPos="5.10" departSpeed="0.00" departDelay="3.70" arrival="57786.00" arrivalLane="32978638#0_2" arrivalPos="49.29" arrivalSpeed="12.84" duration="40.00" routeLength="409.47" waitingTime="0.00" waitingCount="0" stopTime="0.00" timeLoss="9.22" rerouteNo="1" devices="tripinfo_h319c1:3 routing_h319c1:3" vType="default_016" speedFactor="0.99" vaporized=""/>
    <tripinfo id="carIn12152:1" depart="57647.00" departLane="24599188#0.94_1" departPos="5.10" departSpeed="0.00" departDelay="0.50" arrival="57794.00" arrivalLane="24693977#1_1" arrivalPos="96.83" arrivalSpeed="12.92" duration="147.00" routeLength="511.77" waitingTime="80.00" waitingCount="2" stopTime="0.00" timeLoss="98.92" rerouteNo="1" devices="tripinfo_carIn12152:1 routing_carIn12152:1" vType="default_016" speedFactor="0.99" vaporized=""/>
    <tripinfo id="carIn107250:1" depart="57753.00" departLane="315358253#1_1" departPos="5.10" departSpeed="0.00" departDelay="7.70" arrival="57795.00" arrivalLane="32978638#0_1" arrivalPos="49.29" arrivalSpeed="11.83" duration="42.00" routeLength="405.15" waitingTime="0.00" waitingCount="0" stopTime="0.00" timeLoss="6.78" rerouteNo="1" devices="tripinfo_carIn107250:1 routing_carIn107250:1" vType="default_016" speedFactor="0.88" vaporized=""/>
    <tripinfo id="carIn117869:1" depart="57758.00" departLane="-32978638#0_1" departPos="5.10" departSpeed="0.00" departDelay="0.60" arrival="57795.00" arrivalLane="-315358253#1_1" arrivalPos="63.90" arrivalSpeed="13.81" duration="37.00" routeLength="422.17" waitingTime="0.00" waitingCount="0" stopTime="0.00" timeLoss="6.74" rerouteNo="1" devices="tripinfo_carIn117869:1 routing_carIn117869:1" vType="default_016" speedFactor="1.04" vaporized=""/>
    <tripinfo id="carIn42216:1" depart="57774.00" departLane="-173169611#0_1" departPos="5.10" departSpeed="0.00" departDelay="0.10" arrival="57796.00" arrivalLane="201956820_1" arrivalPos="48.33" arrivalSpeed="13.72" duration="22.00" routeLength="122.35" waitingTime="3.00" waitingCount="1" stopTime="0.00" timeLoss="12.54" rerouteNo="0" devices="tripinfo_carIn42216:1 routing_carIn42216:1" vType="default_016" speedFactor="1.05" vaporized=""/>
    <tripinfo id="h14316c1:3" depart="57759.00" departLane="315358253#1_1" departPos="5.10" departSpeed="0.00" departDelay="10.00" arrival="57797.00" arrivalLane="32978638#0_1" arrivalPos="49.29" arrivalSpeed="13.61" duration="38.00" routeLength="405.15" waitingTime="0.00" waitingCount="0" stopTime="0.00" timeLoss="6.82" rerouteNo="1" devices="tripinfo_h14316c1:3 routing_h14316c1:3" vType="default_016" speedFactor="0.99" vaporized=""/>
    <tripinfo id="carIn86816:1" depart="57769.00" departLane="653473569#5_1" departPos="5.10" departSpeed="0.00" departDelay="0.70" arrival="57811.00" arrivalLane="201956811#0_1" arrivalPos="40.40" arrivalSpeed="12.44" duration="42.00" routeLength="313.24" waitingTime="6.00" waitingCount="1" stopTime="0.00" timeLoss="17.43" rerouteNo="1" devices="tripinfo_carIn86816:1 routing_carIn86816:1" vType="default_016" speedFactor="0.96" vaporized=""/>
    <tripinfo id="carIn7631:1" depart="57786.00" departLane="-32978638#0_1" departPos="5.10" departSpeed="0.00" departDelay="0.70" arrival="57819.00" arrivalLane="-315358253#1_1" arrivalPos="63.90" arrivalSpeed="15.76" duration="33.00" routeLength="422.17" waitingTime="0.00" waitingCount="0" stopTime="0.00" timeLoss="7.13" rerouteNo="1" devices="tripinfo_carIn7631:1 routing_carIn7631:1" vType="default_016" speedFactor="1.22" vaporized=""/>
    <tripinfo id="h5925c1:1" depart="57750.00" departLane="315358253#1_1" departPos="5.10" departSpeed="0.00" departDelay="6.20" arrival="57820.00" arrivalLane="202070434#2_1" arrivalPos="39.03" arrivalSpeed="15.40" duration="70.00" routeLength="824.79" waitingTime="2.00" waitingCount="1" stopTime="0.00" timeLoss="15.95" rerouteNo="1" devices="tripinfo_h5925c1:1 routing_h5925c1:1" vType="default_016" speedFactor="1.12" vaporized=""/>
    <tripinfo id="carIn95310:1" depart="57753.00" departLane="27920078#0_1" departPos="5.10" departSpeed="0.00" departDelay="0.50" arrival="57826.00" arrivalLane="-83304175#2_1" arrivalPos="189.34" arrivalSpeed="6.27" duration="73.00" routeLength="501.51" waitingTime="8.00" waitingCount="1" stopTime="0.00" timeLoss="19.86" rerouteNo="1" devices="tripinfo_carIn95310:1 routing_carIn95310:1" vType="default_016" speedFactor="0.89" vaporized=""/>
    <tripinfo id="carIn40211:1" depart="57756.00" departLane="27920078#0_1" departPos="5.10" departSpeed="0.00" departDelay="0.00" arrival="57828.00" arrivalLane="-83304175#2_1" arrivalPos="189.34" arrivalSpeed="9.38" duration="72.00" routeLength="501.51" waitingTime="5.00" waitingCount="1" stopTime="0.00" timeLoss="31.39" rerouteNo="1" devices="tripinfo_carIn40211:1 routing_carIn40211:1" vType="default_016" speedFactor="1.17" vaporized=""/>
    <tripinfo id="carIn46110:1" depart="57804.00" departLane="315358253#1_1" departPos="5.10" departSpeed="0.00" departDelay="0.40" arrival="57839.00" arrivalLane="32978638#0_1" arrivalPos="49.29" arrivalSpeed="14.79" duration="35.00" routeLength="405.15" waitingTime="0.00" waitingCount="0" stopTime="0.00" timeLoss="7.22" rerouteNo="1" devices="tripinfo_carIn46110:1 routing_carIn46110:1" vType="default_016" speedFactor="1.11" vaporized=""/>
    <tripinfo id="carIn102915:1" depart="57811.00" departLane="653473569#5_1" departPos="5.10" departSpeed="0.00" departDelay="0.90" arrival="57840.00" arrivalLane="201956811#0_1" arrivalPos="40.40" arrivalSpeed="13.33" duration="29.00" routeLength="313.24" waitingTime="0.00" waitingCount="0" stopTime="0.00" timeLoss="5.62" rerouteNo="1" devices="tripinfo_carIn102915:1 routing_carIn102915:1" vType="default_016" speedFactor="1.02" vaporized=""/>
    <tripinfo id="randUni33724:1" depart="57814.00" departLane="653473569#5_1" departPos="5.10" departSpeed="0.00" departDelay="2.20" arrival="57842.00" arrivalLane="201956811#0_1" arrivalPos="40.40" arrivalSpeed="15.64" duration="28.00" routeLength="313.24" waitingTime="0.00" waitingCount="0" stopTime="0.00" timeLoss="7.11" rerouteNo="1" devices="tripinfo_randUni33724:1 routing_randUni33724:1" vType="random_016" speedFactor="1.15" vaporized=""/>