<?xml version="1.0" encoding="UTF-8"?>

<!-- generated on 2023-08-31 12:36:29 by Eclipse SUMO libsumo Version 1.18.0
<configuration xmlns:xsi="http://www.w3.org/2001/XMLSchema-instance" xsi:noNamespaceSchemaLocation="http://sumo.dlr.de/xsd/libsumoConfiguration.xsd">

    <input>
        <net-file value="/home/stefan/RESCO/./environments/ingolstadt7/ingolstadt7.net.xml"/>
        <route-files value="/home/stefan/RESCO/./environments/ingolstadt7/ingolstadt7.rou.xml"/>
    </input>

    <output>
        <tripinfo-output value="/home/stefan/results/RAINBOW-tr0-ingolstadt7-7-drq_norm-wait_norm/tripinfo_51.xml"/>
        <tripinfo-output.write-unfinished value="true"/>
    </output>

    <time>
        <begin value="57600"/>
        <end value="61200"/>
    </time>

    <processing>
        <time-to-teleport value="-1"/>
    </processing>

    <report>
        <no-warnings value="True"/>
        <no-step-log value="True"/>
    </report>

    <random_number>
        <random value="true"/>
    </random_number>

</configuration>
-->

<tripinfos xmlns:xsi="http://www.w3.org/2001/XMLSchema-instance" xsi:noNamespaceSchemaLocation="http://sumo.dlr.de/xsd/tripinfo_file.xsd">
    <tripinfo id="carIn105842:1" depart="57601.00" departLane="653473569#5_1" departPos="5.10" departSpeed="0.00" departDelay="0.80" arrival="57629.00" arrivalLane="201956811#0_1" arrivalPos="40.40" arrivalSpeed="15.03" duration="28.00" routeLength="313.24" waitingTime="0.00" waitingCount="0" stopTime="0.00" timeLoss="6.31" rerouteNo="1" devices="tripinfo_carIn105842:1 routing_carIn105842:1" vType="default_016" speedFactor="1.12" vaporized=""/>
    <tripinfo id="carIn28951:1" depart="57606.00" departLane="10425609#0_1" departPos="5.10" departSpeed="0.00" departDelay="0.20" arrival="57645.00" arrivalLane="-653473569#5_1" arrivalPos="73.05" arrivalSpeed="12.83" duration="39.00" routeLength="312.95" waitingTime="5.00" waitingCount="1" stopTime="0.00" timeLoss="13.65" rerouteNo="1" devices="tripinfo_carIn28951:1 routing_carIn28951:1" vType="default_016" speedFactor="0.95" vaporized=""/>
    <tripinfo id="h15454c2:3" depart="57612.00" departLane="24608844_1" departPos="5.10" departSpeed="0.00" departDelay="0.50" arrival="57651.00" arrivalLane="32978638#0_1" arrivalPos="49.29" arrivalSpeed="13.72" duration="39.00" routeLength="354.79" waitingTime="0.00" waitingCount="0" stopTime="0.00" timeLoss="4.19" rerouteNo="1" devices="tripinfo_h15454c2:3 routing_h15454c2:3" vType="default_016" speedFactor="1.00" vaporized=""/>
    <tripinfo id="h20232c1:2" depart="57634.00" departLane="-173169611#0_1" departPos="5.10" departSpeed="0.00" departDelay="0.50" arrival="57651.00" arrivalLane="201956820_1" arrivalPos="48.33" arrivalSpeed="10.07" duration="17.00" routeLength="122.35" waitingTime="0.00" waitingCount="0" stopTime="0.00" timeLoss="4.14" rerouteNo="0" devices="tripinfo_h20232c1:2 routing_h20232c1:2" vType="default_016" speedFactor="0.79" vaporized=""/>
    <tripinfo id="carIn106322:1" depart="57614.00" departLane="653473569#5_1" departPos="5.10" departSpeed="0.00" departDelay="2.20" arrival="57658.00" arrivalLane="201956811#0_1" arrivalPos="40.40" arrivalSpeed="13.50" duration="44.00" routeLength="313.24" waitingTime="9.00" waitingCount="2" stopTime="0.00" timeLoss="20.95" rerouteNo="1" devices="tripinfo_carIn106322:1 routing_carIn106322:1" vType="default_016" speedFactor="1.02" vaporized=""/>
    <tripinfo id="carIn5482:1" depart="57617.00" departLane="653473569#5_1" departPos="5.10" departSpeed="0.00" departDelay="3.60" arrival="57661.00" arrivalLane="201956811#0_1" arrivalPos="40.40" arrivalSpeed="13.34" duration="44.00" routeLength="313.24" waitingTime="8.00" waitingCount="2" stopTime="0.00" timeLoss="20.48" rerouteNo="1" devices="tripinfo_carIn5482:1 routing_carIn5482:1" vType="default_016" speedFactor="1.03" vaporized=""/>
    <tripinfo id="carIn25202:1" depart="57629.00" departLane="315358253#1_1" departPos="5.10" departSpeed="0.00" departDelay="1.50" arrival="57662.00" arrivalLane="32978638#0_1" arrivalPos="49.29" arrivalSpeed="15.15" duration="33.00" routeLength="405.15" waitingTime="0.00" waitingCount="0" stopTime="0.00" timeLoss="5.23" rerouteNo="1" devices="tripinfo_carIn25202:1 routing_carIn25202:1" vType="default_016" speedFactor="1.09" vaporized=""/>
    <tripinfo id="60R.41" depart="57623.00" departLane="27920078#0_1" departPos="12.10" departSpeed="0.00" departDelay="0.30" arrival="57663.00" arrivalLane="201956811#0_1" arrivalPos="40.40" arrivalSpeed="13.57" duration="40.00" routeLength="425.03" waitingTime="0.00" waitingCount="0" stopTime="0.00" timeLoss="8.68" rerouteNo="1" devices="tripinfo_60R.41 routing_60R.41" vType="bus" speedFactor="1.00" vaporized=""/>
    <tripinfo id="carIn89578:1" depart="57614.00" departLane="124812856#0_1" departPos="5.10" departSpeed="0.00" departDelay="3.60" arrival="57672.00" arrivalLane="201956810_1" arrivalPos="71.65" arrivalSpeed="13.98" duration="58.00" routeLength="134.91" waitingTime="40.00" waitingCount="1" stopTime="0.00" timeLoss="47.31" rerouteNo="1" devices="tripinfo_carIn89578:1 routing_carIn89578:1" vType="default_016" speedFactor="1.03" vaporized=""/>
    <tripinfo id="carIn36103:1" depart="57620.00" departLane="653473569#5_1" departPos="5.10" departSpeed="0.00" departDelay="4.00" arrival="57672.00" arrivalLane="201956811#0_1" arrivalPos="40.40" arrivalSpeed="12.97" duration="52.00" routeLength="313.24" waitingTime="7.00" waitingCount="2" stopTime="0.00" timeLoss="29.03" rerouteNo="1" devices="tripinfo_carIn36103:1 routing_carIn36103:1" vType="default_016" speedFactor="1.02" vaporized=""/>
    <tripinfo id="carIn107084:1" depart="57601.00" departLane="124812856#0_1" departPos="5.10" departSpeed="0.00" departDelay="0.70" arrival="57674.00" arrivalLane="-653473569#5_1" arrivalPos="73.05" arrivalSpeed="12.36" duration="73.00" routeLength="450.40" waitingTime="27.00" waitingCount="2" stopTime="0.00" timeLoss="38.97" rerouteNo="1" devices="tripinfo_carIn107084:1 routing_carIn107084:1" vType="default_016" speedFactor="0.98" vaporized=""/>
    <tripinfo id="carIn102997:1" depart="57623.00" departLane="653473569#5_1" departPos="5.10" departSpeed="0.00" departDelay="4.80" arrival="57674.00" arrivalLane="201956811#0_1" arrivalPos="40.40" arrivalSpeed="12.40" duration="51.00" routeLength="313.24" waitingTime="4.00" waitingCount="1" stopTime="0.00" timeLoss="24.49" rerouteNo="1" devices="tripinfo_carIn102997:1 routing_carIn102997:1" vType="default_016" speedFactor="0.90" vaporized=""/>
    <tripinfo id="carIn77943:1" depart="57608.00" departLane="124812856#0_1" departPos="5.10" departSpeed="0.00" departDelay="2.50" arrival="57676.00" arrivalLane="-653473569#5_1" arrivalPos="73.05" arrivalSpeed="15.06" duration="68.00" routeLength="450.40" waitingTime="22.00" waitingCount="2" stopTime="0.00" timeLoss="38.80" rerouteNo="1" devices="tripinfo_carIn77943:1 routing_carIn77943:1" vType="default_016" speedFactor="1.16" vaporized=""/>
    <tripinfo id="carIn75554:1" depart="57626.00" departLane="653473569#5_1" departPos="5.10" departSpeed="0.00" departDelay="5.20" arrival="57680.00" arrivalLane="201956811#0_1" arrivalPos="40.40" arrivalSpeed="13.55" duration="54.00" routeLength="313.24" waitingTime="9.00" waitingCount="2" stopTime="0.00" timeLoss="29.84" rerouteNo="1" devices="tripinfo_carIn75554:1 routing_carIn75554:1" vType="default_016" speedFactor="0.98" vaporized=""/>
    <tripinfo id="randUni10474:1" depart="57605.00" departLane="124812856#0_1" departPos="5.10" departSpeed="0.00" departDelay="0.20" arrival="57685.00" arrivalLane="-653473569#5_1" arrivalPos="73.05" arrivalSpeed="11.43" duration="80.00" routeLength="450.40" waitingTime="21.00" waitingCount="2" stopTime="0.00" timeLoss="43.23" rerouteNo="1" devices="tripinfo_randUni10474:1 routing_randUni10474:1" vType="random_016" speedFactor="0.91" vaporized=""/>
    <tripinfo id="carIn124416:1" depart="57663.00" departLane="-173169611#0_1" departPos="5.10" departSpeed="0.00" departDelay="0.50" arrival="57686.00" arrivalLane="201956820_1" arrivalPos="48.33" arrivalSpeed="13.91" duration="23.00" routeLength="122.35" waitingTime="3.00" waitingCount="1" stopTime="0.00" timeLoss="14.00" rerouteNo="0" devices="tripinfo_carIn124416:1 routing_carIn124416:1" vType="default_016" speedFactor="1.08" vaporized=""/>
    <tripinfo id="carIn33538:1" depart="57671.00" departLane="37386279_1" departPos="5.10" departSpeed="0.00" departDelay="0.30" arrival="57686.00" arrivalLane="-24634414#4_1" arrivalPos="22.88" arrivalSpeed="7.34" duration="15.00" routeLength="125.23" waitingTime="0.00" waitingCount="0" stopTime="0.00" timeLoss="3.27" rerouteNo="0" devices="tripinfo_carIn33538:1 routing_carIn33538:1" vType="default_016" speedFactor="0.98" vaporized=""/>
    <tripinfo id="h20540c1:1" depart="57634.00" departLane="10425609#0_1" departPos="5.10" departSpeed="0.00" departDelay="0.50" arrival="57687.00" arrivalLane="-653473569#5_1" arrivalPos="73.05" arrivalSpeed="12.14" duration="53.00" routeLength="312.95" waitingTime="14.00" waitingCount="1" stopTime="0.00" timeLoss="25.66" rerouteNo="1" devices="tripinfo_h20540c1:1 routing_h20540c1:1" vType="default_016" speedFactor="0.88" vaporized=""/>
    <tripinfo id="carIn81046:1" depart="57611.00" departLane="124812856#0_1" departPos="5.10" departSpeed="0.00" departDelay="2.50" arrival="57689.00" arrivalLane="-653473569#5_1" arrivalPos="73.05" arrivalSpeed="14.98" duration="78.00" routeLength="450.40" waitingTime="26.00" waitingCount="2" stopTime="0.00" timeLoss="47.96" rerouteNo="1" devices="tripinfo_carIn81046:1 routing_carIn81046:1" vType="default_016" speedFactor="1.13" vaporized=""/>
    <tripinfo id="carIn114137:1" depart="57634.00" departLane="27920078#0_1" departPos="5.10" departSpeed="0.00" departDelay="3.10" arrival="57691.00" arrivalLane="-83304175#2_1" arrivalPos="189.34" arrivalSpeed="7.00" duration="57.00" routeLength="501.51" waitingTime="0.00" waitingCount="0" stopTime="0.00" timeLoss="7.22" rerouteNo="1" devices="tripinfo_carIn114137:1 routing_carIn114137:1" vType="default_016" speedFactor="0.95" vaporized=""/>
    <tripinfo id="randUni20090:1" depart="57629.00" departLane="653473569#5_1" departPos="5.10" departSpeed="0.00" departDelay="1.00" arrival="57692.00" arrivalLane="201956811#0_1" arrivalPos="40.40" arrivalSpeed="11.53" duration="63.00" routeLength="313.24" waitingTime="14.00" waitingCount="3" stopTime="0.00" timeLoss="35.97" rerouteNo="1" devices="tripinfo_randUni20090:1 routing_randUni20090:1" vType="random_016" speedFactor="0.89" vaporized=""/>
    <tripinfo id="carIn22637:1" depart="57635.00" departLane="27920078#0_1" departPos="5.10" departSpeed="0.00" departDelay="2.50" arrival="57695.00" arrivalLane="-83304175#2_1" arrivalPos="189.34" arrivalSpeed="6.65" duration="60.00" routeLength="501.51" waitingTime="1.00" waitingCount="1" stopTime="0.00" timeLoss="9.49" rerouteNo="1" devices="tripinfo_carIn22637:1 routing_carIn22637:1" vType="default_016" speedFactor="0.95" vaporized=""/>
    <tripinfo id="carIn55090:1" depart="57666.00" departLane="-173169611#0_1" departPos="5.10" departSpeed="0.00" departDelay="1.40" arrival="57695.00" arrivalLane="201956820_1" arrivalPos="48.33" arrivalSpeed="13.82" duration="29.00" routeLength="122.35" waitingTime="9.00" waitingCount="2" stopTime="0.00" timeLoss="20.00" rerouteNo="0" devices="tripinfo_carIn55090:1 routing_carIn55090:1" vType="default_016" speedFactor="1.07" vaporized=""/>
    <tripinfo id="carIn925:1" depart="57678.00" departLane="124812856#0_1" departPos="5.10" departSpeed="0.00" departDelay="51.90" arrival="57698.00" arrivalLane="201956810_1" arrivalPos="71.65" arrivalSpeed="10.92" duration="20.00" routeLength="134.91" waitingTime="0.00" waitingCount="0" stopTime="0.00" timeLoss="7.27" rerouteNo="1" devices="tripinfo_carIn925:1 routing_carIn925:1" vType="default_016" speedFactor="0.86" vaporized=""/>
    <tripinfo id="carIn37268:1" depart="57636.00" departLane="653473569#5_1" departPos="5.10" departSpeed="0.00" departDelay="0.90" arrival="57701.00" arrivalLane="201956811#0_1" arrivalPos="40.40" arrivalSpeed="11.18" duration="65.00" routeLength="313.24" waitingTime="16.00" waitingCount="3" stopTime="0.00" timeLoss="38.10" rerouteNo="1" devices="tripinfo_carIn37268:1 routing_carIn37268:1" vType="default_016" speedFactor="0.89" vaporized=""/>
    <tripinfo id="carIn12152:1" depart="57647.00" departLane="24599188#0.94_1" departPos="5.10" departSpeed="0.00" departDelay="0.50" arrival="57701.00" arrivalLane="24693977#1_1" arrivalPos="96.83" arrivalSpeed="13.78" duration="54.00" routeLength="511.77" waitingTime="0.00" waitingCount="0" stopTime="0.00" timeLoss="9.01" rerouteNo="1" devices="tripinfo_carIn12152:1 routing_carIn12152:1" vType="default_016" speedFactor="1.06" vaporized=""/>
    <tripinfo id="carIn113711:1" depart="57601.00" departLane="-24693977#1_1" departPos="5.10" departSpeed="0.00" departDelay="0.70" arrival="57704.00" arrivalLane="-266565295#5_1" arrivalPos="172.76" arrivalSpeed="15.95" duration="103.00" routeLength="840.03" waitingTime="33.00" waitingCount="2" stopTime="0.00" timeLoss="52.02" rerouteNo="1" devices="tripinfo_carIn113711:1 routing_carIn113711:1" vType="default_016" speedFactor="1.21" vaporized=""/>
    <tripinfo id="carIn79400:1" depart="57604.00" departLane="-24693977#1_1" departPos="5.10" departSpeed="0.00" departDelay="0.10" arrival="57705.00" arrivalLane="-266565295#5_2" arrivalPos="172.76" arrivalSpeed="14.69" duration="101.00" routeLength="840.03" waitingTime="30.00" waitingCount="2" stopTime="0.00" timeLoss="44.26" rerouteNo="1" devices="tripinfo_carIn79400:1 routing_carIn79400:1" vType="default_016" speedFactor="1.09" vaporized=""/>
    <tripinfo id="carIn115641:1" depart="57614.00" departLane="-24693977#1_1" departPos="5.10" departSpeed="0.00" departDelay="0.90" arrival="57708.00" arrivalLane="-266565295#5_2" arrivalPos="172.76" arrivalSpeed="14.42" duration="94.00" routeLength="840.03" waitingTime="22.00" waitingCount="2" stopTime="0.00" timeLoss="36.99" rerouteNo="1" devices="tripinfo_carIn115641:1 routing_carIn115641:1" vType="default_016" speedFactor="1.10" vaporized=""/>
    <tripinfo id="h645c1:1" depart="57622.00" departLane="266565295#5_1" departPos="5.10" departSpeed="0.00" departDelay="0.40" arrival="57710.00" arrivalLane="-315358253#1_1" arrivalPos="63.90" arrivalSpeed="13.64" duration="88.00" routeLength="547.76" waitingTime="38.00" waitingCount="1" stopTime="0.00" timeLoss="48.23" rerouteNo="1" devices="tripinfo_h645c1:1 routing_h645c1:1" vType="default_016" speedFactor="1.01" vaporized=""/>
    <tripinfo id="carIn129760:1" depart="57661.00" departLane="653473569#5_1" departPos="5.10" departSpeed="0.00" departDelay="0.80" arrival="57710.00" arrivalLane="201956811#0_1" arrivalPos="40.40" arrivalSpeed="12.86" duration="49.00" routeLength="313.24" waitingTime="8.00" waitingCount="2" stopTime="0.00" timeLoss="24.72" rerouteNo="1" devices="tripinfo_carIn129760:1 routing_carIn129760:1" vType="default_016" speedFactor="0.99" vaporized=""/>
    <tripinfo id="carIn129626:1" depart="57664.00" departLane="653473569#5_1" departPos="5.10" departSpeed="0.00" departDelay="1.60" arrival="57712.00" arrivalLane="201956811#0_1" arrivalPos="40.40" arrivalSpeed="13.61" duration="48.00" routeLength="313.24" waitingTime="9.00" waitingCount="2" stopTime="0.00" timeLoss="23.26" rerouteNo="1" devices="tripinfo_carIn129626:1 routing_carIn129626:1" vType="default_016" speedFactor="0.99" vaporized=""/>
    <tripinfo id="carIn26407:1" depart="57673.00" departLane="25145012#7_1" departPos="5.10" departSpeed="0.00" departDelay="0.50" arrival="57713.00" arrivalLane="201956811#0_1" arrivalPos="40.40" arrivalSpeed="13.12" duration="40.00" routeLength="384.54" waitingTime="0.00" waitingCount="0" stopTime="0.00" timeLoss="12.20" rerouteNo="1" devices="tripinfo_carIn26407:1 routing_carIn26407:1" vType="default_016" speedFactor="1.03" vaporized=""/>
    <tripinfo id="carIn7887:1" depart="57661.00" departLane="27920078#0_1" departPos="5.10" departSpeed="0.00" departDelay="0.50" arrival="57714.00" arrivalLane="-83304175#2_1" arrivalPos="189.34" arrivalSpeed="7.61" duration="53.00" routeLength="501.51" waitingTime="0.00" waitingCount="0" stopTime="0.00" timeLoss="6.21" rerouteNo="1" devices="tripinfo_carIn7887:1 routing_carIn7887:1" vType="default_016" speedFactor="1.01" vaporized=""/>
    <tripinfo id="h3688c1:1" depart="57679.00" departLane="315358253#1_1" departPos="5.10" departSpeed="0.00" departDelay="0.50" arrival="57715.00" arrivalLane="32978638#0_1" arrivalPos="49.29" arrivalSpeed="13.34" duration="36.00" routeLength="405.15" waitingTime="0.00" waitingCount="0" stopTime="0.00" timeLoss="6.11" rerouteNo="1" devices="tripinfo_h3688c1:1 routing_h3688c1:1" vType="default_016" speedFactor="1.03" vaporized=""/>
    <tripinfo id="h20539c1:3" depart="57667.00" departLane="653473569#5_1" departPos="5.10" departSpeed="0.00" departDelay="2.20" arrival="57721.00" arrivalLane="201956811#0_1" arrivalPos="40.40" arrivalSpeed="14.94" duration="54.00" routeLength="313.24" waitingTime="9.00" waitingCount="3" stopTime="0.00" timeLoss="33.09" rerouteNo="1" devices="tripinfo_h20539c1:3 routing_h20539c1:3" vType="default_016" speedFactor="1.16" vaporized=""/>
    <tripinfo id="randUni27349:1" depart="57637.00" departLane="27920078#0_1" departPos="5.10" departSpeed="0.00" departDelay="3.10" arrival="57723.00" arrivalLane="201956811#0_1" arrivalPos="40.40" arrivalSpeed="12.14" duration="86.00" routeLength="432.03" waitingTime="36.00" waitingCount="1" stopTime="0.00" timeLoss="52.26" rerouteNo="1" devices="tripinfo_randUni27349:1 routing_randUni27349:1" vType="random_016" speedFactor="0.94" vaporized=""/>
    <tripinfo id="carIn12775:1" depart="57676.00" departLane="10425609#0_1" departPos="5.10" departSpeed="0.00" departDelay="0.60" arrival="57729.00" arrivalLane="-653473569#5_1" arrivalPos="73.05" arrivalSpeed="9.96" duration="53.00" routeLength="312.95" waitingTime="9.00" waitingCount="2" stopTime="0.00" timeLoss="22.83" rerouteNo="1" devices="tripinfo_carIn12775:1 routing_carIn12775:1" vType="default_016" speedFactor="0.80" vaporized=""/>
    <tripinfo id="h20403c1:5" depart="57640.00" departLane="27920078#0_1" departPos="5.10" departSpeed="0.00" departDelay="4.60" arrival="57732.00" arrivalLane="201956811#0_1" arrivalPos="40.40" arrivalSpeed="11.69" duration="92.00" routeLength="432.03" waitingTime="37.00" waitingCount="2" stopTime="0.00" timeLoss="54.88" rerouteNo="1" devices="tripinfo_h20403c1:5 routing_h20403c1:5" vType="default_016" speedFactor="0.85" vaporized=""/>
    <tripinfo id="carIn131078:1" depart="57703.00" departLane="124812856#0_1" departPos="5.10" departSpeed="0.00" departDelay="67.60" arrival="57733.00" arrivalLane="201956810_1" arrivalPos="71.65" arrivalSpeed="14.21" duration="30.00" routeLength="134.91" waitingTime="11.00" waitingCount="1" stopTime="0.00" timeLoss="19.12" rerouteNo="1" devices="tripinfo_carIn131078:1 routing_carIn131078:1" vType="default_016" speedFactor="1.03" vaporized=""/>
    <tripinfo id="carIn91254:1" depart="57696.00" departLane="653473569#5_1" departPos="5.10" departSpeed="0.00" departDelay="0.10" arrival="57734.00" arrivalLane="201956811#0_1" arrivalPos="40.40" arrivalSpeed="13.40" duration="38.00" routeLength="313.24" waitingTime="0.00" waitingCount="0" stopTime="0.00" timeLoss="13.87" rerouteNo="1" devices="tripinfo_carIn91254:1 routing_carIn91254:1" vType="default_016" speedFactor="1.01" vaporized=""/>
    <tripinfo id="h317c2:1" depart="57707.00" departLane="-32978638#0_1" departPos="5.10" departSpeed="0.00" departDelay="0.10" arrival="57740.00" arrivalLane="-266565295#5_1" arrivalPos="172.76" arrivalSpeed="13.41" duration="33.00" routeLength="370.53" waitingTime="0.00" waitingCount="0" stopTime="0.00" timeLoss="6.03" rerouteNo="1" devices="tripinfo_h317c2:1 routing_h317c2:1" vType="default_016" speedFactor="1.02" vaporized=""/>
    <tripinfo id="carIn13117:1" depart="57627.00" departLane="27920078#0_1" departPos="5.10" departSpeed="0.00" departDelay="1.80" arrival="57750.00" arrivalLane="201956820_2" arrivalPos="48.33" arrivalSpeed="14.02" duration="123.00" routeLength="552.44" waitingTime="66.00" waitingCount="2" stopTime="0.00" timeLoss="86.04" rerouteNo="1" devices="tripinfo_carIn13117:1 routing_carIn13117:1" vType="default_016" speedFactor="1.08" vaporized=""/>
    <tripinfo id="carIn28488:1" depart="57611.00" departLane="653473569#5_1" departPos="5.10" departSpeed="0.00" departDelay="0.80" arrival="57751.00" arrivalLane="201956820_1" arrivalPos="48.33" arrivalSpeed="12.83" duration="140.00" routeLength="437.07" waitingTime="90.00" waitingCount="2" stopTime="0.00" timeLoss="105.11" rerouteNo="1" devices="tripinfo_carIn28488:1 routing_carIn28488:1" vType="default_016" speedFactor="0.94" vaporized=""/>
    <tripinfo id="carIn20106:1" depart="57630.00" departLane="27920078#0_1" departPos="5.10" departSpeed="0.00" departDelay="2.70" arrival="57752.00" arrivalLane="201956820_2" arrivalPos="48.33" arrivalSpeed="13.88" duration="122.00" routeLength="552.44" waitingTime="64.00" waitingCount="1" stopTime="0.00" timeLoss="83.81" rerouteNo="1" devices="tripinfo_carIn20106:1 routing_carIn20106:1" vType="default_016" speedFactor="1.05" vaporized=""/>
    <tripinfo id="carIn55461:1" depart="57652.00" departLane="10425609#0_1" departPos="5.10" departSpeed="0.00" departDelay="0.30" arrival="57753.00" arrivalLane="201956810_1" arrivalPos="71.65" arrivalSpeed="15.77" duration="101.00" routeLength="255.78" waitingTime="73.00" waitingCount="1" stopTime="0.00" timeLoss="83.52" rerouteNo="1" devices="tripinfo_carIn55461:1 routing_carIn55461:1" vType="default_016" speedFactor="1.15" vaporized=""/>
    <tripinfo id="h21130c2:1" depart="57630.00" departLane="10425609#0_1" departPos="5.10" departSpeed="0.00" departDelay="0.10" arrival="57757.00" arrivalLane="202070434#2_1" arrivalPos="39.03" arrivalSpeed="13.89" duration="127.00" routeLength="432.30" waitingTime="82.00" waitingCount="1" stopTime="0.00" timeLoss="94.68" rerouteNo="1" devices="tripinfo_h21130c2:1 routing_h21130c2:1" vType="default_016" speedFactor="1.00" vaporized=""/>
    <tripinfo id="randUni22709:1" depart="57718.00" departLane="315358253#1_1" departPos="5.10" departSpeed="0.00" departDelay="0.20" arrival="57757.00" arrivalLane="32978638#0_1" arrivalPos="49.29" arrivalSpeed="12.86" duration="39.00" routeLength="405.15" waitingTime="0.00" waitingCount="0" stopTime="0.00" timeLoss="6.25" rerouteNo="1" devices="tripinfo_randUni22709:1 routing_randUni22709:1" vType="random_016" speedFactor="0.95" vaporized=""/>
    <tripinfo id="carIn12900:1" depart="57720.00" departLane="124812856#0_1" departPos="5.10" departSpeed="0.00" departDelay="71.80" arrival="57758.00" arrivalLane="201956810_1" arrivalPos="71.65" arrivalSpeed="13.46" duration="38.00" routeLength="134.91" waitingTime="6.00" waitingCount="3" stopTime="0.00" timeLoss="27.69" rerouteNo="1" devices="tripinfo_carIn12900:1 routing_carIn12900:1" vType="default_016" speedFactor="1.03" vaporized=""/>
    <tripinfo id="carIn99509:1" depart="57720.00" departLane="-32978638#0_1" departPos="5.10" departSpeed="0.00" departDelay="0.20" arrival="57759.00" arrivalLane="-315358253#1_1" arrivalPos="63.90" arrivalSpeed="15.03" duration="39.00" routeLength="422.17" waitingTime="2.00" waitingCount="1" stopTime="0.00" timeLoss="10.57" rerouteNo="1" devices="tripinfo_carIn99509:1 routing_carIn99509:1" vType="default_015" speedFactor="1.13" vaporized=""/>
    <tripinfo id="60.39" depart="57643.00" departLane="10425609#0_1" departPos="12.10" departSpeed="0.00" departDelay="0.50" arrival="57763.00" arrivalLane="202070434#2_2" arrivalPos="39.03" arrivalSpeed="9.45" duration="120.00" routeLength="425.30" waitingTime="55.00" waitingCount="4" stopTime="0.00" timeLoss="88.44" rerouteNo="1" devices="tripinfo_60.39 routing_60.39" vType="bus" speedFactor="1.00" vaporized=""/>
    <tripinfo id="h330c1:1" depart="57736.00" departLane="-32978638#0_1" departPos="5.10" departSpeed="0.00" departDelay="0.20" arrival="57767.00" arrivalLane="-266565295#5_1" arrivalPos="172.76" arrivalSpeed="14.20" duration="31.00" routeLength="370.53" waitingTime="0.00" waitingCount="0" stopTime="0.00" timeLoss="5.62" rerouteNo="1" devices="tripinfo_h330c1:1 routing_h330c1:1" vType="default_016" speedFactor="1.08" vaporized=""/>
    <tripinfo id="h134c1:3" depart="57721.00" departLane="315358253#1_1" departPos="5.10" departSpeed="0.00" departDelay="1.60" arrival="57770.00" arrivalLane="32978638#0_1" arrivalPos="49.29" arrivalSpeed="12.05" duration="49.00" routeLength="405.15" waitingTime="3.00" waitingCount="1" stopTime="0.00" timeLoss="14.34" rerouteNo="1" devices="tripinfo_h134c1:3 routing_h134c1:3" vType="default_016" speedFactor="0.88" vaporized=""/>
    <tripinfo id="carIn106325:1" depart="57713.00" departLane="27920078#0_1" departPos="5.10" departSpeed="0.00" departDelay="0.10" arrival="57771.00" arrivalLane="-83304175#2_1" arrivalPos="189.34" arrivalSpeed="6.87" duration="58.00" routeLength="501.51" waitingTime="0.00" waitingCount="0" stopTime="0.00" timeLoss="8.49" rerouteNo="1" devices="tripinfo_carIn106325:1 routing_carIn106325:1" vType="default_016" speedFactor="0.96" vaporized=""/>
    <tripinfo id="carIn106797:1" depart="57726.00" departLane="653473569#5_1" departPos="5.10" departSpeed="0.00" departDelay="1.00" arrival="57771.00" arrivalLane="201956811#0_1" arrivalPos="40.40" arrivalSpeed="12.07" duration="45.00" routeLength="313.24" waitingTime="8.00" waitingCount="2" stopTime="0.00" timeLoss="19.91" rerouteNo="1" devices="tripinfo_carIn106797:1 routing_carIn106797:1" vType="default_016" speedFactor="0.96" vaporized=""/>
    <tripinfo id="carIn26708:1" depart="57729.00" departLane="653473569#5_1" departPos="5.10" departSpeed="0.00" departDelay="2.40" arrival="57773.00" arrivalLane="201956811#0_1" arrivalPos="40.40" arrivalSpeed="11.58" duration="44.00" routeLength="313.24" waitingTime="3.00" waitingCount="1" stopTime="0.00" timeLoss="17.36" rerouteNo="1" devices="tripinfo_carIn26708:1 routing_carIn26708:1" vType="default_016" speedFactor="0.92" vaporized=""/>
    <tripinfo id="carIn74045:1" depart="57724.00" departLane="315358253#1_1" departPos="5.10" departSpeed="0.00" departDelay="3.00" arrival="57774.00" arrivalLane="32978638#0_1" arrivalPos="49.29" arrivalSpeed="15.51" duration="50.00" routeLength="405.15" waitingTime="8.00" waitingCount="2" stopTime="0.00" timeLoss="22.90" rerouteNo="1" devices="tripinfo_carIn74045:1 routing_carIn74045:1" vType="default_016" speedFactor="1.12" vaporized=""/>
    <tripinfo id="carIn34550:1" depart="57734.00" departLane="653473569#5_1" departPos="5.10" departSpeed="0.00" departDelay="3.60" arrival="57775.00" arrivalLane="201956811#0_1" arrivalPos="40.40" arrivalSpeed="15.60" duration="41.00" routeLength="313.24" waitingTime="2.00" waitingCount="1" stopTime="0.00" timeLoss="19.67" rerouteNo="1" devices="tripinfo_carIn34550:1 routing_carIn34550:1" vType="default_016" speedFactor="1.13" vaporized=""/>
    <tripinfo id="carIn75079:1" depart="57747.00" departLane="-173169611#0_1" departPos="5.10" departSpeed="0.00" departDelay="0.60" arrival="57776.00" arrivalLane="201956820_1" arrivalPos="48.33" arrivalSpeed="10.87" duration="29.00" routeLength="122.35" waitingTime="11.00" waitingCount="1" stopTime="0.00" timeLoss="18.11" rerouteNo="0" devices="tripinfo_carIn75079:1 routing_carIn75079:1" vType="default_016" speedFactor="0.86" vaporized=""/>
    <tripinfo id="carIn99738:1" depart="57718.00" departLane="27920078#0_1" departPos="5.10" departSpeed="0.00" departDelay="0.30" arrival="57777.00" arrivalLane="-83304175#2_1" arrivalPos="189.34" arrivalSpeed="6.68" duration="59.00" routeLength="501.51" waitingTime="0.00" waitingCount="0" stopTime="0.00" timeLoss="8.52" rerouteNo="1" devices="tripinfo_carIn99738:1 routing_carIn99738:1" vType="default_016" speedFactor="0.94" vaporized=""/>
    <tripinfo id="h19989c1:1" depart="57730.00" departLane="10425609#0_1" departPos="5.10" departSpeed="0.00" departDelay="0.60" arrival="57777.00" arrivalLane="-653473569#5_1" arrivalPos="73.05" arrivalSpeed="10.35" duration="47.00" routeLength="312.95" waitingTime="3.00" waitingCount="1" stopTime="0.00" timeLoss="16.04" rerouteNo="1" devices="tripinfo_h19989c1:1 routing_h19989c1:1" vType="default_016" speedFactor="0.78" vaporized=""/>
    <tripinfo id="carIn77438:1" depart="57618.00" departLane="124812856#0_1" departPos="5.10" departSpeed="0.00" departDelay="5.10" arrival="57778.00" arrivalLane="-653473569#5_1" arrivalPos="73.05" arrivalSpeed="11.71" duration="160.00" routeLength="450.40" waitingTime="103.00" waitingCount="3" stopTime="0.00" timeLoss="128.46" rerouteNo="1" devices="tripinfo_carIn77438:1 routing_carIn77438:1" vType="default_016" speedFactor="1.05" vaporized=""/>
    <tripinfo id="11_frequency1.42" depart="57739.00" departLane="315358253#1_1" departPos="12.10" departSpeed="0.00" departDelay="0.30" arrival="57780.00" arrivalLane="32978638#0_1" arrivalPos="49.29" arrivalSpeed="13.87" duration="41.00" routeLength="398.15" waitingTime="0.00" waitingCount="0" stopTime="0.00" timeLoss="10.80" rerouteNo="1" devices="tripinfo_11_frequency1.42 routing_11_frequency1.42" vType="bus" speedFactor="1.00" vaporized=""/>
    <tripinfo id="carIn41791:1" depart="57737.00" departLane="653473569#5_1" departPos="5.10" departSpeed="0.00" departDelay="4.80" arrival="57782.00" arrivalLane="201956811#0_1" arrivalPos="40.40" arrivalSpeed="11.56" duration="45.00" routeLength="313.24" waitingTime="1.00" waitingCount="1" stopTime="0.00" timeLoss="17.08" rerouteNo="1" devices="tripinfo_carIn41791:1 routing_carIn41791:1" vType="default_016" speedFactor="0.86" vaporized=""/>