<?xml version="1.0" encoding="UTF-8"?>

<!-- generated on 2023-08-31 12:33:22 by Eclipse SUMO libsumo Version 1.18.0
<configuration xmlns:xsi="http://www.w3.org/2001/XMLSchema-instance" xsi:noNamespaceSchemaLocation="http://sumo.dlr.de/xsd/libsumoConfiguration.xsd">

    <input>
        <net-file value="/home/stefan/RESCO/./environments/ingolstadt7/ingolstadt7.net.xml"/>
        <route-files value="/home/stefan/RESCO/./environments/ingolstadt7/ingolstadt7.rou.xml"/>
    </input>

    <output>
        <tripinfo-output value="/home/stefan/results/RAINBOW-tr0-ingolstadt7-7-drq_norm-wait_norm/tripinfo_42.xml"/>
        <tripinfo-output.write-unfinished value="true"/>
    </output>

    <time>
        <begin value="57600"/>
        <end value="61200"/>
    </time>

    <processing>
        <time-to-teleport value="-1"/>
    </processing>

    <report>
        <no-warnings value="True"/>
        <no-step-log value="True"/>
    </report>

    <random_number>
        <random value="true"/>
    </random_number>

</configuration>
-->

<tripinfos xmlns:xsi="http://www.w3.org/2001/XMLSchema-instance" xsi:noNamespaceSchemaLocation="http://sumo.dlr.de/xsd/tripinfo_file.xsd">
    <tripinfo id="carIn89578:1" depart="57614.00" departLane="124812856#0_1" departPos="5.10" departSpeed="0.00" departDelay="3.60" arrival="57630.00" arrivalLane="201956810_1" arrivalPos="71.65" arrivalSpeed="13.44" duration="16.00" routeLength="134.91" waitingTime="0.00" waitingCount="0" stopTime="0.00" timeLoss="5.54" rerouteNo="1" devices="tripinfo_carIn89578:1 routing_carIn89578:1" vType="default_016" speedFactor="1.00" vaporized=""/>
    <tripinfo id="carIn28951:1" depart="57606.00" departLane="10425609#0_1" departPos="5.10" departSpeed="0.00" departDelay="0.20" arrival="57638.00" arrivalLane="-653473569#5_1" arrivalPos="73.05" arrivalSpeed="13.75" duration="32.00" routeLength="312.95" waitingTime="0.00" waitingCount="0" stopTime="0.00" timeLoss="7.94" rerouteNo="1" devices="tripinfo_carIn28951:1 routing_carIn28951:1" vType="default_016" speedFactor="1.03" vaporized=""/>
    <tripinfo id="h20232c1:2" depart="57634.00" departLane="-173169611#0_1" departPos="5.10" departSpeed="0.00" departDelay="0.50" arrival="57657.00" arrivalLane="201956820_1" arrivalPos="48.33" arrivalSpeed="11.75" duration="23.00" routeLength="122.35" waitingTime="2.00" waitingCount="1" stopTime="0.00" timeLoss="12.08" rerouteNo="0" devices="tripinfo_h20232c1:2 routing_h20232c1:2" vType="default_016" speedFactor="0.92" vaporized=""/>
    <tripinfo id="carIn105842:1" depart="57601.00" departLane="653473569#5_1" departPos="5.10" departSpeed="0.00" departDelay="0.80" arrival="57668.00" arrivalLane="201956811#0_1" arrivalPos="40.40" arrivalSpeed="13.53" duration="67.00" routeLength="313.24" waitingTime="27.00" waitingCount="2" stopTime="0.00" timeLoss="43.57" rerouteNo="1" devices="tripinfo_carIn105842:1 routing_carIn105842:1" vType="default_016" speedFactor="1.01" vaporized=""/>
    <tripinfo id="h15454c2:3" depart="57612.00" departLane="24608844_1" departPos="5.10" departSpeed="0.00" departDelay="0.50" arrival="57668.00" arrivalLane="32978638#0_1" arrivalPos="49.29" arrivalSpeed="11.85" duration="56.00" routeLength="354.79" waitingTime="6.00" waitingCount="1" stopTime="0.00" timeLoss="17.33" rerouteNo="1" devices="tripinfo_h15454c2:3 routing_h15454c2:3" vType="default_016" speedFactor="0.89" vaporized=""/>
    <tripinfo id="carIn925:1" depart="57652.00" departLane="124812856#0_1" departPos="5.10" departSpeed="0.00" departDelay="25.90" arrival="57668.00" arrivalLane="201956810_1" arrivalPos="71.65" arrivalSpeed="15.00" duration="16.00" routeLength="134.91" waitingTime="0.00" waitingCount="0" stopTime="0.00" timeLoss="6.53" rerouteNo="1" devices="tripinfo_carIn925:1 routing_carIn925:1" vType="default_016" speedFactor="1.08" vaporized=""/>
    <tripinfo id="carIn106322:1" depart="57614.00" departLane="653473569#5_1" departPos="5.10" departSpeed="0.00" departDelay="2.20" arrival="57670.00" arrivalLane="201956811#0_1" arrivalPos="40.40" arrivalSpeed="13.84" duration="56.00" routeLength="313.24" waitingTime="14.00" waitingCount="2" stopTime="0.00" timeLoss="32.11" rerouteNo="1" devices="tripinfo_carIn106322:1 routing_carIn106322:1" vType="default_016" speedFactor="1.01" vaporized=""/>
    <tripinfo id="carIn28488:1" depart="57611.00" departLane="653473569#5_1" departPos="5.10" departSpeed="0.00" departDelay="0.80" arrival="57671.00" arrivalLane="201956820_1" arrivalPos="48.33" arrivalSpeed="13.09" duration="60.00" routeLength="437.07" waitingTime="13.00" waitingCount="1" stopTime="0.00" timeLoss="25.58" rerouteNo="1" devices="tripinfo_carIn28488:1 routing_carIn28488:1" vType="default_016" speedFactor="0.95" vaporized=""/>
    <tripinfo id="carIn5482:1" depart="57617.00" departLane="653473569#5_1" departPos="5.10" departSpeed="0.00" departDelay="3.60" arrival="57681.00" arrivalLane="201956811#0_1" arrivalPos="40.40" arrivalSpeed="12.49" duration="64.00" routeLength="313.24" waitingTime="23.00" waitingCount="2" stopTime="0.00" timeLoss="40.12" rerouteNo="1" devices="tripinfo_carIn5482:1 routing_carIn5482:1" vType="default_016" speedFactor="0.98" vaporized=""/>
    <tripinfo id="carIn25202:1" depart="57629.00" departLane="315358253#1_1" departPos="5.10" departSpeed="0.00" departDelay="1.50" arrival="57682.00" arrivalLane="32978638#0_1" arrivalPos="49.29" arrivalSpeed="10.71" duration="53.00" routeLength="405.15" waitingTime="7.00" waitingCount="1" stopTime="0.00" timeLoss="16.45" rerouteNo="1" devices="tripinfo_carIn25202:1 routing_carIn25202:1" vType="default_016" speedFactor="0.85" vaporized=""/>
    <tripinfo id="carIn36103:1" depart="57620.00" departLane="653473569#5_1" departPos="5.10" departSpeed="0.00" departDelay="4.00" arrival="57683.00" arrivalLane="201956811#0_1" arrivalPos="40.40" arrivalSpeed="15.00" duration="63.00" routeLength="313.24" waitingTime="19.00" waitingCount="3" stopTime="0.00" timeLoss="41.61" rerouteNo="1" devices="tripinfo_carIn36103:1 routing_carIn36103:1" vType="default_016" speedFactor="1.12" vaporized=""/>
    <tripinfo id="h20540c1:1" depart="57634.00" departLane="10425609#0_1" departPos="5.10" departSpeed="0.00" departDelay="0.50" arrival="57684.00" arrivalLane="-653473569#5_1" arrivalPos="73.05" arrivalSpeed="16.49" duration="50.00" routeLength="312.95" waitingTime="19.00" waitingCount="1" stopTime="0.00" timeLoss="30.28" rerouteNo="1" devices="tripinfo_h20540c1:1 routing_h20540c1:1" vType="default_016" speedFactor="1.25" vaporized=""/>
    <tripinfo id="carIn55461:1" depart="57652.00" departLane="10425609#0_1" departPos="5.10" departSpeed="0.00" departDelay="0.30" arrival="57684.00" arrivalLane="201956810_1" arrivalPos="71.65" arrivalSpeed="15.67" duration="32.00" routeLength="255.78" waitingTime="2.00" waitingCount="1" stopTime="0.00" timeLoss="14.81" rerouteNo="1" devices="tripinfo_carIn55461:1 routing_carIn55461:1" vType="default_016" speedFactor="1.20" vaporized=""/>
    <tripinfo id="carIn102997:1" depart="57623.00" departLane="653473569#5_1" departPos="5.10" departSpeed="0.00" departDelay="4.80" arrival="57686.00" arrivalLane="201956811#0_1" arrivalPos="40.40" arrivalSpeed="12.15" duration="63.00" routeLength="313.24" waitingTime="16.00" waitingCount="2" stopTime="0.00" timeLoss="35.75" rerouteNo="1" devices="tripinfo_carIn102997:1 routing_carIn102997:1" vType="default_016" speedFactor="0.88" vaporized=""/>
    <tripinfo id="carIn33538:1" depart="57671.00" departLane="37386279_1" departPos="5.10" departSpeed="0.00" departDelay="0.30" arrival="57687.00" arrivalLane="-24634414#4_1" arrivalPos="22.88" arrivalSpeed="7.49" duration="16.00" routeLength="125.23" waitingTime="0.00" waitingCount="0" stopTime="0.00" timeLoss="3.95" rerouteNo="0" devices="tripinfo_carIn33538:1 routing_carIn33538:1" vType="default_016" speedFactor="0.93" vaporized=""/>
    <tripinfo id="carIn107084:1" depart="57601.00" departLane="124812856#0_1" departPos="5.10" departSpeed="0.00" departDelay="0.70" arrival="57689.00" arrivalLane="-653473569#5_1" arrivalPos="73.05" arrivalSpeed="9.87" duration="88.00" routeLength="450.40" waitingTime="33.00" waitingCount="2" stopTime="0.00" timeLoss="45.77" rerouteNo="1" devices="tripinfo_carIn107084:1 routing_carIn107084:1" vType="default_016" speedFactor="0.79" vaporized=""/>
    <tripinfo id="h645c1:1" depart="57622.00" departLane="266565295#5_1" departPos="5.10" departSpeed="0.00" departDelay="0.40" arrival="57691.00" arrivalLane="-315358253#1_1" arrivalPos="63.90" arrivalSpeed="12.41" duration="69.00" routeLength="547.76" waitingTime="10.00" waitingCount="2" stopTime="0.00" timeLoss="24.30" rerouteNo="1" devices="tripinfo_h645c1:1 routing_h645c1:1" vType="default_016" speedFactor="0.91" vaporized=""/>
    <tripinfo id="carIn131078:1" depart="57677.00" departLane="124812856#0_1" departPos="5.10" departSpeed="0.00" departDelay="41.60" arrival="57691.00" arrivalLane="201956810_1" arrivalPos="71.65" arrivalSpeed="14.59" duration="14.00" routeLength="134.91" waitingTime="0.00" waitingCount="0" stopTime="0.00" timeLoss="4.30" rerouteNo="1" devices="tripinfo_carIn131078:1 routing_carIn131078:1" vType="default_016" speedFactor="1.09" vaporized=""/>
    <tripinfo id="carIn114137:1" depart="57635.00" departLane="27920078#0_1" departPos="5.10" departSpeed="0.00" departDelay="4.10" arrival="57692.00" arrivalLane="-83304175#2_1" arrivalPos="189.34" arrivalSpeed="8.15" duration="57.00" routeLength="501.51" waitingTime="0.00" waitingCount="0" stopTime="0.00" timeLoss="11.02" rerouteNo="1" devices="tripinfo_carIn114137:1 routing_carIn114137:1" vType="default_016" speedFactor="1.02" vaporized=""/>
    <tripinfo id="carIn26410:1" depart="57621.00" departLane="124812856#0_1" departPos="5.10" departSpeed="0.00" departDelay="7.50" arrival="57697.00" arrivalLane="202070434#2_2" arrivalPos="39.03" arrivalSpeed="12.97" duration="76.00" routeLength="569.75" waitingTime="12.00" waitingCount="2" stopTime="0.00" timeLoss="32.38" rerouteNo="1" devices="tripinfo_carIn26410:1 routing_carIn26410:1" vType="default_016" speedFactor="0.95" vaporized=""/>
    <tripinfo id="h21130c2:1" depart="57630.00" departLane="10425609#0_1" departPos="5.10" departSpeed="0.00" departDelay="0.10" arrival="57698.00" arrivalLane="202070434#2_1" arrivalPos="39.03" arrivalSpeed="15.37" duration="68.00" routeLength="432.30" waitingTime="25.00" waitingCount="1" stopTime="0.00" timeLoss="39.80" rerouteNo="1" devices="tripinfo_h21130c2:1 routing_h21130c2:1" vType="default_016" speedFactor="1.15" vaporized=""/>
    <tripinfo id="carIn96537:1" depart="57615.00" departLane="124812856#0_1" departPos="5.10" departSpeed="0.00" departDelay="3.80" arrival="57700.00" arrivalLane="202070434#2_1" arrivalPos="39.03" arrivalSpeed="12.86" duration="85.00" routeLength="569.75" waitingTime="19.00" waitingCount="1" stopTime="0.00" timeLoss="40.96" rerouteNo="1" devices="tripinfo_carIn96537:1 routing_carIn96537:1" vType="default_016" speedFactor="0.94" vaporized=""/>
    <tripinfo id="carIn22637:1" depart="57636.00" departLane="27920078#0_1" departPos="5.10" departSpeed="0.00" departDelay="3.50" arrival="57701.00" arrivalLane="-83304175#2_1" arrivalPos="189.34" arrivalSpeed="6.07" duration="65.00" routeLength="501.51" waitingTime="2.00" waitingCount="2" stopTime="0.00" timeLoss="11.49" rerouteNo="1" devices="tripinfo_carIn22637:1 routing_carIn22637:1" vType="default_016" speedFactor="0.88" vaporized=""/>
    <tripinfo id="carIn12152:1" depart="57647.00" departLane="24599188#0.94_1" departPos="5.10" departSpeed="0.00" departDelay="0.50" arrival="57701.00" arrivalLane="24693977#1_1" arrivalPos="96.83" arrivalSpeed="14.65" duration="54.00" routeLength="511.77" waitingTime="0.00" waitingCount="0" stopTime="0.00" timeLoss="10.24" rerouteNo="1" devices="tripinfo_carIn12152:1 routing_carIn12152:1" vType="default_016" speedFactor="1.09" vaporized=""/>
    <tripinfo id="carIn12900:1" depart="57697.00" departLane="124812856#0_1" departPos="5.10" departSpeed="0.00" departDelay="48.80" arrival="57714.00" arrivalLane="201956810_1" arrivalPos="71.65" arrivalSpeed="11.33" duration="17.00" routeLength="134.91" waitingTime="0.00" waitingCount="0" stopTime="0.00" timeLoss="4.18" rerouteNo="1" devices="tripinfo_carIn12900:1 routing_carIn12900:1" vType="default_016" speedFactor="0.83" vaporized=""/>
    <tripinfo id="carIn7887:1" depart="57661.00" departLane="27920078#0_1" departPos="5.10" departSpeed="0.00" departDelay="0.50" arrival="57715.00" arrivalLane="-83304175#2_1" arrivalPos="189.34" arrivalSpeed="7.73" duration="54.00" routeLength="501.51" waitingTime="0.00" waitingCount="0" stopTime="0.00" timeLoss="7.20" rerouteNo="1" devices="tripinfo_carIn7887:1 routing_carIn7887:1" vType="default_016" speedFactor="1.01" vaporized=""/>
    <tripinfo id="carIn124416:1" depart="57663.00" departLane="-173169611#0_1" departPos="5.10" departSpeed="0.00" departDelay="0.50" arrival="57720.00" arrivalLane="201956820_1" arrivalPos="48.33" arrivalSpeed="13.30" duration="57.00" routeLength="122.35" waitingTime="39.00" waitingCount="1" stopTime="0.00" timeLoss="47.33" rerouteNo="0" devices="tripinfo_carIn124416:1 routing_carIn124416:1" vType="default_016" speedFactor="1.02" vaporized=""/>
    <tripinfo id="h3688c1:1" depart="57679.00" departLane="315358253#1_1" departPos="5.10" departSpeed="0.00" departDelay="0.50" arrival="57720.00" arrivalLane="32978638#0_1" arrivalPos="49.29" arrivalSpeed="15.76" duration="41.00" routeLength="405.15" waitingTime="1.00" waitingCount="1" stopTime="0.00" timeLoss="14.89" rerouteNo="1" devices="tripinfo_h3688c1:1 routing_h3688c1:1" vType="default_016" speedFactor="1.17" vaporized=""/>
    <tripinfo id="carIn75554:1" depart="57626.00" departLane="653473569#5_1" departPos="5.10" departSpeed="0.00" departDelay="5.20" arrival="57721.00" arrivalLane="201956811#0_1" arrivalPos="40.40" arrivalSpeed="11.95" duration="95.00" routeLength="313.24" waitingTime="40.00" waitingCount="3" stopTime="0.00" timeLoss="68.56" rerouteNo="1" devices="tripinfo_carIn75554:1 routing_carIn75554:1" vType="default_016" speedFactor="0.90" vaporized=""/>
    <tripinfo id="randUni10474:1" depart="57605.00" departLane="124812856#0_1" departPos="5.10" departSpeed="0.00" departDelay="0.20" arrival="57723.00" arrivalLane="-653473569#5_1" arrivalPos="73.05" arrivalSpeed="13.19" duration="118.00" routeLength="450.40" waitingTime="56.00" waitingCount="3" stopTime="0.00" timeLoss="83.50" rerouteNo="1" devices="tripinfo_randUni10474:1 routing_randUni10474:1" vType="random_016" speedFactor="0.97" vaporized=""/>
    <tripinfo id="randUni20090:1" depart="57629.00" departLane="653473569#5_1" departPos="5.10" departSpeed="0.00" departDelay="1.00" arrival="57723.00" arrivalLane="201956811#0_1" arrivalPos="40.40" arrivalSpeed="13.16" duration="94.00" routeLength="313.24" waitingTime="37.00" waitingCount="3" stopTime="0.00" timeLoss="69.76" rerouteNo="1" devices="tripinfo_randUni20090:1 routing_randUni20090:1" vType="random_016" speedFactor="0.98" vaporized=""/>
    <tripinfo id="carIn55090:1" depart="57666.00" departLane="-173169611#0_1" departPos="5.10" departSpeed="0.00" departDelay="1.40" arrival="57723.00" arrivalLane="201956820_1" arrivalPos="48.33" arrivalSpeed="14.57" duration="57.00" routeLength="122.35" waitingTime="38.00" waitingCount="1" stopTime="0.00" timeLoss="47.27" rerouteNo="0" devices="tripinfo_carIn55090:1 routing_carIn55090:1" vType="default_016" speedFactor="1.10" vaporized=""/>
    <tripinfo id="carIn77943:1" depart="57608.00" departLane="124812856#0_1" departPos="5.10" departSpeed="0.00" departDelay="2.50" arrival="57725.00" arrivalLane="-653473569#5_1" arrivalPos="73.05" arrivalSpeed="13.86" duration="117.00" routeLength="450.40" waitingTime="53.00" waitingCount="3" stopTime="0.00" timeLoss="84.64" rerouteNo="1" devices="tripinfo_carIn77943:1 routing_carIn77943:1" vType="default_016" speedFactor="1.04" vaporized=""/>
    <tripinfo id="carIn51024:1" depart="57627.00" departLane="124812856#0_1" departPos="5.10" departSpeed="0.00" departDelay="10.90" arrival="57726.00" arrivalLane="202070434#2_1" arrivalPos="39.03" arrivalSpeed="13.35" duration="99.00" routeLength="569.75" waitingTime="30.00" waitingCount="2" stopTime="0.00" timeLoss="58.85" rerouteNo="1" devices="tripinfo_carIn51024:1 routing_carIn51024:1" vType="default_016" speedFactor="1.04" vaporized=""/>
    <tripinfo id="carIn128705:1" depart="57630.00" departLane="124812856#0_1" departPos="5.10" departSpeed="0.00" departDelay="11.60" arrival="57730.00" arrivalLane="202070434#2_1" arrivalPos="39.03" arrivalSpeed="12.43" duration="100.00" routeLength="569.75" waitingTime="25.00" waitingCount="5" stopTime="0.00" timeLoss="54.10" rerouteNo="1" devices="tripinfo_carIn128705:1 routing_carIn128705:1" vType="default_016" speedFactor="0.91" vaporized=""/>
    <tripinfo id="carIn12775:1" depart="57676.00" departLane="10425609#0_1" departPos="5.10" departSpeed="0.00" departDelay="0.60" arrival="57745.00" arrivalLane="-653473569#5_1" arrivalPos="73.05" arrivalSpeed="12.05" duration="69.00" routeLength="312.95" waitingTime="27.00" waitingCount="2" stopTime="0.00" timeLoss="41.82" rerouteNo="1" devices="tripinfo_carIn12775:1 routing_carIn12775:1" vType="default_016" speedFactor="0.89" vaporized=""/>
    <tripinfo id="h317c2:1" depart="57707.00" departLane="-32978638#0_1" departPos="5.10" departSpeed="0.00" departDelay="0.10" arrival="57756.00" arrivalLane="-266565295#5_1" arrivalPos="172.76" arrivalSpeed="10.54" duration="49.00" routeLength="370.53" waitingTime="7.00" waitingCount="1" stopTime="0.00" timeLoss="14.96" rerouteNo="1" devices="tripinfo_h317c2:1 routing_h317c2:1" vType="default_016" speedFactor="0.81" vaporized=""/>
    <tripinfo id="randUni22709:1" depart="57718.00" departLane="315358253#1_1" departPos="5.10" departSpeed="0.00" departDelay="0.20" arrival="57756.00" arrivalLane="32978638#0_1" arrivalPos="49.29" arrivalSpeed="13.23" duration="38.00" routeLength="405.15" waitingTime="0.00" waitingCount="0" stopTime="0.00" timeLoss="7.54" rerouteNo="1" devices="tripinfo_randUni22709:1 routing_randUni22709:1" vType="random_016" speedFactor="0.99" vaporized=""/>
    <tripinfo id="h18569c2:1" depart="57648.00" departLane="27920078#0_1" departPos="5.10" departSpeed="0.00" departDelay="8.00" arrival="57758.00" arrivalLane="-266565295#5_1" arrivalPos="172.76" arrivalSpeed="14.47" duration="110.00" routeLength="1199.37" waitingTime="21.00" waitingCount="1" stopTime="0.00" timeLoss="39.15" rerouteNo="1" devices="tripinfo_h18569c2:1 routing_h18569c2:1" vType="default_016" speedFactor="1.23" vaporized=""/>
    <tripinfo id="h19699c1:3" depart="57647.00" departLane="27920078#0_1" departPos="5.10" departSpeed="0.00" departDelay="8.60" arrival="57760.00" arrivalLane="-266565295#5_1" arrivalPos="172.76" arrivalSpeed="12.64" duration="113.00" routeLength="1204.91" waitingTime="5.00" waitingCount="2" stopTime="0.00" timeLoss="20.51" rerouteNo="1" devices="tripinfo_h19699c1:3 routing_h19699c1:3" vType="default_016" speedFactor="0.94" vaporized=""/>
    <tripinfo id="carIn111853:1" depart="57634.00" departLane="27920078#0_1" departPos="5.10" departSpeed="0.00" departDelay="4.80" arrival="57761.00" arrivalLane="-266565295#5_2" arrivalPos="172.76" arrivalSpeed="11.41" duration="127.00" routeLength="1204.91" waitingTime="10.00" waitingCount="1" stopTime="0.00" timeLoss="23.58" rerouteNo="1" devices="tripinfo_carIn111853:1 routing_carIn111853:1" vType="default_016" speedFactor="0.84" vaporized=""/>
    <tripinfo id="60.39" depart="57643.00" departLane="10425609#0_1" departPos="12.10" departSpeed="0.00" departDelay="0.50" arrival="57761.00" arrivalLane="202070434#2_1" arrivalPos="39.03" arrivalSpeed="13.63" duration="118.00" routeLength="425.30" waitingTime="45.00" waitingCount="5" stopTime="0.00" timeLoss="86.03" rerouteNo="1" devices="tripinfo_60.39 routing_60.39" vType="bus" speedFactor="1.00" vaporized=""/>
    <tripinfo id="h330c1:1" depart="57736.00" departLane="-32978638#0_1" departPos="5.10" departSpeed="0.00" departDelay="0.20" arrival="57764.00" arrivalLane="-266565295#5_1" arrivalPos="172.76" arrivalSpeed="17.57" duration="28.00" routeLength="370.53" waitingTime="0.00" waitingCount="0" stopTime="0.00" timeLoss="6.04" rerouteNo="1" devices="tripinfo_h330c1:1 routing_h330c1:1" vType="default_016" speedFactor="1.29" vaporized=""/>
    <tripinfo id="h134c1:3" depart="57721.00" departLane="315358253#1_1" departPos="5.10" departSpeed="0.00" departDelay="1.60" arrival="57765.00" arrivalLane="32978638#0_1" arrivalPos="49.29" arrivalSpeed="15.27" duration="44.00" routeLength="405.15" waitingTime="5.00" waitingCount="1" stopTime="0.00" timeLoss="16.65" rerouteNo="1" devices="tripinfo_h134c1:3 routing_h134c1:3" vType="default_016" speedFactor="1.11" vaporized=""/>
    <tripinfo id="carIn106325:1" depart="57713.00" departLane="27920078#0_1" departPos="5.10" departSpeed="0.00" departDelay="0.10" arrival="57768.00" arrivalLane="-83304175#2_1" arrivalPos="189.34" arrivalSpeed="9.48" duration="55.00" routeLength="501.51" waitingTime="0.00" waitingCount="0" stopTime="0.00" timeLoss="14.81" rerouteNo="1" devices="tripinfo_carIn106325:1 routing_carIn106325:1" vType="default_016" speedFactor="1.19" vaporized=""/>
    <tripinfo id="carIn99509:1" depart="57720.00" departLane="-32978638#0_1" departPos="5.10" departSpeed="0.00" departDelay="0.20" arrival="57771.00" arrivalLane="-315358253#1_1" arrivalPos="63.90" arrivalSpeed="13.74" duration="51.00" routeLength="422.17" waitingTime="8.00" waitingCount="1" stopTime="0.00" timeLoss="19.04" rerouteNo="1" devices="tripinfo_carIn99509:1 routing_carIn99509:1" vType="default_015" speedFactor="1.00" vaporized=""/>
    <tripinfo id="carIn106665:1" depart="57659.00" departLane="266565295#5_1" departPos="5.10" departSpeed="0.00" departDelay="1.80" arrival="57775.00" arrivalLane="24693977#1_1" arrivalPos="96.83" arrivalSpeed="15.10" duration="116.00" routeLength="834.40" waitingTime="48.00" waitingCount="1" stopTime="0.00" timeLoss="61.89" rerouteNo="1" devices="tripinfo_carIn106665:1 routing_carIn106665:1" vType="default_016" speedFactor="1.13" vaporized=""/>
    <tripinfo id="carIn99738:1" depart="57718.00" departLane="27920078#0_1" departPos="5.10" departSpeed="0.00" departDelay="0.30" arrival="57775.00" arrivalLane="-83304175#2_1" arrivalPos="189.34" arrivalSpeed="7.42" duration="57.00" routeLength="501.51" waitingTime="0.00" waitingCount="0" stopTime="0.00" timeLoss="8.65" rerouteNo="1" devices="tripinfo_carIn99738:1 routing_carIn99738:1" vType="default_016" speedFactor="0.99" vaporized=""/>
    <tripinfo id="carIn74045:1" depart="57724.00" departLane="315358253#1_1" departPos="5.10" departSpeed="0.00" departDelay="3.00" arrival="57779.00" arrivalLane="32978638#0_1" arrivalPos="49.29" arrivalSpeed="13.99" duration="55.00" routeLength="405.15" waitingTime="9.00" waitingCount="2" stopTime="0.00" timeLoss="26.66" rerouteNo="1" devices="tripinfo_carIn74045:1 routing_carIn74045:1" vType="default_016" speedFactor="1.08" vaporized=""/>
    <tripinfo id="h10915c2:1" depart="57626.00" departLane="315358253#1_1" departPos="5.10" departSpeed="0.00" departDelay="0.20" arrival="57782.00" arrivalLane="-653473569#5_1" arrivalPos="73.05" arrivalSpeed="12.34" duration="156.00" routeLength="970.09" waitingTime="52.00" waitingCount="3" stopTime="0.00" timeLoss="78.52" rerouteNo="1" devices="tripinfo_h10915c2:1 routing_h10915c2:1" vType="default_016" speedFactor="0.92" vaporized=""/>
    <tripinfo id="11_frequency1.42" depart="57739.00" departLane="315358253#1_1" departPos="12.10" departSpeed="0.00" departDelay="0.30" arrival="57786.00" arrivalLane="32978638#0_1" arrivalPos="49.29" arrivalSpeed="13.58" duration="47.00" routeLength="398.15" waitingTime="0.00" waitingCount="0" stopTime="0.00" timeLoss="16.89" rerouteNo="1" devices="tripinfo_11_frequency1.42 routing_11_frequency1.42" vType="bus" speedFactor="1.00" vaporized=""/>
    <tripinfo id="h3568c1:3" depart="57656.00" departLane="266565295#5_1" departPos="5.10" departSpeed="0.00" departDelay="0.80" arrival="57790.00" arrivalLane="-24634415_1" arrivalPos="64.03" arrivalSpeed="12.00" duration="134.00" routeLength="810.20" waitingTime="46.00" waitingCount="1" stopTime="0.00" timeLoss="64.54" rerouteNo="1" devices="tripinfo_h3568c1:3 routing_h3568c1:3" vType="default_016" speedFactor="0.94" vaporized=""/>
    <tripinfo id="h19989c1:1" depart="57730.00" departLane="10425609#0_1" departPos="5.10" departSpeed="0.00" departDelay="0.60" arrival="57791.00" arrivalLane="-653473569#5_1" arrivalPos="73.05" arrivalSpeed="11.63" duration="61.00" routeLength="312.95" waitingTime="19.00" waitingCount="2" stopTime="0.00" timeLoss="34.40" rerouteNo="1" devices="tripinfo_h19989c1:1 routing_h19989c1:1" vType="default_016" speedFactor="0.92" vaporized=""/>
    <tripinfo id="carIn37268:1" depart="57636.00" departLane="653473569#5_1" departPos="5.10" departSpeed="0.00" departDelay="0.90" arrival="57792.00" arrivalLane="201956811#0_1" arrivalPos="40.40" arrivalSpeed="11.76" duration="156.00" routeLength="313.24" waitingTime="98.00" waitingCount="3" stopTime="0.00" timeLoss="129.44" rerouteNo="1" devices="tripinfo_carIn37268:1 routing_carIn37268:1" vType="default_016" speedFactor="0.89" vaporized=""/>
    <tripinfo id="carIn92858:1" depart="57733.00" departLane="10425609#0_1" departPos="5.10" departSpeed="0.00" departDelay="0.80" arrival="57793.00" arrivalLane="-653473569#5_1" arrivalPos="73.05" arrivalSpeed="13.93" duration="60.00" routeLength="312.95" waitingTime="19.00" waitingCount="2" stopTime="0.00" timeLoss="36.47" rerouteNo="1" devices="tripinfo_carIn92858:1 routing_carIn92858:1" vType="default_016" speedFactor="1.03" vaporized=""/>
    <tripinfo id="carIn129760:1" depart="57661.00" departLane="653473569#5_1" departPos="5.10" departSpeed="0.00" departDelay="0.80" arrival="57794.00" arrivalLane="201956811#0_1" arrivalPos="40.40" arrivalSpeed="12.88" duration="133.00" routeLength="313.24" waitingTime="87.00" waitingCount="3" stopTime="0.00" timeLoss="107.22" rerouteNo="1" devices="tripinfo_carIn129760:1 routing_carIn129760:1" vType="default_016" speedFactor="0.95" vaporized=""/>
    <tripinfo id="carIn75079:1" depart="57747.00" departLane="-173169611#0_1" departPos="5.10" departSpeed="0.00" departDelay="0.60" arrival="57796.00" arrivalLane="201956820_1" arrivalPos="48.33" arrivalSpeed="13.64" duration="49.00" routeLength="122.35" waitingTime="31.00" waitingCount="1" stopTime="0.00" timeLoss="39.25" rerouteNo="0" devices="tripinfo_carIn75079:1 routing_carIn75079:1" vType="default_016" speedFactor="1.01" vaporized=""/>
    <tripinfo id="carIn117869:1" depart="57758.00" departLane="-32978638#0_1" departPos="5.10" departSpeed="0.00" departDelay="0.60" arrival="57800.00" arrivalLane="-315358253#1_1" arrivalPos="63.90" arrivalSpeed="12.58" duration="42.00" routeLength="422.17" waitingTime="0.00" waitingCount="0" stopTime="0.00" timeLoss="6.94" rerouteNo="1" devices="tripinfo_carIn117869:1 routing_carIn117869:1" vType="default_016" speedFactor="0.91" vaporized=""/>
    <tripinfo id="carIn101439:1" depart="57736.00" departLane="10425609#0_1" departPos="5.10" departSpeed="0.00" departDelay="1.70" arrival="57805.00" arrivalLane="-653473569#5_1" arrivalPos="73.05" arrivalSpeed="12.38" duration="69.00" routeLength="312.95" waitingTime="26.00" waitingCount="3" stopTime="0.00" timeLoss="43.43" rerouteNo="1" devices="tripinfo_carIn101439:1 routing_carIn101439:1" vType="default_016" speedFactor="0.94" vaporized=""/>
    <tripinfo id="carIn84229:1" depart="57739.00" departLane="10425609#0_1" departPos="5.10" departSpeed="0.00" departDelay="2.20" arrival="57807.00" arrivalLane="-653473569#5_1" arrivalPos="73.05" arrivalSpeed="13.94" duration="68.00" routeLength="312.95" waitingTime="23.00" waitingCount="3" stopTime="0.00" timeLoss="44.45" rerouteNo="1" devices="tripinfo_carIn84229:1 routing_carIn84229:1" vType="default_016" speedFactor="1.04" vaporized=""/>
    <tripinfo id="carIn98605:1" depart="57743.00" departLane="315358253#1_1" departPos="5.10" departSpeed="0.00" departDelay="2.20" arrival="57807.00" arrivalLane="32978638#0_1" arrivalPos="49.29" arrivalSpeed="12.71" duration="64.00" routeLength="405.15" waitingTime="16.00" waitingCount="1" stopTime="0.00" timeLoss="33.21" rerouteNo="1" devices="tripinfo_carIn98605:1 routing_carIn98605:1" vType="default_016" speedFactor="1.00" vaporized=""/>
    <tripinfo id="carIn129626:1" depart="57664.00" departLane="653473569#5_1" departPos="5.10" departSpeed="0.00" departDelay="1.60" arrival="57810.00" arrivalLane="201956811#0_1" arrivalPos="40.40" arrivalSpeed="12.86" duration="146.00" routeLength="313.24" waitingTime="91.00" waitingCount="5" stopTime="0.00" timeLoss="122.68" rerouteNo="1" devices="tripinfo_carIn129626:1 routing_carIn129626:1" vType="default_016" speedFactor="1.02" vaporized=""/>
    <tripinfo id="h9878c1:3" depart="57686.00" departLane="-24693977#1_1" departPos="5.10" departSpeed="0.00" departDelay="0.70" arrival="57811.00" arrivalLane="32978638#0_1" arrivalPos="49.29" arrivalSpeed="15.07" duration="125.00" routeLength="677.49" waitingTime="58.00" waitingCount="1" stopTime="0.00" timeLoss="81.15" rerouteNo="1" devices="tripinfo_h9878c1:3 routing_h9878c1:3" vType="default_016" speedFactor="1.14" vaporized=""/>
    <tripinfo id="h20539c1:3" depart="57667.00" departLane="653473569#5_1" departPos="5.10" departSpeed="0.00" departDelay="2.20" arrival="57812.00" arrivalLane="201956811#0_1" arrivalPos="40.40" arrivalSpeed="13.90" duration="145.00" routeLength="313.24" waitingTime="90.00" waitingCount="5" stopTime="0.00" timeLoss="123.03" rerouteNo="1" devices="tripinfo_h20539c1:3 routing_h20539c1:3" vType="default_016" speedFactor="1.08" vaporized=""/>