<?xml version="1.0" encoding="UTF-8"?>

<!-- generated on 2023-08-31 12:38:59 by Eclipse SUMO libsumo Version 1.18.0
<configuration xmlns:xsi="http://www.w3.org/2001/XMLSchema-instance" xsi:noNamespaceSchemaLocation="http://sumo.dlr.de/xsd/libsumoConfiguration.xsd">

    <input>
        <net-file value="/home/stefan/RESCO/./environments/ingolstadt7/ingolstadt7.net.xml"/>
        <route-files value="/home/stefan/RESCO/./environments/ingolstadt7/ingolstadt7.rou.xml"/>
    </input>

    <output>
        <tripinfo-output value="/home/stefan/results/RAINBOW-tr0-ingolstadt7-7-drq_norm-wait_norm/tripinfo_58.xml"/>
        <tripinfo-output.write-unfinished value="true"/>
    </output>

    <time>
        <begin value="57600"/>
        <end value="61200"/>
    </time>

    <processing>
        <time-to-teleport value="-1"/>
    </processing>

    <report>
        <no-warnings value="True"/>
        <no-step-log value="True"/>
    </report>

    <random_number>
        <random value="true"/>
    </random_number>

</configuration>
-->

<tripinfos xmlns:xsi="http://www.w3.org/2001/XMLSchema-instance" xsi:noNamespaceSchemaLocation="http://sumo.dlr.de/xsd/tripinfo_file.xsd">
    <tripinfo id="carIn28951:1" depart="57606.00" departLane="10425609#0_1" departPos="5.10" departSpeed="0.00" departDelay="0.20" arrival="57636.00" arrivalLane="-653473569#5_1" arrivalPos="73.05" arrivalSpeed="14.12" duration="30.00" routeLength="312.95" waitingTime="0.00" waitingCount="0" stopTime="0.00" timeLoss="6.65" rerouteNo="1" devices="tripinfo_carIn28951:1 routing_carIn28951:1" vType="default_016" speedFactor="1.03" vaporized=""/>
    <tripinfo id="carIn105842:1" depart="57601.00" departLane="653473569#5_1" departPos="5.10" departSpeed="0.00" departDelay="0.80" arrival="57639.00" arrivalLane="201956811#0_1" arrivalPos="40.40" arrivalSpeed="13.84" duration="38.00" routeLength="313.24" waitingTime="5.00" waitingCount="1" stopTime="0.00" timeLoss="15.92" rerouteNo="1" devices="tripinfo_carIn105842:1 routing_carIn105842:1" vType="default_016" speedFactor="1.05" vaporized=""/>
    <tripinfo id="h20232c1:2" depart="57634.00" departLane="-173169611#0_1" departPos="5.10" departSpeed="0.00" departDelay="0.50" arrival="57650.00" arrivalLane="201956820_1" arrivalPos="48.33" arrivalSpeed="12.66" duration="16.00" routeLength="122.35" waitingTime="0.00" waitingCount="0" stopTime="0.00" timeLoss="5.26" rerouteNo="0" devices="tripinfo_h20232c1:2 routing_h20232c1:2" vType="default_016" speedFactor="0.99" vaporized=""/>
    <tripinfo id="h15454c2:3" depart="57612.00" departLane="24608844_1" departPos="5.10" departSpeed="0.00" departDelay="0.50" arrival="57656.00" arrivalLane="32978638#0_1" arrivalPos="49.29" arrivalSpeed="14.03" duration="44.00" routeLength="354.79" waitingTime="2.00" waitingCount="1" stopTime="0.00" timeLoss="12.25" rerouteNo="1" devices="tripinfo_h15454c2:3 routing_h15454c2:3" vType="default_016" speedFactor="1.07" vaporized=""/>
    <tripinfo id="carIn106322:1" depart="57614.00" departLane="653473569#5_1" departPos="5.10" departSpeed="0.00" departDelay="2.20" arrival="57658.00" arrivalLane="201956811#0_1" arrivalPos="40.40" arrivalSpeed="10.55" duration="44.00" routeLength="313.24" waitingTime="3.00" waitingCount="1" stopTime="0.00" timeLoss="13.94" rerouteNo="1" devices="tripinfo_carIn106322:1 routing_carIn106322:1" vType="default_016" speedFactor="0.79" vaporized=""/>
    <tripinfo id="carIn5482:1" depart="57617.00" departLane="653473569#5_1" departPos="5.10" departSpeed="0.00" departDelay="3.60" arrival="57660.00" arrivalLane="201956811#0_1" arrivalPos="40.40" arrivalSpeed="12.97" duration="43.00" routeLength="313.24" waitingTime="3.00" waitingCount="1" stopTime="0.00" timeLoss="19.17" rerouteNo="1" devices="tripinfo_carIn5482:1 routing_carIn5482:1" vType="default_016" speedFactor="1.03" vaporized=""/>
    <tripinfo id="carIn36103:1" depart="57620.00" departLane="653473569#5_1" departPos="5.10" departSpeed="0.00" departDelay="4.00" arrival="57662.00" arrivalLane="201956811#0_1" arrivalPos="40.40" arrivalSpeed="12.12" duration="42.00" routeLength="313.24" waitingTime="2.00" waitingCount="1" stopTime="0.00" timeLoss="16.97" rerouteNo="1" devices="tripinfo_carIn36103:1 routing_carIn36103:1" vType="default_016" speedFactor="0.96" vaporized=""/>
    <tripinfo id="carIn25202:1" depart="57629.00" departLane="315358253#1_1" departPos="5.10" departSpeed="0.00" departDelay="1.50" arrival="57670.00" arrivalLane="32978638#0_1" arrivalPos="49.29" arrivalSpeed="11.53" duration="41.00" routeLength="405.15" waitingTime="0.00" waitingCount="0" stopTime="0.00" timeLoss="6.71" rerouteNo="1" devices="tripinfo_carIn25202:1 routing_carIn25202:1" vType="default_016" speedFactor="0.90" vaporized=""/>
    <tripinfo id="carIn102997:1" depart="57623.00" departLane="653473569#5_1" departPos="5.10" departSpeed="0.00" departDelay="4.80" arrival="57671.00" arrivalLane="201956811#0_1" arrivalPos="40.40" arrivalSpeed="12.56" duration="48.00" routeLength="313.24" waitingTime="4.00" waitingCount="1" stopTime="0.00" timeLoss="23.17" rerouteNo="1" devices="tripinfo_carIn102997:1 routing_carIn102997:1" vType="default_016" speedFactor="0.96" vaporized=""/>
    <tripinfo id="h645c1:1" depart="57622.00" departLane="266565295#5_1" departPos="5.10" departSpeed="0.00" departDelay="0.40" arrival="57673.00" arrivalLane="-315358253#1_1" arrivalPos="63.90" arrivalSpeed="12.52" duration="51.00" routeLength="547.76" waitingTime="0.00" waitingCount="0" stopTime="0.00" timeLoss="6.74" rerouteNo="1" devices="tripinfo_h645c1:1 routing_h645c1:1" vType="default_016" speedFactor="0.93" vaporized=""/>
    <tripinfo id="carIn89578:1" depart="57612.00" departLane="124812856#0_1" departPos="5.10" departSpeed="0.00" departDelay="1.60" arrival="57676.00" arrivalLane="201956810_1" arrivalPos="71.65" arrivalSpeed="16.25" duration="64.00" routeLength="134.91" waitingTime="44.00" waitingCount="1" stopTime="0.00" timeLoss="54.97" rerouteNo="1" devices="tripinfo_carIn89578:1 routing_carIn89578:1" vType="default_016" speedFactor="1.20" vaporized=""/>
    <tripinfo id="carIn124416:1" depart="57663.00" departLane="-173169611#0_1" departPos="5.10" departSpeed="0.00" departDelay="0.50" arrival="57678.00" arrivalLane="201956820_1" arrivalPos="48.33" arrivalSpeed="11.75" duration="15.00" routeLength="122.35" waitingTime="0.00" waitingCount="0" stopTime="0.00" timeLoss="4.31" rerouteNo="0" devices="tripinfo_carIn124416:1 routing_carIn124416:1" vType="default_016" speedFactor="0.91" vaporized=""/>
    <tripinfo id="carIn55090:1" depart="57666.00" departLane="-173169611#0_1" departPos="5.10" departSpeed="0.00" departDelay="1.40" arrival="57683.00" arrivalLane="201956820_1" arrivalPos="48.33" arrivalSpeed="10.24" duration="17.00" routeLength="122.35" waitingTime="0.00" waitingCount="0" stopTime="0.00" timeLoss="4.14" rerouteNo="0" devices="tripinfo_carIn55090:1 routing_carIn55090:1" vType="default_016" speedFactor="0.79" vaporized=""/>
    <tripinfo id="carIn33538:1" depart="57671.00" departLane="37386279_1" departPos="5.10" departSpeed="0.00" departDelay="0.30" arrival="57686.00" arrivalLane="-24634414#4_1" arrivalPos="22.88" arrivalSpeed="8.22" duration="15.00" routeLength="125.23" waitingTime="0.00" waitingCount="0" stopTime="0.00" timeLoss="4.58" rerouteNo="0" devices="tripinfo_carIn33538:1 routing_carIn33538:1" vType="default_016" speedFactor="1.10" vaporized=""/>
    <tripinfo id="carIn75554:1" depart="57626.00" departLane="653473569#5_1" departPos="5.10" departSpeed="0.00" departDelay="5.20" arrival="57688.00" arrivalLane="201956811#0_1" arrivalPos="40.40" arrivalSpeed="11.87" duration="62.00" routeLength="313.24" waitingTime="12.00" waitingCount="3" stopTime="0.00" timeLoss="36.12" rerouteNo="1" devices="tripinfo_carIn75554:1 routing_carIn75554:1" vType="default_016" speedFactor="0.91" vaporized=""/>
    <tripinfo id="carIn114137:1" depart="57634.00" departLane="27920078#0_1" departPos="5.10" departSpeed="0.00" departDelay="3.10" arrival="57694.00" arrivalLane="-83304175#2_1" arrivalPos="189.34" arrivalSpeed="6.61" duration="60.00" routeLength="501.51" waitingTime="0.00" waitingCount="0" stopTime="0.00" timeLoss="9.53" rerouteNo="1" devices="tripinfo_carIn114137:1 routing_carIn114137:1" vType="default_016" speedFactor="0.94" vaporized=""/>
    <tripinfo id="randUni10474:1" depart="57605.00" departLane="124812856#0_1" departPos="5.10" departSpeed="0.00" departDelay="0.20" arrival="57695.00" arrivalLane="-653473569#5_1" arrivalPos="73.05" arrivalSpeed="14.91" duration="90.00" routeLength="450.40" waitingTime="49.00" waitingCount="1" stopTime="0.00" timeLoss="59.12" rerouteNo="1" devices="tripinfo_randUni10474:1 routing_randUni10474:1" vType="random_016" speedFactor="1.10" vaporized=""/>
    <tripinfo id="randUni20090:1" depart="57629.00" departLane="653473569#5_1" departPos="5.10" departSpeed="0.00" departDelay="1.00" arrival="57695.00" arrivalLane="201956811#0_1" arrivalPos="40.40" arrivalSpeed="10.66" duration="66.00" routeLength="313.24" waitingTime="11.00" waitingCount="3" stopTime="0.00" timeLoss="36.65" rerouteNo="1" devices="tripinfo_randUni20090:1 routing_randUni20090:1" vType="random_016" speedFactor="0.83" vaporized=""/>
    <tripinfo id="carIn22637:1" depart="57635.00" departLane="27920078#0_1" departPos="5.10" departSpeed="0.00" departDelay="2.50" arrival="57696.00" arrivalLane="-83304175#2_1" arrivalPos="189.34" arrivalSpeed="7.98" duration="61.00" routeLength="501.51" waitingTime="0.00" waitingCount="0" stopTime="0.00" timeLoss="12.71" rerouteNo="1" devices="tripinfo_carIn22637:1 routing_carIn22637:1" vType="default_016" speedFactor="0.98" vaporized=""/>
    <tripinfo id="carIn107084:1" depart="57601.00" departLane="124812856#0_1" departPos="5.10" departSpeed="0.00" departDelay="0.70" arrival="57698.00" arrivalLane="-653473569#5_1" arrivalPos="73.05" arrivalSpeed="14.78" duration="97.00" routeLength="450.40" waitingTime="52.00" waitingCount="1" stopTime="0.00" timeLoss="65.77" rerouteNo="1" devices="tripinfo_carIn107084:1 routing_carIn107084:1" vType="default_016" speedFactor="1.07" vaporized=""/>
    <tripinfo id="carIn28488:1" depart="57611.00" departLane="653473569#5_1" departPos="5.10" departSpeed="0.00" departDelay="0.80" arrival="57700.00" arrivalLane="201956820_1" arrivalPos="48.33" arrivalSpeed="13.94" duration="89.00" routeLength="437.07" waitingTime="42.00" waitingCount="2" stopTime="0.00" timeLoss="59.34" rerouteNo="1" devices="tripinfo_carIn28488:1 routing_carIn28488:1" vType="default_016" speedFactor="1.09" vaporized=""/>
    <tripinfo id="carIn37268:1" depart="57636.00" departLane="653473569#5_1" departPos="5.10" departSpeed="0.00" departDelay="0.90" arrival="57701.00" arrivalLane="201956811#0_1" arrivalPos="40.40" arrivalSpeed="12.10" duration="65.00" routeLength="313.24" waitingTime="17.00" waitingCount="4" stopTime="0.00" timeLoss="39.58" rerouteNo="1" devices="tripinfo_carIn37268:1 routing_carIn37268:1" vType="default_016" speedFactor="0.94" vaporized=""/>
    <tripinfo id="carIn12152:1" depart="57647.00" departLane="24599188#0.94_1" departPos="5.10" departSpeed="0.00" departDelay="0.50" arrival="57701.00" arrivalLane="24693977#1_1" arrivalPos="96.83" arrivalSpeed="14.24" duration="54.00" routeLength="511.77" waitingTime="0.00" waitingCount="0" stopTime="0.00" timeLoss="7.69" rerouteNo="1" devices="tripinfo_carIn12152:1 routing_carIn12152:1" vType="default_016" speedFactor="1.04" vaporized=""/>
    <tripinfo id="carIn77943:1" depart="57607.00" departLane="124812856#0_1" departPos="5.10" departSpeed="0.00" departDelay="1.50" arrival="57704.00" arrivalLane="-653473569#5_1" arrivalPos="73.05" arrivalSpeed="11.41" duration="97.00" routeLength="450.40" waitingTime="48.00" waitingCount="1" stopTime="0.00" timeLoss="59.76" rerouteNo="1" devices="tripinfo_carIn77943:1 routing_carIn77943:1" vType="default_016" speedFactor="0.90" vaporized=""/>
    <tripinfo id="carIn81046:1" depart="57610.00" departLane="124812856#0_1" departPos="5.10" departSpeed="0.00" departDelay="1.50" arrival="57707.00" arrivalLane="-653473569#5_1" arrivalPos="73.05" arrivalSpeed="11.46" duration="97.00" routeLength="450.40" waitingTime="44.00" waitingCount="1" stopTime="0.00" timeLoss="58.27" rerouteNo="1" devices="tripinfo_carIn81046:1 routing_carIn81046:1" vType="default_016" speedFactor="0.87" vaporized=""/>
    <tripinfo id="carIn7887:1" depart="57661.00" departLane="27920078#0_1" departPos="5.10" departSpeed="0.00" departDelay="0.50" arrival="57716.00" arrivalLane="-83304175#2_1" arrivalPos="189.34" arrivalSpeed="7.15" duration="55.00" routeLength="501.51" waitingTime="0.00" waitingCount="0" stopTime="0.00" timeLoss="6.63" rerouteNo="1" devices="tripinfo_carIn7887:1 routing_carIn7887:1" vType="default_016" speedFactor="0.97" vaporized=""/>
    <tripinfo id="carIn79400:1" depart="57604.00" departLane="-24693977#1_1" departPos="5.10" departSpeed="0.00" departDelay="0.10" arrival="57718.00" arrivalLane="-266565295#5_2" arrivalPos="172.76" arrivalSpeed="13.85" duration="114.00" routeLength="840.03" waitingTime="44.00" waitingCount="1" stopTime="0.00" timeLoss="57.34" rerouteNo="1" devices="tripinfo_carIn79400:1 routing_carIn79400:1" vType="default_016" speedFactor="1.08" vaporized=""/>
    <tripinfo id="carIn113711:1" depart="57601.00" departLane="-24693977#1_1" departPos="5.10" departSpeed="0.00" departDelay="0.70" arrival="57720.00" arrivalLane="-266565295#5_1" arrivalPos="172.76" arrivalSpeed="13.97" duration="119.00" routeLength="840.03" waitingTime="45.00" waitingCount="1" stopTime="0.00" timeLoss="59.12" rerouteNo="1" devices="tripinfo_carIn113711:1 routing_carIn113711:1" vType="default_016" speedFactor="1.03" vaporized=""/>
    <tripinfo id="carIn129760:1" depart="57661.00" departLane="653473569#5_1" departPos="5.10" departSpeed="0.00" departDelay="0.80" arrival="57720.00" arrivalLane="201956811#0_1" arrivalPos="40.40" arrivalSpeed="12.14" duration="59.00" routeLength="313.24" waitingTime="12.00" waitingCount="3" stopTime="0.00" timeLoss="32.28" rerouteNo="1" devices="tripinfo_carIn129760:1 routing_carIn129760:1" vType="default_016" speedFactor="0.90" vaporized=""/>
    <tripinfo id="carIn77438:1" depart="57617.00" departLane="124812856#0_1" departPos="5.10" departSpeed="0.00" departDelay="4.10" arrival="57721.00" arrivalLane="-653473569#5_1" arrivalPos="73.05" arrivalSpeed="16.92" duration="104.00" routeLength="450.40" waitingTime="61.00" waitingCount="2" stopTime="0.00" timeLoss="78.65" rerouteNo="1" devices="tripinfo_carIn77438:1 routing_carIn77438:1" vType="default_016" speedFactor="1.31" vaporized=""/>
    <tripinfo id="carIn129626:1" depart="57664.00" departLane="653473569#5_1" departPos="5.10" departSpeed="0.00" departDelay="1.60" arrival="57721.00" arrivalLane="201956811#0_1" arrivalPos="40.40" arrivalSpeed="13.83" duration="57.00" routeLength="313.24" waitingTime="13.00" waitingCount="3" stopTime="0.00" timeLoss="34.63" rerouteNo="1" devices="tripinfo_carIn129626:1 routing_carIn129626:1" vType="default_016" speedFactor="1.05" vaporized=""/>
    <tripinfo id="h3688c1:1" depart="57679.00" departLane="315358253#1_1" departPos="5.10" departSpeed="0.00" departDelay="0.50" arrival="57732.00" arrivalLane="32978638#0_1" arrivalPos="49.29" arrivalSpeed="11.26" duration="53.00" routeLength="405.15" waitingTime="6.00" waitingCount="2" stopTime="0.00" timeLoss="17.63" rerouteNo="1" devices="tripinfo_h3688c1:1 routing_h3688c1:1" vType="default_016" speedFactor="0.87" vaporized=""/>
    <tripinfo id="h19804c1:3" depart="57622.00" departLane="124812856#0_1" departPos="5.10" departSpeed="0.00" departDelay="6.50" arrival="57734.00" arrivalLane="-653473569#5_1" arrivalPos="73.05" arrivalSpeed="11.29" duration="112.00" routeLength="450.40" waitingTime="57.00" waitingCount="2" stopTime="0.00" timeLoss="74.28" rerouteNo="1" devices="tripinfo_h19804c1:3 routing_h19804c1:3" vType="default_016" speedFactor="0.88" vaporized=""/>
    <tripinfo id="carIn96537:1" depart="57614.00" departLane="124812856#0_1" departPos="5.10" departSpeed="0.00" departDelay="2.80" arrival="57735.00" arrivalLane="202070434#2_1" arrivalPos="39.03" arrivalSpeed="15.16" duration="121.00" routeLength="569.75" waitingTime="63.00" waitingCount="2" stopTime="0.00" timeLoss="83.86" rerouteNo="1" devices="tripinfo_carIn96537:1 routing_carIn96537:1" vType="default_016" speedFactor="1.11" vaporized=""/>
    <tripinfo id="carIn925:1" depart="57706.00" departLane="124812856#0_1" departPos="5.10" departSpeed="0.00" departDelay="79.90" arrival="57735.00" arrivalLane="201956810_1" arrivalPos="71.65" arrivalSpeed="15.19" duration="29.00" routeLength="134.91" waitingTime="9.00" waitingCount="1" stopTime="0.00" timeLoss="18.56" rerouteNo="1" devices="tripinfo_carIn925:1 routing_carIn925:1" vType="default_016" speedFactor="1.09" vaporized=""/>
    <tripinfo id="h317c2:1" depart="57707.00" departLane="-32978638#0_1" departPos="5.10" departSpeed="0.00" departDelay="0.10" arrival="57738.00" arrivalLane="-266565295#5_1" arrivalPos="172.76" arrivalSpeed="14.63" duration="31.00" routeLength="370.53" waitingTime="0.00" waitingCount="0" stopTime="0.00" timeLoss="6.26" rerouteNo="1" devices="tripinfo_h317c2:1 routing_h317c2:1" vType="default_016" speedFactor="1.13" vaporized=""/>
    <tripinfo id="carIn55461:1" depart="57652.00" departLane="10425609#0_1" departPos="5.10" departSpeed="0.00" departDelay="0.30" arrival="57741.00" arrivalLane="201956810_1" arrivalPos="71.65" arrivalSpeed="12.99" duration="89.00" routeLength="255.78" waitingTime="57.00" waitingCount="1" stopTime="0.00" timeLoss="67.87" rerouteNo="1" devices="tripinfo_carIn55461:1 routing_carIn55461:1" vType="default_016" speedFactor="0.94" vaporized=""/>
    <tripinfo id="carIn106665:1" depart="57659.00" departLane="266565295#5_1" departPos="5.10" departSpeed="0.00" departDelay="1.80" arrival="57743.00" arrivalLane="24693977#1_1" arrivalPos="96.83" arrivalSpeed="16.89" duration="84.00" routeLength="834.40" waitingTime="12.00" waitingCount="2" stopTime="0.00" timeLoss="33.94" rerouteNo="1" devices="tripinfo_carIn106665:1 routing_carIn106665:1" vType="default_016" speedFactor="1.23" vaporized=""/>
    <tripinfo id="h20539c1:3" depart="57667.00" departLane="653473569#5_1" departPos="5.10" departSpeed="0.00" departDelay="2.20" arrival="57752.00" arrivalLane="201956811#0_1" arrivalPos="40.40" arrivalSpeed="14.52" duration="85.00" routeLength="313.24" waitingTime="36.00" waitingCount="5" stopTime="0.00" timeLoss="63.98" rerouteNo="1" devices="tripinfo_h20539c1:3 routing_h20539c1:3" vType="default_016" speedFactor="1.11" vaporized=""/>
    <tripinfo id="carIn3969:1" depart="57677.00" departLane="124812856#0_1" departPos="5.10" departSpeed="0.00" departDelay="53.30" arrival="57754.00" arrivalLane="-653473569#5_1" arrivalPos="73.05" arrivalSpeed="13.25" duration="77.00" routeLength="450.40" waitingTime="25.00" waitingCount="3" stopTime="0.00" timeLoss="43.32" rerouteNo="1" devices="tripinfo_carIn3969:1 routing_carIn3969:1" vType="default_016" speedFactor="0.99" vaporized=""/>
    <tripinfo id="carIn91254:1" depart="57696.00" departLane="653473569#5_1" departPos="5.10" departSpeed="0.00" departDelay="0.10" arrival="57754.00" arrivalLane="201956811#0_1" arrivalPos="40.40" arrivalSpeed="13.31" duration="58.00" routeLength="313.24" waitingTime="14.00" waitingCount="3" stopTime="0.00" timeLoss="34.41" rerouteNo="1" devices="tripinfo_carIn91254:1 routing_carIn91254:1" vType="default_016" speedFactor="1.00" vaporized=""/>
    <tripinfo id="carIn767:1" depart="57669.00" departLane="124812856#0_1" departPos="5.10" departSpeed="0.00" departDelay="50.50" arrival="57756.00" arrivalLane="-653473569#5_1" arrivalPos="73.05" arrivalSpeed="14.37" duration="87.00" routeLength="450.40" waitingTime="31.00" waitingCount="3" stopTime="0.00" timeLoss="55.72" rerouteNo="1" devices="tripinfo_carIn767:1 routing_carIn767:1" vType="default_016" speedFactor="1.08" vaporized=""/>
    <tripinfo id="h3568c1:3" depart="57656.00" departLane="266565295#5_1" departPos="5.10" departSpeed="0.00" departDelay="0.80" arrival="57757.00" arrivalLane="-24634415_1" arrivalPos="64.03" arrivalSpeed="13.60" duration="101.00" routeLength="810.20" waitingTime="12.00" waitingCount="2" stopTime="0.00" timeLoss="35.75" rerouteNo="1" devices="tripinfo_h3568c1:3 routing_h3568c1:3" vType="default_016" speedFactor="0.99" vaporized=""/>
    <tripinfo id="carIn128705:1" depart="57626.00" departLane="124812856#0_1" departPos="5.10" departSpeed="0.00" departDelay="7.60" arrival="57758.00" arrivalLane="202070434#2_2" arrivalPos="39.03" arrivalSpeed="12.91" duration="132.00" routeLength="569.75" waitingTime="58.00" waitingCount="3" stopTime="0.00" timeLoss="96.03" rerouteNo="1" devices="tripinfo_carIn128705:1 routing_carIn128705:1" vType="default_016" speedFactor="1.15" vaporized=""/>
    <tripinfo id="carIn107842:1" depart="57673.00" departLane="124812856#0_1" departPos="5.10" departSpeed="0.00" departDelay="51.90" arrival="57758.00" arrivalLane="-653473569#5_1" arrivalPos="73.05" arrivalSpeed="14.05" duration="85.00" routeLength="450.40" waitingTime="27.00" waitingCount="3" stopTime="0.00" timeLoss="52.59" rerouteNo="1" devices="tripinfo_carIn107842:1 routing_carIn107842:1" vType="default_016" speedFactor="1.02" vaporized=""/>
    <tripinfo id="carIn26410:1" depart="57619.00" departLane="124812856#0_1" departPos="5.10" departSpeed="0.00" departDelay="5.50" arrival="57759.00" arrivalLane="202070434#2_1" arrivalPos="39.03" arrivalSpeed="12.54" duration="140.00" routeLength="569.75" waitingTime="69.00" waitingCount="3" stopTime="0.00" timeLoss="94.28" rerouteNo="1" devices="tripinfo_carIn26410:1 routing_carIn26410:1" vType="default_016" speedFactor="0.92" vaporized=""/>
    <tripinfo id="h21130c2:1" depart="57630.00" departLane="10425609#0_1" departPos="5.10" departSpeed="0.00" departDelay="0.10" arrival="57760.00" arrivalLane="202070434#2_2" arrivalPos="39.03" arrivalSpeed="7.57" duration="130.00" routeLength="432.30" waitingTime="82.00" waitingCount="2" stopTime="0.00" timeLoss="101.91" rerouteNo="1" devices="tripinfo_h21130c2:1 routing_h21130c2:1" vType="default_016" speedFactor="1.13" vaporized=""/>
    <tripinfo id="randUni22709:1" depart="57718.00" departLane="315358253#1_1" departPos="5.10" departSpeed="0.00" departDelay="0.20" arrival="57760.00" arrivalLane="32978638#0_1" arrivalPos="49.29" arrivalSpeed="16.07" duration="42.00" routeLength="405.15" waitingTime="4.00" waitingCount="1" stopTime="0.00" timeLoss="15.76" rerouteNo="1" devices="tripinfo_randUni22709:1 routing_randUni22709:1" vType="random_016" speedFactor="1.16" vaporized=""/>
    <tripinfo id="carIn75079:1" depart="57747.00" departLane="-173169611#0_1" departPos="5.10" departSpeed="0.00" departDelay="0.60" arrival="57762.00" arrivalLane="201956820_1" arrivalPos="48.33" arrivalSpeed="13.02" duration="15.00" routeLength="122.35" waitingTime="0.00" waitingCount="0" stopTime="0.00" timeLoss="4.83" rerouteNo="0" devices="tripinfo_carIn75079:1 routing_carIn75079:1" vType="default_016" speedFactor="0.94" vaporized=""/>
    <tripinfo id="carIn51024:1" depart="57623.00" departLane="124812856#0_1" departPos="5.10" departSpeed="0.00" departDelay="6.90" arrival="57763.00" arrivalLane="202070434#2_1" arrivalPos="39.03" arrivalSpeed="11.22" duration="140.00" routeLength="569.75" waitingTime="62.00" waitingCount="3" stopTime="0.00" timeLoss="90.20" rerouteNo="1" devices="tripinfo_carIn51024:1 routing_carIn51024:1" vType="default_016" speedFactor="0.83" vaporized=""/>
    <tripinfo id="carIn56649:1" depart="57700.00" departLane="124812856#0_1" departPos="5.10" departSpeed="0.00" departDelay="76.10" arrival="57766.00" arrivalLane="-653473569#5_1" arrivalPos="73.05" arrivalSpeed="10.33" duration="66.00" routeLength="450.40" waitingTime="5.00" waitingCount="1" stopTime="0.00" timeLoss="23.58" rerouteNo="1" devices="tripinfo_carIn56649:1 routing_carIn56649:1" vType="default_016" speedFactor="0.78" vaporized=""/>
    <tripinfo id="carIn99509:1" depart="57720.00" departLane="-32978638#0_1" departPos="5.10" departSpeed="0.00" departDelay="0.20" arrival="57766.00" arrivalLane="-315358253#1_1" arrivalPos="63.90" arrivalSpeed="13.10" duration="46.00" routeLength="422.17" waitingTime="5.00" waitingCount="1" stopTime="0.00" timeLoss="15.22" rerouteNo="1" devices="tripinfo_carIn99509:1 routing_carIn99509:1" vType="default_015" speedFactor="1.03" vaporized=""/>
    <tripinfo id="h15382c1:3" depart="57676.00" departLane="124812856#0_1" departPos="5.10" departSpeed="0.00" departDelay="53.80" arrival="57768.00" arrivalLane="-653473569#5_1" arrivalPos="73.05" arrivalSpeed="12.49" duration="92.00" routeLength="450.40" waitingTime="18.00" waitingCount="2" stopTime="0.00" timeLoss="55.64" rerouteNo="1" devices="tripinfo_h15382c1:3 routing_h15382c1:3" vType="default_016" speedFactor="0.92" vaporized=""/>
    <tripinfo id="h330c1:1" depart="57736.00" departLane="-32978638#0_1" departPos="5.10" departSpeed="0.00" departDelay="0.20" arrival="57768.00" arrivalLane="-266565295#5_1" arrivalPos="172.76" arrivalSpeed="14.92" duration="32.00" routeLength="370.53" waitingTime="0.00" waitingCount="0" stopTime="0.00" timeLoss="7.11" rerouteNo="1" devices="tripinfo_h330c1:1 routing_h330c1:1" vType="default_016" speedFactor="1.12" vaporized=""/>
    <tripinfo id="carIn38625:1" depart="57703.00" departLane="124812856#0_1" departPos="5.10" departSpeed="0.00" departDelay="77.50" arrival="57770.00" arrivalLane="-653473569#5_1" arrivalPos="73.05" arrivalSpeed="13.81" duration="67.00" routeLength="450.40" waitingTime="11.00" waitingCount="1" stopTime="0.00" timeLoss="34.44" rerouteNo="1" devices="tripinfo_carIn38625:1 routing_carIn38625:1" vType="default_016" speedFactor="1.04" vaporized=""/>
    <tripinfo id="carIn74045:1" depart="57724.00" departLane="315358253#1_1" departPos="5.10" departSpeed="0.00" departDelay="3.00" arrival="57771.00" arrivalLane="32978638#0_1" arrivalPos="49.29" arrivalSpeed="12.99" duration="47.00" routeLength="405.15" waitingTime="5.00" waitingCount="1" stopTime="0.00" timeLoss="16.02" rerouteNo="1" devices="tripinfo_carIn74045:1 routing_carIn74045:1" vType="default_016" speedFactor="1.00" vaporized=""/>
    <tripinfo id="h21989c1:1" depart="57672.00" departLane="124812856#0_1" departPos="5.10" departSpeed="0.00" departDelay="51.60" arrival="57772.00" arrivalLane="202070434#2_1" arrivalPos="39.03" arrivalSpeed="9.25" duration="100.00" routeLength="569.75" waitingTime="16.00" waitingCount="1" stopTime="0.00" timeLoss="44.80" rerouteNo="1" devices="tripinfo_h21989c1:1 routing_h21989c1:1" vType="default_016" speedFactor="0.75" vaporized=""/>
    <tripinfo id="h134c1:3" depart="57721.00" departLane="315358253#1_1" departPos="5.10" departSpeed="0.00" departDelay="1.60" arrival="57772.00" arrivalLane="32978638#0_2" arrivalPos="49.29" arrivalSpeed="11.17" duration="51.00" routeLength="409.47" waitingTime="4.00" waitingCount="1" stopTime="0.00" timeLoss="15.15" rerouteNo="1" devices="tripinfo_h134c1:3 routing_h134c1:3" vType="default_016" speedFactor="0.85" vaporized=""/>
    <tripinfo id="carIn106797:1" depart="57726.00" departLane="653473569#5_1" departPos="5.10" departSpeed="0.00" departDelay="1.00" arrival="57772.00" arrivalLane="201956811#0_1" arrivalPos="40.40" arrivalSpeed="10.44" duration="46.00" routeLength="313.24" waitingTime="5.00" waitingCount="1" stopTime="0.00" timeLoss="16.28" rerouteNo="1" devices="tripinfo_carIn106797:1 routing_carIn106797:1" vType="default_016" speedFactor="0.80" vaporized=""/>
    <tripinfo id="carIn17767:1" depart="57708.00" departLane="124812856#0_1" departPos="5.10" departSpeed="0.00" departDelay="80.80" arrival="57774.00" arrivalLane="-653473569#5_1" arrivalPos="73.05" arrivalSpeed="14.18" duration="66.00" routeLength="450.40" waitingTime="7.00" waitingCount="1" stopTime="0.00" timeLoss="32.81" rerouteNo="1" devices="tripinfo_carIn17767:1 routing_carIn17767:1" vType="default_016" speedFactor="1.02" vaporized=""/>
    <tripinfo id="carIn26708:1" depart="57729.00" departLane="653473569#5_1" departPos="5.10" departSpeed="0.00" departDelay="2.40" arrival="57774.00" arrivalLane="201956811#0_1" arrivalPos="40.40" arrivalSpeed="14.18" duration="45.00" routeLength="313.24" waitingTime="6.00" waitingCount="1" stopTime="0.00" timeLoss="23.34" rerouteNo="1" devices="tripinfo_carIn26708:1 routing_carIn26708:1" vType="default_016" speedFactor="1.11" vaporized=""/>
    <tripinfo id="carIn106325:1" depart="57713.00" departLane="27920078#0_1" departPos="5.10" departSpeed="0.00" departDelay="0.10" arrival="57776.00" arrivalLane="-83304175#2_1" arrivalPos="189.34" arrivalSpeed="8.68" duration="63.00" routeLength="501.51" waitingTime="7.00" waitingCount="1" stopTime="0.00" timeLoss="20.92" rerouteNo="1" devices="tripinfo_carIn106325:1 routing_carIn106325:1" vType="default_016" speedFactor="1.12" vaporized=""/>
    <tripinfo id="carIn64859:1" depart="57711.00" departLane="124812856#0_1" departPos="5.10" departSpeed="0.00" departDelay="82.60" arrival="57777.00" arrivalLane="-653473569#5_1" arrivalPos="73.05" arrivalSpeed="11.20" duration="66.00" routeLength="450.40" waitingTime="4.00" waitingCount="2" stopTime="0.00" timeLoss="28.07" rerouteNo="1" devices="tripinfo_carIn64859:1 routing_carIn64859:1" vType="default_016" speedFactor="0.87" vaporized=""/>
    <tripinfo id="carIn88932:1" depart="57717.00" departLane="124812856#0_1" departPos="5.10" departSpeed="0.00" departDelay="86.40" arrival="57779.00" arrivalLane="-653473569#5_1" arrivalPos="73.05" arrivalSpeed="12.55" duration="62.00" routeLength="450.40" waitingTime="0.00" waitingCount="0" stopTime="0.00" timeLoss="27.87" rerouteNo="1" devices="tripinfo_carIn88932:1 routing_carIn88932:1" vType="default_016" speedFactor="0.98" vaporized=""/>