<?xml version="1.0" encoding="UTF-8"?>

<!-- generated on 2023-08-31 12:33:43 by Eclipse SUMO libsumo Version 1.18.0
<configuration xmlns:xsi="http://www.w3.org/2001/XMLSchema-instance" xsi:noNamespaceSchemaLocation="http://sumo.dlr.de/xsd/libsumoConfiguration.xsd">

    <input>
        <net-file value="/home/stefan/RESCO/./environments/ingolstadt7/ingolstadt7.net.xml"/>
        <route-files value="/home/stefan/RESCO/./environments/ingolstadt7/ingolstadt7.rou.xml"/>
    </input>

    <output>
        <tripinfo-output value="/home/stefan/results/RAINBOW-tr0-ingolstadt7-7-drq_norm-wait_norm/tripinfo_43.xml"/>
        <tripinfo-output.write-unfinished value="true"/>
    </output>

    <time>
        <begin value="57600"/>
        <end value="61200"/>
    </time>

    <processing>
        <time-to-teleport value="-1"/>
    </processing>

    <report>
        <no-warnings value="True"/>
        <no-step-log value="True"/>
    </report>

    <random_number>
        <random value="true"/>
    </random_number>

</configuration>
-->

<tripinfos xmlns:xsi="http://www.w3.org/2001/XMLSchema-instance" xsi:noNamespaceSchemaLocation="http://sumo.dlr.de/xsd/tripinfo_file.xsd">
    <tripinfo id="carIn89578:1" depart="57614.00" departLane="124812856#0_1" departPos="5.10" departSpeed="0.00" departDelay="3.60" arrival="57632.00" arrivalLane="201956810_1" arrivalPos="71.65" arrivalSpeed="11.88" duration="18.00" routeLength="134.91" waitingTime="0.00" waitingCount="0" stopTime="0.00" timeLoss="7.15" rerouteNo="1" devices="tripinfo_carIn89578:1 routing_carIn89578:1" vType="default_016" speedFactor="0.95" vaporized=""/>
    <tripinfo id="carIn105842:1" depart="57601.00" departLane="653473569#5_1" departPos="5.10" departSpeed="0.00" departDelay="0.80" arrival="57637.00" arrivalLane="201956811#0_1" arrivalPos="40.40" arrivalSpeed="12.09" duration="36.00" routeLength="313.24" waitingTime="1.00" waitingCount="1" stopTime="0.00" timeLoss="10.70" rerouteNo="1" devices="tripinfo_carIn105842:1 routing_carIn105842:1" vType="default_016" speedFactor="0.93" vaporized=""/>
    <tripinfo id="h20232c1:2" depart="57634.00" departLane="-173169611#0_1" departPos="5.10" departSpeed="0.00" departDelay="0.50" arrival="57649.00" arrivalLane="201956820_1" arrivalPos="48.33" arrivalSpeed="11.67" duration="15.00" routeLength="122.35" waitingTime="0.00" waitingCount="0" stopTime="0.00" timeLoss="4.53" rerouteNo="0" devices="tripinfo_h20232c1:2 routing_h20232c1:2" vType="default_016" speedFactor="0.90" vaporized=""/>
    <tripinfo id="carIn28951:1" depart="57606.00" departLane="10425609#0_1" departPos="5.10" departSpeed="0.00" departDelay="0.20" arrival="57654.00" arrivalLane="-653473569#5_1" arrivalPos="73.05" arrivalSpeed="14.53" duration="48.00" routeLength="312.95" waitingTime="15.00" waitingCount="1" stopTime="0.00" timeLoss="24.74" rerouteNo="1" devices="tripinfo_carIn28951:1 routing_carIn28951:1" vType="default_016" speedFactor="1.06" vaporized=""/>
    <tripinfo id="randUni10474:1" depart="57605.00" departLane="124812856#0_1" departPos="5.10" departSpeed="0.00" departDelay="0.20" arrival="57657.00" arrivalLane="-653473569#5_1" arrivalPos="73.05" arrivalSpeed="14.47" duration="52.00" routeLength="450.40" waitingTime="6.00" waitingCount="1" stopTime="0.00" timeLoss="19.73" rerouteNo="1" devices="tripinfo_randUni10474:1 routing_randUni10474:1" vType="random_016" speedFactor="1.06" vaporized=""/>
    <tripinfo id="h15454c2:3" depart="57612.00" departLane="24608844_1" departPos="5.10" departSpeed="0.00" departDelay="0.50" arrival="57657.00" arrivalLane="32978638#0_1" arrivalPos="49.29" arrivalSpeed="12.63" duration="45.00" routeLength="354.79" waitingTime="0.00" waitingCount="0" stopTime="0.00" timeLoss="7.44" rerouteNo="1" devices="tripinfo_h15454c2:3 routing_h15454c2:3" vType="default_016" speedFactor="0.91" vaporized=""/>
    <tripinfo id="h645c1:1" depart="57622.00" departLane="266565295#5_1" departPos="5.10" departSpeed="0.00" departDelay="0.40" arrival="57673.00" arrivalLane="-315358253#1_1" arrivalPos="63.90" arrivalSpeed="12.05" duration="51.00" routeLength="547.76" waitingTime="0.00" waitingCount="0" stopTime="0.00" timeLoss="6.68" rerouteNo="1" devices="tripinfo_h645c1:1 routing_h645c1:1" vType="default_016" speedFactor="0.92" vaporized=""/>
    <tripinfo id="carIn25202:1" depart="57629.00" departLane="315358253#1_1" departPos="5.10" departSpeed="0.00" departDelay="1.50" arrival="57673.00" arrivalLane="32978638#0_1" arrivalPos="49.29" arrivalSpeed="15.65" duration="44.00" routeLength="405.15" waitingTime="8.00" waitingCount="1" stopTime="0.00" timeLoss="17.69" rerouteNo="1" devices="tripinfo_carIn25202:1 routing_carIn25202:1" vType="default_016" speedFactor="1.15" vaporized=""/>
    <tripinfo id="carIn77943:1" depart="57608.00" departLane="124812856#0_1" departPos="5.10" departSpeed="0.00" departDelay="2.50" arrival="57674.00" arrivalLane="-653473569#5_1" arrivalPos="73.05" arrivalSpeed="13.34" duration="66.00" routeLength="450.40" waitingTime="17.00" waitingCount="2" stopTime="0.00" timeLoss="34.19" rerouteNo="1" devices="tripinfo_carIn77943:1 routing_carIn77943:1" vType="default_016" speedFactor="1.04" vaporized=""/>
    <tripinfo id="carIn81046:1" depart="57611.00" departLane="124812856#0_1" departPos="5.10" departSpeed="0.00" departDelay="2.50" arrival="57676.00" arrivalLane="-653473569#5_1" arrivalPos="73.05" arrivalSpeed="13.12" duration="65.00" routeLength="450.40" waitingTime="13.00" waitingCount="2" stopTime="0.00" timeLoss="32.45" rerouteNo="1" devices="tripinfo_carIn81046:1 routing_carIn81046:1" vType="default_016" speedFactor="1.02" vaporized=""/>
    <tripinfo id="carIn55461:1" depart="57652.00" departLane="10425609#0_1" departPos="5.10" departSpeed="0.00" departDelay="0.30" arrival="57682.00" arrivalLane="201956810_1" arrivalPos="71.65" arrivalSpeed="10.38" duration="30.00" routeLength="255.78" waitingTime="0.00" waitingCount="0" stopTime="0.00" timeLoss="5.91" rerouteNo="1" devices="tripinfo_carIn55461:1 routing_carIn55461:1" vType="default_016" speedFactor="0.82" vaporized=""/>
    <tripinfo id="carIn107084:1" depart="57601.00" departLane="124812856#0_1" departPos="5.10" departSpeed="0.00" departDelay="0.70" arrival="57684.00" arrivalLane="-653473569#5_1" arrivalPos="73.05" arrivalSpeed="13.51" duration="83.00" routeLength="450.40" waitingTime="19.00" waitingCount="4" stopTime="0.00" timeLoss="50.18" rerouteNo="1" devices="tripinfo_carIn107084:1 routing_carIn107084:1" vType="default_016" speedFactor="1.01" vaporized=""/>
    <tripinfo id="carIn33538:1" depart="57671.00" departLane="37386279_1" departPos="5.10" departSpeed="0.00" departDelay="0.30" arrival="57685.00" arrivalLane="-24634414#4_1" arrivalPos="22.88" arrivalSpeed="9.21" duration="14.00" routeLength="125.23" waitingTime="0.00" waitingCount="0" stopTime="0.00" timeLoss="3.79" rerouteNo="0" devices="tripinfo_carIn33538:1 routing_carIn33538:1" vType="default_016" speedFactor="1.13" vaporized=""/>
    <tripinfo id="h20540c1:1" depart="57634.00" departLane="10425609#0_1" departPos="5.10" departSpeed="0.00" departDelay="0.50" arrival="57686.00" arrivalLane="-653473569#5_1" arrivalPos="73.05" arrivalSpeed="14.84" duration="52.00" routeLength="312.95" waitingTime="12.00" waitingCount="2" stopTime="0.00" timeLoss="29.39" rerouteNo="1" devices="tripinfo_h20540c1:1 routing_h20540c1:1" vType="default_016" speedFactor="1.09" vaporized=""/>
    <tripinfo id="carIn925:1" depart="57654.00" departLane="124812856#0_1" departPos="5.10" departSpeed="0.00" departDelay="27.90" arrival="57688.00" arrivalLane="201956810_1" arrivalPos="71.65" arrivalSpeed="11.36" duration="34.00" routeLength="134.91" waitingTime="10.00" waitingCount="1" stopTime="0.00" timeLoss="21.41" rerouteNo="1" devices="tripinfo_carIn925:1 routing_carIn925:1" vType="default_016" speedFactor="0.86" vaporized=""/>
    <tripinfo id="carIn124416:1" depart="57663.00" departLane="-173169611#0_1" departPos="5.10" departSpeed="0.00" departDelay="0.50" arrival="57690.00" arrivalLane="201956820_1" arrivalPos="48.33" arrivalSpeed="14.28" duration="27.00" routeLength="122.35" waitingTime="8.00" waitingCount="1" stopTime="0.00" timeLoss="17.72" rerouteNo="0" devices="tripinfo_carIn124416:1 routing_carIn124416:1" vType="default_016" speedFactor="1.07" vaporized=""/>
    <tripinfo id="carIn55090:1" depart="57666.00" departLane="-173169611#0_1" departPos="5.10" departSpeed="0.00" departDelay="1.40" arrival="57692.00" arrivalLane="201956820_1" arrivalPos="48.33" arrivalSpeed="14.07" duration="26.00" routeLength="122.35" waitingTime="7.00" waitingCount="1" stopTime="0.00" timeLoss="16.91" rerouteNo="0" devices="tripinfo_carIn55090:1 routing_carIn55090:1" vType="default_016" speedFactor="1.03" vaporized=""/>
    <tripinfo id="carIn106322:1" depart="57614.00" departLane="653473569#5_1" departPos="5.10" departSpeed="0.00" departDelay="2.20" arrival="57693.00" arrivalLane="201956811#0_1" arrivalPos="40.40" arrivalSpeed="10.18" duration="79.00" routeLength="313.24" waitingTime="37.00" waitingCount="1" stopTime="0.00" timeLoss="47.17" rerouteNo="1" devices="tripinfo_carIn106322:1 routing_carIn106322:1" vType="default_016" speedFactor="0.76" vaporized=""/>
    <tripinfo id="carIn114137:1" depart="57635.00" departLane="27920078#0_1" departPos="5.10" departSpeed="0.00" departDelay="4.10" arrival="57693.00" arrivalLane="-83304175#2_1" arrivalPos="189.34" arrivalSpeed="7.44" duration="58.00" routeLength="501.51" waitingTime="0.00" waitingCount="0" stopTime="0.00" timeLoss="7.75" rerouteNo="1" devices="tripinfo_carIn114137:1 routing_carIn114137:1" vType="default_016" speedFactor="0.95" vaporized=""/>
    <tripinfo id="carIn5482:1" depart="57617.00" departLane="653473569#5_1" departPos="5.10" departSpeed="0.00" departDelay="3.60" arrival="57695.00" arrivalLane="201956811#0_1" arrivalPos="40.40" arrivalSpeed="12.82" duration="78.00" routeLength="313.24" waitingTime="36.00" waitingCount="1" stopTime="0.00" timeLoss="55.78" rerouteNo="1" devices="tripinfo_carIn5482:1 routing_carIn5482:1" vType="default_016" speedFactor="1.08" vaporized=""/>
    <tripinfo id="carIn22637:1" depart="57636.00" departLane="27920078#0_1" departPos="5.10" departSpeed="0.00" departDelay="3.50" arrival="57695.00" arrivalLane="-83304175#2_1" arrivalPos="189.34" arrivalSpeed="8.36" duration="59.00" routeLength="501.51" waitingTime="1.00" waitingCount="1" stopTime="0.00" timeLoss="11.69" rerouteNo="1" devices="tripinfo_carIn22637:1 routing_carIn22637:1" vType="default_016" speedFactor="1.01" vaporized=""/>
    <tripinfo id="carIn79400:1" depart="57604.00" departLane="-24693977#1_1" departPos="5.10" departSpeed="0.00" departDelay="0.10" arrival="57706.00" arrivalLane="-266565295#5_1" arrivalPos="172.76" arrivalSpeed="14.67" duration="102.00" routeLength="840.03" waitingTime="27.00" waitingCount="2" stopTime="0.00" timeLoss="44.68" rerouteNo="1" devices="tripinfo_carIn79400:1 routing_carIn79400:1" vType="default_016" speedFactor="1.08" vaporized=""/>
    <tripinfo id="carIn10158:1" depart="57622.00" departLane="-24693977#1_1" departPos="5.10" departSpeed="0.00" departDelay="0.80" arrival="57708.00" arrivalLane="-266565295#5_2" arrivalPos="172.76" arrivalSpeed="13.89" duration="86.00" routeLength="840.03" waitingTime="5.00" waitingCount="2" stopTime="0.00" timeLoss="29.00" rerouteNo="1" devices="tripinfo_carIn10158:1 routing_carIn10158:1" vType="default_016" speedFactor="1.08" vaporized=""/>
    <tripinfo id="carIn113711:1" depart="57601.00" departLane="-24693977#1_1" departPos="5.10" departSpeed="0.00" departDelay="0.70" arrival="57709.00" arrivalLane="-266565295#5_1" arrivalPos="172.76" arrivalSpeed="12.03" duration="108.00" routeLength="840.03" waitingTime="24.00" waitingCount="2" stopTime="0.00" timeLoss="39.15" rerouteNo="1" devices="tripinfo_carIn113711:1 routing_carIn113711:1" vType="default_016" speedFactor="0.89" vaporized=""/>
    <tripinfo id="carIn115641:1" depart="57614.00" departLane="-24693977#1_1" departPos="5.10" departSpeed="0.00" departDelay="0.90" arrival="57711.00" arrivalLane="-266565295#5_1" arrivalPos="172.76" arrivalSpeed="13.01" duration="97.00" routeLength="840.03" waitingTime="15.00" waitingCount="2" stopTime="0.00" timeLoss="33.32" rerouteNo="1" devices="tripinfo_carIn115641:1 routing_carIn115641:1" vType="default_016" speedFactor="0.97" vaporized=""/>
    <tripinfo id="carIn52610:1" depart="57615.00" departLane="-24693977#1_1" departPos="5.10" departSpeed="0.00" departDelay="0.10" arrival="57713.00" arrivalLane="-266565295#5_2" arrivalPos="172.76" arrivalSpeed="11.64" duration="98.00" routeLength="840.03" waitingTime="9.00" waitingCount="2" stopTime="0.00" timeLoss="30.12" rerouteNo="1" devices="tripinfo_carIn52610:1 routing_carIn52610:1" vType="default_016" speedFactor="0.91" vaporized=""/>
    <tripinfo id="h3688c1:1" depart="57679.00" departLane="315358253#1_1" departPos="5.10" departSpeed="0.00" departDelay="0.50" arrival="57720.00" arrivalLane="32978638#0_1" arrivalPos="49.29" arrivalSpeed="12.89" duration="41.00" routeLength="405.15" waitingTime="2.00" waitingCount="1" stopTime="0.00" timeLoss="10.75" rerouteNo="1" devices="tripinfo_h3688c1:1 routing_h3688c1:1" vType="default_016" speedFactor="1.01" vaporized=""/>
    <tripinfo id="carIn36103:1" depart="57620.00" departLane="653473569#5_1" departPos="5.10" departSpeed="0.00" departDelay="4.00" arrival="57721.00" arrivalLane="201956811#0_1" arrivalPos="40.40" arrivalSpeed="13.13" duration="101.00" routeLength="313.24" waitingTime="52.00" waitingCount="3" stopTime="0.00" timeLoss="77.48" rerouteNo="1" devices="tripinfo_carIn36103:1 routing_carIn36103:1" vType="default_016" speedFactor="1.03" vaporized=""/>
    <tripinfo id="carIn102997:1" depart="57623.00" departLane="653473569#5_1" departPos="5.10" departSpeed="0.00" departDelay="4.80" arrival="57722.00" arrivalLane="201956811#0_1" arrivalPos="40.40" arrivalSpeed="12.52" duration="99.00" routeLength="313.24" waitingTime="48.00" waitingCount="3" stopTime="0.00" timeLoss="73.45" rerouteNo="1" devices="tripinfo_carIn102997:1 routing_carIn102997:1" vType="default_016" speedFactor="0.93" vaporized=""/>
    <tripinfo id="carIn12152:1" depart="57647.00" departLane="24599188#0.94_1" departPos="5.10" departSpeed="0.00" departDelay="0.50" arrival="57723.00" arrivalLane="24693977#1_1" arrivalPos="96.83" arrivalSpeed="10.08" duration="76.00" routeLength="511.77" waitingTime="0.00" waitingCount="0" stopTime="0.00" timeLoss="13.95" rerouteNo="1" devices="tripinfo_carIn12152:1 routing_carIn12152:1" vType="default_016" speedFactor="0.78" vaporized=""/>
    <tripinfo id="carIn75554:1" depart="57626.00" departLane="653473569#5_1" departPos="5.10" departSpeed="0.00" departDelay="5.20" arrival="57725.00" arrivalLane="201956811#0_1" arrivalPos="40.40" arrivalSpeed="12.98" duration="99.00" routeLength="313.24" waitingTime="44.00" waitingCount="3" stopTime="0.00" timeLoss="75.02" rerouteNo="1" devices="tripinfo_carIn75554:1 routing_carIn75554:1" vType="default_016" speedFactor="1.01" vaporized=""/>
    <tripinfo id="carIn7887:1" depart="57661.00" departLane="27920078#0_1" departPos="5.10" departSpeed="0.00" departDelay="0.50" arrival="57726.00" arrivalLane="-83304175#2_1" arrivalPos="189.34" arrivalSpeed="6.57" duration="65.00" routeLength="501.51" waitingTime="0.00" waitingCount="0" stopTime="0.00" timeLoss="7.89" rerouteNo="1" devices="tripinfo_carIn7887:1 routing_carIn7887:1" vType="default_016" speedFactor="0.82" vaporized=""/>
    <tripinfo id="carIn12775:1" depart="57676.00" departLane="10425609#0_1" departPos="5.10" departSpeed="0.00" departDelay="0.60" arrival="57730.00" arrivalLane="-653473569#5_1" arrivalPos="73.05" arrivalSpeed="14.15" duration="54.00" routeLength="312.95" waitingTime="12.00" waitingCount="3" stopTime="0.00" timeLoss="30.95" rerouteNo="1" devices="tripinfo_carIn12775:1 routing_carIn12775:1" vType="default_016" speedFactor="1.05" vaporized=""/>
    <tripinfo id="carIn77438:1" depart="57618.00" departLane="124812856#0_1" departPos="5.10" departSpeed="0.00" departDelay="5.10" arrival="57732.00" arrivalLane="-653473569#5_1" arrivalPos="73.05" arrivalSpeed="14.02" duration="114.00" routeLength="450.40" waitingTime="68.00" waitingCount="1" stopTime="0.00" timeLoss="81.76" rerouteNo="1" devices="tripinfo_carIn77438:1 routing_carIn77438:1" vType="default_016" speedFactor="1.05" vaporized=""/>
    <tripinfo id="carIn131078:1" depart="57674.00" departLane="124812856#0_1" departPos="5.10" departSpeed="0.00" departDelay="38.60" arrival="57736.00" arrivalLane="201956810_1" arrivalPos="71.65" arrivalSpeed="12.17" duration="62.00" routeLength="134.91" waitingTime="34.00" waitingCount="3" stopTime="0.00" timeLoss="49.54" rerouteNo="1" devices="tripinfo_carIn131078:1 routing_carIn131078:1" vType="default_016" speedFactor="0.89" vaporized=""/>
    <tripinfo id="h317c2:1" depart="57707.00" departLane="-32978638#0_1" departPos="5.10" departSpeed="0.00" departDelay="0.10" arrival="57737.00" arrivalLane="-266565295#5_1" arrivalPos="172.76" arrivalSpeed="15.82" duration="30.00" routeLength="370.53" waitingTime="0.00" waitingCount="0" stopTime="0.00" timeLoss="6.04" rerouteNo="1" devices="tripinfo_h317c2:1 routing_h317c2:1" vType="default_016" speedFactor="1.16" vaporized=""/>
    <tripinfo id="carIn28488:1" depart="57611.00" departLane="653473569#5_1" departPos="5.10" departSpeed="0.00" departDelay="0.80" arrival="57740.00" arrivalLane="201956820_1" arrivalPos="48.33" arrivalSpeed="13.02" duration="129.00" routeLength="437.07" waitingTime="77.00" waitingCount="2" stopTime="0.00" timeLoss="95.64" rerouteNo="1" devices="tripinfo_carIn28488:1 routing_carIn28488:1" vType="default_016" speedFactor="0.96" vaporized=""/>
    <tripinfo id="carIn13117:1" depart="57627.00" departLane="27920078#0_1" departPos="5.10" departSpeed="0.00" departDelay="1.80" arrival="57740.00" arrivalLane="201956820_2" arrivalPos="48.33" arrivalSpeed="11.83" duration="113.00" routeLength="552.44" waitingTime="47.00" waitingCount="2" stopTime="0.00" timeLoss="69.07" rerouteNo="1" devices="tripinfo_carIn13117:1 routing_carIn13117:1" vType="default_016" speedFactor="0.91" vaporized=""/>
    <tripinfo id="carIn20106:1" depart="57630.00" departLane="27920078#0_1" departPos="5.10" departSpeed="0.00" departDelay="2.70" arrival="57743.00" arrivalLane="201956820_2" arrivalPos="48.33" arrivalSpeed="10.30" duration="113.00" routeLength="552.44" waitingTime="42.00" waitingCount="2" stopTime="0.00" timeLoss="63.68" rerouteNo="1" devices="tripinfo_carIn20106:1 routing_carIn20106:1" vType="default_016" speedFactor="0.82" vaporized=""/>
    <tripinfo id="carIn12900:1" depart="57720.00" departLane="124812856#0_1" departPos="5.10" departSpeed="0.00" departDelay="71.80" arrival="57747.00" arrivalLane="201956810_1" arrivalPos="71.65" arrivalSpeed="13.03" duration="27.00" routeLength="134.91" waitingTime="1.00" waitingCount="1" stopTime="0.00" timeLoss="16.14" rerouteNo="1" devices="tripinfo_carIn12900:1 routing_carIn12900:1" vType="default_016" speedFactor="1.03" vaporized=""/>
    <tripinfo id="randUni20090:1" depart="57629.00" departLane="653473569#5_1" departPos="5.10" departSpeed="0.00" departDelay="1.00" arrival="57751.00" arrivalLane="201956811#0_1" arrivalPos="40.40" arrivalSpeed="12.16" duration="122.00" routeLength="313.24" waitingTime="65.00" waitingCount="5" stopTime="0.00" timeLoss="96.87" rerouteNo="1" devices="tripinfo_randUni20090:1 routing_randUni20090:1" vType="random_016" speedFactor="0.94" vaporized=""/>
    <tripinfo id="h9878c1:3" depart="57686.00" departLane="-24693977#1_1" departPos="5.10" departSpeed="0.00" departDelay="0.70" arrival="57751.00" arrivalLane="32978638#0_1" arrivalPos="49.29" arrivalSpeed="14.11" duration="65.00" routeLength="677.49" waitingTime="3.00" waitingCount="1" stopTime="0.00" timeLoss="17.55" rerouteNo="1" devices="tripinfo_h9878c1:3 routing_h9878c1:3" vType="default_016" speedFactor="1.07" vaporized=""/>
    <tripinfo id="carIn26407:1" depart="57673.00" departLane="25145012#7_1" departPos="5.10" departSpeed="0.00" departDelay="0.50" arrival="57754.00" arrivalLane="201956811#0_1" arrivalPos="40.40" arrivalSpeed="9.89" duration="81.00" routeLength="384.54" waitingTime="31.00" waitingCount="2" stopTime="0.00" timeLoss="45.28" rerouteNo="1" devices="tripinfo_carIn26407:1 routing_carIn26407:1" vType="default_016" speedFactor="0.81" vaporized=""/>
    <tripinfo id="randUni22709:1" depart="57718.00" departLane="315358253#1_1" departPos="5.10" departSpeed="0.00" departDelay="0.20" arrival="57755.00" arrivalLane="32978638#0_1" arrivalPos="49.29" arrivalSpeed="14.25" duration="37.00" routeLength="405.15" waitingTime="0.00" waitingCount="0" stopTime="0.00" timeLoss="7.42" rerouteNo="1" devices="tripinfo_randUni22709:1 routing_randUni22709:1" vType="random_016" speedFactor="1.04" vaporized=""/>
    <tripinfo id="carIn37268:1" depart="57636.00" departLane="653473569#5_1" departPos="5.10" departSpeed="0.00" departDelay="0.90" arrival="57756.00" arrivalLane="201956811#0_1" arrivalPos="40.40" arrivalSpeed="12.48" duration="120.00" routeLength="313.24" waitingTime="53.00" waitingCount="5" stopTime="0.00" timeLoss="94.62" rerouteNo="1" devices="tripinfo_carIn37268:1 routing_carIn37268:1" vType="default_016" speedFactor="0.95" vaporized=""/>
    <tripinfo id="carIn99509:1" depart="57720.00" departLane="-32978638#0_1" departPos="5.10" departSpeed="0.00" departDelay="0.20" arrival="57759.00" arrivalLane="-315358253#1_1" arrivalPos="63.90" arrivalSpeed="12.94" duration="39.00" routeLength="422.17" waitingTime="0.00" waitingCount="0" stopTime="0.00" timeLoss="6.54" rerouteNo="1" devices="tripinfo_carIn99509:1 routing_carIn99509:1" vType="default_015" speedFactor="0.99" vaporized=""/>
    <tripinfo id="carIn106325:1" depart="57713.00" departLane="27920078#0_1" departPos="5.10" departSpeed="0.00" departDelay="0.10" arrival="57763.00" arrivalLane="-83304175#2_1" arrivalPos="189.34" arrivalSpeed="8.51" duration="50.00" routeLength="501.51" waitingTime="0.00" waitingCount="0" stopTime="0.00" timeLoss="7.77" rerouteNo="1" devices="tripinfo_carIn106325:1 routing_carIn106325:1" vType="default_016" speedFactor="1.11" vaporized=""/>
    <tripinfo id="h19804c1:3" depart="57624.00" departLane="124812856#0_1" departPos="5.10" departSpeed="0.00" departDelay="8.50" arrival="57764.00" arrivalLane="-653473569#5_1" arrivalPos="73.05" arrivalSpeed="13.69" duration="140.00" routeLength="450.40" waitingTime="85.00" waitingCount="2" stopTime="0.00" timeLoss="107.75" rerouteNo="1" devices="tripinfo_h19804c1:3 routing_h19804c1:3" vType="default_016" speedFactor="1.03" vaporized=""/>
    <tripinfo id="carIn767:1" depart="57633.00" departLane="124812856#0_1" departPos="5.10" departSpeed="0.00" departDelay="14.50" arrival="57766.00" arrivalLane="-653473569#5_1" arrivalPos="73.05" arrivalSpeed="13.89" duration="133.00" routeLength="450.40" waitingTime="76.00" waitingCount="3" stopTime="0.00" timeLoss="101.77" rerouteNo="1" devices="tripinfo_carIn767:1 routing_carIn767:1" vType="default_016" speedFactor="1.07" vaporized=""/>
    <tripinfo id="h330c1:1" depart="57736.00" departLane="-32978638#0_1" departPos="5.10" departSpeed="0.00" departDelay="0.20" arrival="57767.00" arrivalLane="-266565295#5_1" arrivalPos="172.76" arrivalSpeed="15.21" duration="31.00" routeLength="370.53" waitingTime="0.00" waitingCount="0" stopTime="0.00" timeLoss="6.46" rerouteNo="1" devices="tripinfo_h330c1:1 routing_h330c1:1" vType="default_016" speedFactor="1.12" vaporized=""/>
    <tripinfo id="h9894c1:3" depart="57698.00" departLane="-24693977#1_1" departPos="5.10" departSpeed="0.00" departDelay="0.20" arrival="57770.00" arrivalLane="32978638#0_1" arrivalPos="49.29" arrivalSpeed="14.49" duration="72.00" routeLength="677.49" waitingTime="10.00" waitingCount="1" stopTime="0.00" timeLoss="26.28" rerouteNo="1" devices="tripinfo_h9894c1:3 routing_h9894c1:3" vType="default_016" speedFactor="1.10" vaporized=""/>
    <tripinfo id="carIn75079:1" depart="57747.00" departLane="-173169611#0_1" departPos="5.10" departSpeed="0.00" departDelay="0.60" arrival="57770.00" arrivalLane="201956820_1" arrivalPos="48.33" arrivalSpeed="11.89" duration="23.00" routeLength="122.35" waitingTime="5.00" waitingCount="1" stopTime="0.00" timeLoss="12.84" rerouteNo="0" devices="tripinfo_carIn75079:1 routing_carIn75079:1" vType="default_016" speedFactor="0.93" vaporized=""/>
    <tripinfo id="carIn129760:1" depart="57661.00" departLane="653473569#5_1" departPos="5.10" departSpeed="0.00" departDelay="0.80" arrival="57771.00" arrivalLane="201956811#0_1" arrivalPos="40.40" arrivalSpeed="13.27" duration="110.00" routeLength="313.24" waitingTime="47.00" waitingCount="4" stopTime="0.00" timeLoss="87.17" rerouteNo="1" devices="tripinfo_carIn129760:1 routing_carIn129760:1" vType="default_016" speedFactor="1.04" vaporized=""/>
    <tripinfo id="carIn106665:1" depart="57659.00" departLane="266565295#5_1" departPos="5.10" departSpeed="0.00" departDelay="1.80" arrival="57772.00" arrivalLane="24693977#1_1" arrivalPos="96.83" arrivalSpeed="11.69" duration="113.00" routeLength="834.40" waitingTime="21.00" waitingCount="2" stopTime="0.00" timeLoss="47.86" rerouteNo="1" devices="tripinfo_carIn106665:1 routing_carIn106665:1" vType="default_016" speedFactor="0.93" vaporized=""/>
    <tripinfo id="carIn129626:1" depart="57664.00" departLane="653473569#5_1" departPos="5.10" departSpeed="0.00" departDelay="1.60" arrival="57773.00" arrivalLane="201956811#0_1" arrivalPos="40.40" arrivalSpeed="12.72" duration="109.00" routeLength="313.24" waitingTime="40.00" waitingCount="4" stopTime="0.00" timeLoss="85.35" rerouteNo="1" devices="tripinfo_carIn129626:1 routing_carIn129626:1" vType="default_016" speedFactor="1.00" vaporized=""/>
    <tripinfo id="carIn99738:1" depart="57718.00" departLane="27920078#0_1" departPos="5.10" departSpeed="0.00" departDelay="0.30" arrival="57776.00" arrivalLane="-83304175#2_1" arrivalPos="189.34" arrivalSpeed="7.38" duration="58.00" routeLength="501.51" waitingTime="1.00" waitingCount="1" stopTime="0.00" timeLoss="9.74" rerouteNo="1" devices="tripinfo_carIn99738:1 routing_carIn99738:1" vType="default_016" speedFactor="0.99" vaporized=""/>
    <tripinfo id="h3568c1:3" depart="57656.00" departLane="266565295#5_1" departPos="5.10" departSpeed="0.00" departDelay="0.80" arrival="57779.00" arrivalLane="-24634415_1" arrivalPos="64.03" arrivalSpeed="11.93" duration="123.00" routeLength="810.20" waitingTime="30.00" waitingCount="2" stopTime="0.00" timeLoss="53.04" rerouteNo="1" devices="tripinfo_h3568c1:3 routing_h3568c1:3" vType="default_016" speedFactor="0.93" vaporized=""/>
    <tripinfo id="h134c1:3" depart="57721.00" departLane="315358253#1_1" departPos="5.10" departSpeed="0.00" departDelay="1.60" arrival="57780.00" arrivalLane="32978638#0_1" arrivalPos="49.29" arrivalSpeed="13.77" duration="59.00" routeLength="405.15" waitingTime="17.00" waitingCount="1" stopTime="0.00" timeLoss="30.17" rerouteNo="1" devices="tripinfo_h134c1:3 routing_h134c1:3" vType="default_016" speedFactor="1.07" vaporized=""/>
    <tripinfo id="carIn107842:1" depart="57639.00" departLane="124812856#0_1" departPos="5.10" departSpeed="0.00" departDelay="17.90" arrival="57785.00" arrivalLane="-653473569#5_1" arrivalPos="73.05" arrivalSpeed="11.96" duration="146.00" routeLength="450.40" waitingTime="71.00" waitingCount="6" stopTime="0.00" timeLoss="109.09" rerouteNo="1" devices="tripinfo_carIn107842:1 routing_carIn107842:1" vType="default_016" speedFactor="0.90" vaporized=""/>
    <tripinfo id="h19989c1:1" depart="57730.00" departLane="10425609#0_1" departPos="5.10" departSpeed="0.00" departDelay="0.60" arrival="57788.00" arrivalLane="-653473569#5_1" arrivalPos="73.05" arrivalSpeed="12.06" duration="58.00" routeLength="312.95" waitingTime="17.00" waitingCount="2" stopTime="0.00" timeLoss="31.27" rerouteNo="1" devices="tripinfo_h19989c1:1 routing_h19989c1:1" vType="default_016" speedFactor="0.92" vaporized=""/>
    <tripinfo id="carIn42216:1" depart="57774.00" departLane="-173169611#0_1" departPos="5.10" departSpeed="0.00" departDelay="0.10" arrival="57790.00" arrivalLane="201956820_1" arrivalPos="48.33" arrivalSpeed="11.17" duration="16.00" routeLength="122.35" waitingTime="0.00" waitingCount="0" stopTime="0.00" timeLoss="4.06" rerouteNo="0" devices="tripinfo_carIn42216:1 routing_carIn42216:1" vType="default_016" speedFactor="0.80" vaporized=""/>
    <tripinfo id="h20539c1:3" depart="57667.00" departLane="653473569#5_1" departPos="5.10" departSpeed="0.00" departDelay="2.20" arrival="57791.00" arrivalLane="201956811#0_1" arrivalPos="40.40" arrivalSpeed="15.31" duration="124.00" routeLength="313.24" waitingTime="51.00" waitingCount="5" stopTime="0.00" timeLoss="103.68" rerouteNo="1" devices="tripinfo_h20539c1:3 routing_h20539c1:3" vType="default_016" speedFactor="1.16" vaporized=""/>
    <tripinfo id="carIn74045:1" depart="57724.00" departLane="315358253#1_1" departPos="5.10" departSpeed="0.00" departDelay="3.00" arrival="57791.00" arrivalLane="32978638#0_1" arrivalPos="49.29" arrivalSpeed="9.06" duration="67.00" routeLength="405.15" waitingTime="16.00" waitingCount="1" stopTime="0.00" timeLoss="25.88" rerouteNo="1" devices="tripinfo_carIn74045:1 routing_carIn74045:1" vType="default_016" speedFactor="0.74" vaporized=""/>
    <tripinfo id="carIn26708:1" depart="57729.00" departLane="653473569#5_1" departPos="5.10" departSpeed="0.00" departDelay="2.40" arrival="57795.00" arrivalLane="201956811#0_1" arrivalPos="40.40" arrivalSpeed="12.42" duration="66.00" routeLength="313.24" waitingTime="23.00" waitingCount="2" stopTime="0.00" timeLoss="40.44" rerouteNo="1" devices="tripinfo_carIn26708:1 routing_carIn26708:1" vType="default_016" speedFactor="0.93" vaporized=""/>