<?xml version="1.0" encoding="UTF-8"?>

<!-- generated on 2023-08-31 12:45:14 by Eclipse SUMO libsumo Version 1.18.0
<configuration xmlns:xsi="http://www.w3.org/2001/XMLSchema-instance" xsi:noNamespaceSchemaLocation="http://sumo.dlr.de/xsd/libsumoConfiguration.xsd">

    <input>
        <net-file value="/home/stefan/RESCO/./environments/ingolstadt7/ingolstadt7.net.xml"/>
        <route-files value="/home/stefan/RESCO/./environments/ingolstadt7/ingolstadt7.rou.xml"/>
    </input>

    <output>
        <tripinfo-output value="/home/stefan/results/RAINBOW-tr0-ingolstadt7-7-drq_norm-wait_norm/tripinfo_74.xml"/>
        <tripinfo-output.write-unfinished value="true"/>
    </output>

    <time>
        <begin value="57600"/>
        <end value="61200"/>
    </time>

    <processing>
        <time-to-teleport value="-1"/>
    </processing>

    <report>
        <no-warnings value="True"/>
        <no-step-log value="True"/>
    </report>

    <random_number>
        <random value="true"/>
    </random_number>

</configuration>
-->

<tripinfos xmlns:xsi="http://www.w3.org/2001/XMLSchema-instance" xsi:noNamespaceSchemaLocation="http://sumo.dlr.de/xsd/tripinfo_file.xsd">
    <tripinfo id="carIn105842:1" depart="57601.00" departLane="653473569#5_1" departPos="5.10" departSpeed="0.00" departDelay="0.80" arrival="57630.00" arrivalLane="201956811#0_1" arrivalPos="40.40" arrivalSpeed="15.54" duration="29.00" routeLength="313.24" waitingTime="0.00" waitingCount="0" stopTime="0.00" timeLoss="7.73" rerouteNo="1" devices="tripinfo_carIn105842:1 routing_carIn105842:1" vType="default_016" speedFactor="1.13" vaporized=""/>
    <tripinfo id="h20232c1:2" depart="57634.00" departLane="-173169611#0_1" departPos="5.10" departSpeed="0.00" departDelay="0.50" arrival="57648.00" arrivalLane="201956820_1" arrivalPos="48.33" arrivalSpeed="14.96" duration="14.00" routeLength="122.35" waitingTime="0.00" waitingCount="0" stopTime="0.00" timeLoss="5.61" rerouteNo="0" devices="tripinfo_h20232c1:2 routing_h20232c1:2" vType="default_016" speedFactor="1.17" vaporized=""/>
    <tripinfo id="carIn106322:1" depart="57614.00" departLane="653473569#5_1" departPos="5.10" departSpeed="0.00" departDelay="2.20" arrival="57660.00" arrivalLane="201956811#0_1" arrivalPos="40.40" arrivalSpeed="14.37" duration="46.00" routeLength="313.24" waitingTime="8.00" waitingCount="2" stopTime="0.00" timeLoss="23.31" rerouteNo="1" devices="tripinfo_carIn106322:1 routing_carIn106322:1" vType="default_016" speedFactor="1.07" vaporized=""/>
    <tripinfo id="carIn28951:1" depart="57606.00" departLane="10425609#0_1" departPos="5.10" departSpeed="0.00" departDelay="0.20" arrival="57665.00" arrivalLane="-653473569#5_1" arrivalPos="73.05" arrivalSpeed="12.01" duration="59.00" routeLength="312.95" waitingTime="24.00" waitingCount="1" stopTime="0.00" timeLoss="33.61" rerouteNo="1" devices="tripinfo_carIn28951:1 routing_carIn28951:1" vType="default_016" speedFactor="0.95" vaporized=""/>
    <tripinfo id="carIn25202:1" depart="57629.00" departLane="315358253#1_1" departPos="5.10" departSpeed="0.00" departDelay="1.50" arrival="57669.00" arrivalLane="32978638#0_1" arrivalPos="49.29" arrivalSpeed="12.11" duration="40.00" routeLength="405.15" waitingTime="0.00" waitingCount="0" stopTime="0.00" timeLoss="6.50" rerouteNo="1" devices="tripinfo_carIn25202:1 routing_carIn25202:1" vType="default_016" speedFactor="0.91" vaporized=""/>
    <tripinfo id="carIn124416:1" depart="57663.00" departLane="-173169611#0_1" departPos="5.10" departSpeed="0.00" departDelay="0.50" arrival="57677.00" arrivalLane="201956820_1" arrivalPos="48.33" arrivalSpeed="14.17" duration="14.00" routeLength="122.35" waitingTime="0.00" waitingCount="0" stopTime="0.00" timeLoss="5.42" rerouteNo="0" devices="tripinfo_carIn124416:1 routing_carIn124416:1" vType="default_016" speedFactor="1.08" vaporized=""/>
    <tripinfo id="carIn5482:1" depart="57617.00" departLane="653473569#5_1" departPos="5.10" departSpeed="0.00" departDelay="3.60" arrival="57678.00" arrivalLane="201956811#0_1" arrivalPos="40.40" arrivalSpeed="15.52" duration="61.00" routeLength="313.24" waitingTime="15.00" waitingCount="4" stopTime="0.00" timeLoss="40.89" rerouteNo="1" devices="tripinfo_carIn5482:1 routing_carIn5482:1" vType="default_016" speedFactor="1.20" vaporized=""/>
    <tripinfo id="carIn55090:1" depart="57666.00" departLane="-173169611#0_1" departPos="5.10" departSpeed="0.00" departDelay="1.40" arrival="57681.00" arrivalLane="201956820_1" arrivalPos="48.33" arrivalSpeed="14.22" duration="15.00" routeLength="122.35" waitingTime="0.00" waitingCount="0" stopTime="0.00" timeLoss="5.91" rerouteNo="0" devices="tripinfo_carIn55090:1 routing_carIn55090:1" vType="default_016" speedFactor="1.10" vaporized=""/>
    <tripinfo id="carIn36103:1" depart="57620.00" departLane="653473569#5_1" departPos="5.10" departSpeed="0.00" departDelay="4.00" arrival="57682.00" arrivalLane="201956811#0_1" arrivalPos="40.40" arrivalSpeed="12.72" duration="62.00" routeLength="313.24" waitingTime="13.00" waitingCount="4" stopTime="0.00" timeLoss="37.75" rerouteNo="1" devices="tripinfo_carIn36103:1 routing_carIn36103:1" vType="default_016" speedFactor="0.98" vaporized=""/>
    <tripinfo id="randUni10474:1" depart="57605.00" departLane="124812856#0_1" departPos="5.10" departSpeed="0.00" departDelay="0.20" arrival="57685.00" arrivalLane="-653473569#5_1" arrivalPos="73.05" arrivalSpeed="14.23" duration="80.00" routeLength="450.40" waitingTime="39.00" waitingCount="1" stopTime="0.00" timeLoss="48.96" rerouteNo="1" devices="tripinfo_randUni10474:1 routing_randUni10474:1" vType="random_016" speedFactor="1.09" vaporized=""/>
    <tripinfo id="carIn107084:1" depart="57601.00" departLane="124812856#0_1" departPos="5.10" departSpeed="0.00" departDelay="0.70" arrival="57686.00" arrivalLane="-653473569#5_1" arrivalPos="73.05" arrivalSpeed="17.01" duration="85.00" routeLength="450.40" waitingTime="43.00" waitingCount="1" stopTime="0.00" timeLoss="58.23" rerouteNo="1" devices="tripinfo_carIn107084:1 routing_carIn107084:1" vType="default_016" speedFactor="1.24" vaporized=""/>
    <tripinfo id="carIn33538:1" depart="57671.00" departLane="37386279_1" departPos="5.10" departSpeed="0.00" departDelay="0.30" arrival="57687.00" arrivalLane="-24634414#4_1" arrivalPos="22.88" arrivalSpeed="6.98" duration="16.00" routeLength="125.23" waitingTime="0.00" waitingCount="0" stopTime="0.00" timeLoss="3.09" rerouteNo="0" devices="tripinfo_carIn33538:1 routing_carIn33538:1" vType="default_016" speedFactor="0.86" vaporized=""/>
    <tripinfo id="carIn102997:1" depart="57623.00" departLane="653473569#5_1" departPos="5.10" departSpeed="0.00" departDelay="4.80" arrival="57691.00" arrivalLane="201956811#0_1" arrivalPos="40.40" arrivalSpeed="12.43" duration="68.00" routeLength="313.24" waitingTime="17.00" waitingCount="4" stopTime="0.00" timeLoss="42.85" rerouteNo="1" devices="tripinfo_carIn102997:1 routing_carIn102997:1" vType="default_016" speedFactor="0.95" vaporized=""/>
    <tripinfo id="carIn81046:1" depart="57610.00" departLane="124812856#0_1" departPos="5.10" departSpeed="0.00" departDelay="1.50" arrival="57694.00" arrivalLane="-653473569#5_1" arrivalPos="73.05" arrivalSpeed="11.64" duration="84.00" routeLength="450.40" waitingTime="35.00" waitingCount="1" stopTime="0.00" timeLoss="46.73" rerouteNo="1" devices="tripinfo_carIn81046:1 routing_carIn81046:1" vType="default_016" speedFactor="0.90" vaporized=""/>
    <tripinfo id="carIn77943:1" depart="57607.00" departLane="124812856#0_1" departPos="5.10" departSpeed="0.00" departDelay="1.50" arrival="57696.00" arrivalLane="-653473569#5_1" arrivalPos="73.05" arrivalSpeed="12.62" duration="89.00" routeLength="450.40" waitingTime="37.00" waitingCount="1" stopTime="0.00" timeLoss="54.96" rerouteNo="1" devices="tripinfo_carIn77943:1 routing_carIn77943:1" vType="default_016" speedFactor="1.00" vaporized=""/>
    <tripinfo id="carIn75554:1" depart="57626.00" departLane="653473569#5_1" departPos="5.10" departSpeed="0.00" departDelay="5.20" arrival="57700.00" arrivalLane="201956811#0_1" arrivalPos="40.40" arrivalSpeed="15.79" duration="74.00" routeLength="313.24" waitingTime="20.00" waitingCount="5" stopTime="0.00" timeLoss="53.99" rerouteNo="1" devices="tripinfo_carIn75554:1 routing_carIn75554:1" vType="default_016" speedFactor="1.20" vaporized=""/>
    <tripinfo id="carIn28488:1" depart="57611.00" departLane="653473569#5_1" departPos="5.10" departSpeed="0.00" departDelay="0.80" arrival="57710.00" arrivalLane="201956820_1" arrivalPos="48.33" arrivalSpeed="14.86" duration="99.00" routeLength="437.07" waitingTime="54.00" waitingCount="2" stopTime="0.00" timeLoss="68.94" rerouteNo="1" devices="tripinfo_carIn28488:1 routing_carIn28488:1" vType="default_016" speedFactor="1.07" vaporized=""/>
    <tripinfo id="randUni20090:1" depart="57629.00" departLane="653473569#5_1" departPos="5.10" departSpeed="0.00" departDelay="1.00" arrival="57712.00" arrivalLane="201956811#0_1" arrivalPos="40.40" arrivalSpeed="12.12" duration="83.00" routeLength="313.24" waitingTime="23.00" waitingCount="6" stopTime="0.00" timeLoss="55.67" rerouteNo="1" devices="tripinfo_randUni20090:1 routing_randUni20090:1" vType="random_016" speedFactor="0.87" vaporized=""/>
    <tripinfo id="carIn89578:1" depart="57613.00" departLane="124812856#0_1" departPos="5.10" departSpeed="0.00" departDelay="2.60" arrival="57715.00" arrivalLane="201956810_1" arrivalPos="71.65" arrivalSpeed="14.05" duration="102.00" routeLength="134.91" waitingTime="78.00" waitingCount="2" stopTime="0.00" timeLoss="92.33" rerouteNo="1" devices="tripinfo_carIn89578:1 routing_carIn89578:1" vType="default_016" speedFactor="1.09" vaporized=""/>
    <tripinfo id="h3688c1:1" depart="57679.00" departLane="315358253#1_1" departPos="5.10" departSpeed="0.00" departDelay="0.50" arrival="57717.00" arrivalLane="32978638#0_1" arrivalPos="49.29" arrivalSpeed="12.51" duration="38.00" routeLength="405.15" waitingTime="0.00" waitingCount="0" stopTime="0.00" timeLoss="6.04" rerouteNo="1" devices="tripinfo_h3688c1:1 routing_h3688c1:1" vType="default_016" speedFactor="0.97" vaporized=""/>
    <tripinfo id="carIn37268:1" depart="57636.00" departLane="653473569#5_1" departPos="5.10" departSpeed="0.00" departDelay="0.90" arrival="57729.00" arrivalLane="201956811#0_1" arrivalPos="40.40" arrivalSpeed="14.91" duration="93.00" routeLength="313.24" waitingTime="26.00" waitingCount="7" stopTime="0.00" timeLoss="70.97" rerouteNo="1" devices="tripinfo_carIn37268:1 routing_carIn37268:1" vType="default_016" speedFactor="1.11" vaporized=""/>
    <tripinfo id="carIn129760:1" depart="57661.00" departLane="653473569#5_1" departPos="5.10" departSpeed="0.00" departDelay="0.80" arrival="57732.00" arrivalLane="201956811#0_1" arrivalPos="40.40" arrivalSpeed="15.53" duration="71.00" routeLength="313.24" waitingTime="17.00" waitingCount="5" stopTime="0.00" timeLoss="49.28" rerouteNo="1" devices="tripinfo_carIn129760:1 routing_carIn129760:1" vType="default_016" speedFactor="1.13" vaporized=""/>
    <tripinfo id="carIn77438:1" depart="57617.00" departLane="124812856#0_1" departPos="5.10" departSpeed="0.00" departDelay="4.10" arrival="57738.00" arrivalLane="-653473569#5_1" arrivalPos="73.05" arrivalSpeed="14.81" duration="121.00" routeLength="450.40" waitingTime="75.00" waitingCount="2" stopTime="0.00" timeLoss="89.43" rerouteNo="1" devices="tripinfo_carIn77438:1 routing_carIn77438:1" vType="default_016" speedFactor="1.07" vaporized=""/>
    <tripinfo id="carIn129626:1" depart="57664.00" departLane="653473569#5_1" departPos="5.10" departSpeed="0.00" departDelay="1.60" arrival="57740.00" arrivalLane="201956811#0_1" arrivalPos="40.40" arrivalSpeed="13.80" duration="76.00" routeLength="313.24" waitingTime="19.00" waitingCount="6" stopTime="0.00" timeLoss="51.92" rerouteNo="1" devices="tripinfo_carIn129626:1 routing_carIn129626:1" vType="default_016" speedFactor="1.00" vaporized=""/>
    <tripinfo id="h317c2:1" depart="57707.00" departLane="-32978638#0_1" departPos="5.10" departSpeed="0.00" departDelay="0.10" arrival="57743.00" arrivalLane="-266565295#5_1" arrivalPos="172.76" arrivalSpeed="12.00" duration="36.00" routeLength="370.53" waitingTime="0.00" waitingCount="0" stopTime="0.00" timeLoss="5.62" rerouteNo="1" devices="tripinfo_h317c2:1 routing_h317c2:1" vType="default_016" speedFactor="0.90" vaporized=""/>
    <tripinfo id="h19804c1:3" depart="57622.00" departLane="124812856#0_1" departPos="5.10" departSpeed="0.00" departDelay="6.50" arrival="57744.00" arrivalLane="-653473569#5_1" arrivalPos="73.05" arrivalSpeed="12.78" duration="122.00" routeLength="450.40" waitingTime="70.00" waitingCount="2" stopTime="0.00" timeLoss="88.22" rerouteNo="1" devices="tripinfo_h19804c1:3 routing_h19804c1:3" vType="default_016" speedFactor="1.00" vaporized=""/>
    <tripinfo id="h20539c1:3" depart="57667.00" departLane="653473569#5_1" departPos="5.10" departSpeed="0.00" departDelay="2.20" arrival="57751.00" arrivalLane="201956811#0_1" arrivalPos="40.40" arrivalSpeed="12.33" duration="84.00" routeLength="313.24" waitingTime="23.00" waitingCount="7" stopTime="0.00" timeLoss="58.64" rerouteNo="1" devices="tripinfo_h20539c1:3 routing_h20539c1:3" vType="default_016" speedFactor="0.95" vaporized=""/>
    <tripinfo id="randUni22709:1" depart="57718.00" departLane="315358253#1_1" departPos="5.10" departSpeed="0.00" departDelay="0.20" arrival="57753.00" arrivalLane="32978638#0_1" arrivalPos="49.29" arrivalSpeed="13.59" duration="35.00" routeLength="405.15" waitingTime="0.00" waitingCount="0" stopTime="0.00" timeLoss="5.57" rerouteNo="1" devices="tripinfo_randUni22709:1 routing_randUni22709:1" vType="random_016" speedFactor="1.04" vaporized=""/>
    <tripinfo id="carIn96537:1" depart="57614.00" departLane="124812856#0_1" departPos="5.10" departSpeed="0.00" departDelay="2.80" arrival="57757.00" arrivalLane="202070434#2_1" arrivalPos="39.03" arrivalSpeed="10.42" duration="143.00" routeLength="569.75" waitingTime="76.00" waitingCount="2" stopTime="0.00" timeLoss="92.94" rerouteNo="1" devices="tripinfo_carIn96537:1 routing_carIn96537:1" vType="default_016" speedFactor="0.82" vaporized=""/>
    <tripinfo id="carIn99509:1" depart="57720.00" departLane="-32978638#0_1" departPos="5.10" departSpeed="0.00" departDelay="0.20" arrival="57757.00" arrivalLane="-315358253#1_1" arrivalPos="63.90" arrivalSpeed="14.32" duration="37.00" routeLength="422.17" waitingTime="0.00" waitingCount="0" stopTime="0.00" timeLoss="6.04" rerouteNo="1" devices="tripinfo_carIn99509:1 routing_carIn99509:1" vType="default_015" speedFactor="1.04" vaporized=""/>
    <tripinfo id="carIn26410:1" depart="57619.00" departLane="124812856#0_1" departPos="5.10" departSpeed="0.00" departDelay="5.50" arrival="57759.00" arrivalLane="202070434#2_1" arrivalPos="39.03" arrivalSpeed="16.03" duration="140.00" routeLength="569.75" waitingTime="74.00" waitingCount="2" stopTime="0.00" timeLoss="105.29" rerouteNo="1" devices="tripinfo_carIn26410:1 routing_carIn26410:1" vType="default_016" speedFactor="1.20" vaporized=""/>
    <tripinfo id="carIn91254:1" depart="57696.00" departLane="653473569#5_1" departPos="5.10" departSpeed="0.00" departDelay="0.10" arrival="57760.00" arrivalLane="201956811#0_1" arrivalPos="40.40" arrivalSpeed="13.92" duration="64.00" routeLength="313.24" waitingTime="17.00" waitingCount="4" stopTime="0.00" timeLoss="40.81" rerouteNo="1" devices="tripinfo_carIn91254:1 routing_carIn91254:1" vType="default_016" speedFactor="1.04" vaporized=""/>
    <tripinfo id="h134c1:3" depart="57720.00" departLane="315358253#1_1" departPos="5.10" departSpeed="0.00" departDelay="0.60" arrival="57761.00" arrivalLane="32978638#0_1" arrivalPos="49.29" arrivalSpeed="12.26" duration="41.00" routeLength="405.15" waitingTime="0.00" waitingCount="0" stopTime="0.00" timeLoss="7.77" rerouteNo="1" devices="tripinfo_h134c1:3 routing_h134c1:3" vType="default_016" speedFactor="0.92" vaporized=""/>
    <tripinfo id="carIn51024:1" depart="57624.00" departLane="124812856#0_1" departPos="5.10" departSpeed="0.00" departDelay="7.90" arrival="57762.00" arrivalLane="202070434#2_1" arrivalPos="39.03" arrivalSpeed="11.80" duration="138.00" routeLength="569.75" waitingTime="67.00" waitingCount="2" stopTime="0.00" timeLoss="93.43" rerouteNo="1" devices="tripinfo_carIn51024:1 routing_carIn51024:1" vType="default_016" speedFactor="0.94" vaporized=""/>
    <tripinfo id="carIn74045:1" depart="57724.00" departLane="315358253#1_1" departPos="5.10" departSpeed="0.00" departDelay="3.00" arrival="57763.00" arrivalLane="32978638#0_2" arrivalPos="49.29" arrivalSpeed="13.17" duration="39.00" routeLength="409.47" waitingTime="0.00" waitingCount="0" stopTime="0.00" timeLoss="8.07" rerouteNo="1" devices="tripinfo_carIn74045:1 routing_carIn74045:1" vType="default_016" speedFactor="1.03" vaporized=""/>
    <tripinfo id="h330c1:1" depart="57736.00" departLane="-32978638#0_1" departPos="5.10" departSpeed="0.00" departDelay="0.20" arrival="57770.00" arrivalLane="-266565295#5_1" arrivalPos="172.76" arrivalSpeed="13.09" duration="34.00" routeLength="370.53" waitingTime="0.00" waitingCount="0" stopTime="0.00" timeLoss="5.38" rerouteNo="1" devices="tripinfo_h330c1:1 routing_h330c1:1" vType="default_016" speedFactor="0.97" vaporized=""/>
    <tripinfo id="carIn925:1" depart="57717.00" departLane="124812856#0_1" departPos="5.10" departSpeed="0.00" departDelay="90.90" arrival="57771.00" arrivalLane="201956810_1" arrivalPos="71.65" arrivalSpeed="13.85" duration="54.00" routeLength="134.91" waitingTime="34.00" waitingCount="1" stopTime="0.00" timeLoss="44.21" rerouteNo="1" devices="tripinfo_carIn925:1 routing_carIn925:1" vType="default_016" speedFactor="1.08" vaporized=""/>
    <tripinfo id="h15454c2:3" depart="57612.00" departLane="24608844_1" departPos="5.10" departSpeed="0.00" departDelay="0.50" arrival="57777.00" arrivalLane="32978638#0_1" arrivalPos="49.29" arrivalSpeed="12.82" duration="165.00" routeLength="354.79" waitingTime="119.00" waitingCount="1" stopTime="0.00" timeLoss="130.10" rerouteNo="1" devices="tripinfo_h15454c2:3 routing_h15454c2:3" vType="default_016" speedFactor="0.98" vaporized=""/>
    <tripinfo id="carIn106797:1" depart="57726.00" departLane="653473569#5_1" departPos="5.10" departSpeed="0.00" departDelay="1.00" arrival="57779.00" arrivalLane="201956811#0_1" arrivalPos="40.40" arrivalSpeed="14.28" duration="53.00" routeLength="313.24" waitingTime="12.00" waitingCount="3" stopTime="0.00" timeLoss="32.76" rerouteNo="1" devices="tripinfo_carIn106797:1 routing_carIn106797:1" vType="default_016" speedFactor="1.19" vaporized=""/>
    <tripinfo id="11_frequency1.42" depart="57739.00" departLane="315358253#1_1" departPos="12.10" departSpeed="0.00" departDelay="0.30" arrival="57780.00" arrivalLane="32978638#0_1" arrivalPos="49.29" arrivalSpeed="13.30" duration="41.00" routeLength="398.15" waitingTime="0.00" waitingCount="0" stopTime="0.00" timeLoss="10.92" rerouteNo="1" devices="tripinfo_11_frequency1.42 routing_11_frequency1.42" vType="bus" speedFactor="1.00" vaporized=""/>
    <tripinfo id="carIn26708:1" depart="57729.00" departLane="653473569#5_1" departPos="5.10" departSpeed="0.00" departDelay="2.40" arrival="57781.00" arrivalLane="201956811#0_1" arrivalPos="40.40" arrivalSpeed="11.64" duration="52.00" routeLength="313.24" waitingTime="7.00" waitingCount="2" stopTime="0.00" timeLoss="26.11" rerouteNo="1" devices="tripinfo_carIn26708:1 routing_carIn26708:1" vType="default_016" speedFactor="0.93" vaporized=""/>
    <tripinfo id="carIn98605:1" depart="57743.00" departLane="315358253#1_1" departPos="5.10" departSpeed="0.00" departDelay="2.20" arrival="57784.00" arrivalLane="32978638#0_1" arrivalPos="49.29" arrivalSpeed="12.41" duration="41.00" routeLength="405.15" waitingTime="0.00" waitingCount="0" stopTime="0.00" timeLoss="8.39" rerouteNo="1" devices="tripinfo_carIn98605:1 routing_carIn98605:1" vType="default_016" speedFactor="0.94" vaporized=""/>
    <tripinfo id="h319c1:3" depart="57746.00" departLane="315358253#1_1" departPos="5.10" departSpeed="0.00" departDelay="3.70" arrival="57784.00" arrivalLane="32978638#0_2" arrivalPos="49.29" arrivalSpeed="14.63" duration="38.00" routeLength="409.47" waitingTime="0.00" waitingCount="0" stopTime="0.00" timeLoss="11.39" rerouteNo="1" devices="tripinfo_h319c1:3 routing_h319c1:3" vType="default_016" speedFactor="1.15" vaporized=""/>
    <tripinfo id="carIn767:1" depart="57660.00" departLane="124812856#0_1" departPos="5.10" departSpeed="0.00" departDelay="41.50" arrival="57787.00" arrivalLane="-653473569#5_1" arrivalPos="73.05" arrivalSpeed="13.01" duration="127.00" routeLength="450.40" waitingTime="79.00" waitingCount="2" stopTime="0.00" timeLoss="94.06" rerouteNo="1" devices="tripinfo_carIn767:1 routing_carIn767:1" vType="default_016" speedFactor="1.03" vaporized=""/>
    <tripinfo id="carIn34550:1" depart="57734.00" departLane="653473569#5_1" departPos="5.10" departSpeed="0.00" departDelay="3.60" arrival="57789.00" arrivalLane="201956811#0_1" arrivalPos="40.40" arrivalSpeed="14.34" duration="55.00" routeLength="313.24" waitingTime="12.00" waitingCount="3" stopTime="0.00" timeLoss="32.07" rerouteNo="1" devices="tripinfo_carIn34550:1 routing_carIn34550:1" vType="default_016" speedFactor="1.05" vaporized=""/>
    <tripinfo id="carIn131078:1" depart="57775.00" departLane="124812856#0_1" departPos="5.10" departSpeed="0.00" departDelay="139.60" arrival="57791.00" arrivalLane="201956810_1" arrivalPos="71.65" arrivalSpeed="12.94" duration="16.00" routeLength="134.91" waitingTime="0.00" waitingCount="0" stopTime="0.00" timeLoss="5.19" rerouteNo="1" devices="tripinfo_carIn131078:1 routing_carIn131078:1" vType="default_016" speedFactor="0.98" vaporized=""/>
    <tripinfo id="carIn107250:1" depart="57752.00" departLane="315358253#1_1" departPos="5.10" departSpeed="0.00" departDelay="6.70" arrival="57791.00" arrivalLane="32978638#0_1" arrivalPos="49.29" arrivalSpeed="12.89" duration="39.00" routeLength="405.15" waitingTime="0.00" waitingCount="0" stopTime="0.00" timeLoss="5.78" rerouteNo="1" devices="tripinfo_carIn107250:1 routing_carIn107250:1" vType="default_016" speedFactor="0.94" vaporized=""/>
    <tripinfo id="h645c1:1" depart="57622.00" departLane="266565295#5_1" departPos="5.10" departSpeed="0.00" departDelay="0.40" arrival="57793.00" arrivalLane="-315358253#1_1" arrivalPos="63.90" arrivalSpeed="11.39" duration="171.00" routeLength="547.76" waitingTime="113.00" waitingCount="1" stopTime="0.00" timeLoss="125.13" rerouteNo="1" devices="tripinfo_h645c1:1 routing_h645c1:1" vType="default_016" speedFactor="0.88" vaporized=""/>
    <tripinfo id="carIn107842:1" depart="57665.00" departLane="124812856#0_1" departPos="5.10" departSpeed="0.00" departDelay="43.90" arrival="57794.00" arrivalLane="-653473569#5_1" arrivalPos="73.05" arrivalSpeed="13.62" duration="129.00" routeLength="450.40" waitingTime="77.00" waitingCount="3" stopTime="0.00" timeLoss="95.37" rerouteNo="1" devices="tripinfo_carIn107842:1 routing_carIn107842:1" vType="default_016" speedFactor="1.00" vaporized=""/>
    <tripinfo id="carIn3969:1" depart="57708.00" departLane="124812856#0_1" departPos="5.10" departSpeed="0.00" departDelay="84.30" arrival="57796.00" arrivalLane="-653473569#5_1" arrivalPos="73.05" arrivalSpeed="12.96" duration="88.00" routeLength="450.40" waitingTime="37.00" waitingCount="1" stopTime="0.00" timeLoss="54.06" rerouteNo="1" devices="tripinfo_carIn3969:1 routing_carIn3969:1" vType="default_016" speedFactor="0.98" vaporized=""/>
    <tripinfo id="h14316c1:3" depart="57758.00" departLane="315358253#1_1" departPos="5.10" departSpeed="0.00" departDelay="9.00" arrival="57796.00" arrivalLane="32978638#0_1" arrivalPos="49.29" arrivalSpeed="12.31" duration="38.00" routeLength="405.15" waitingTime="0.00" waitingCount="0" stopTime="0.00" timeLoss="6.52" rerouteNo="1" devices="tripinfo_h14316c1:3 routing_h14316c1:3" vType="default_016" speedFactor="0.97" vaporized=""/>
    <tripinfo id="carIn128705:1" depart="57627.00" departLane="124812856#0_1" departPos="5.10" departSpeed="0.00" departDelay="8.60" arrival="57797.00" arrivalLane="202070434#2_1" arrivalPos="39.03" arrivalSpeed="12.61" duration="170.00" routeLength="569.75" waitingTime="105.00" waitingCount="3" stopTime="0.00" timeLoss="127.39" rerouteNo="1" devices="tripinfo_carIn128705:1 routing_carIn128705:1" vType="default_016" speedFactor="0.97" vaporized=""/>
    <tripinfo id="carIn55461:1" depart="57652.00" departLane="10425609#0_1" departPos="5.10" departSpeed="0.00" departDelay="0.30" arrival="57798.00" arrivalLane="201956810_1" arrivalPos="71.65" arrivalSpeed="15.06" duration="146.00" routeLength="255.78" waitingTime="117.00" waitingCount="1" stopTime="0.00" timeLoss="128.71" rerouteNo="1" devices="tripinfo_carIn55461:1 routing_carIn55461:1" vType="default_016" speedFactor="1.17" vaporized=""/>
    <tripinfo id="carIn117869:1" depart="57758.00" departLane="-32978638#0_1" departPos="5.10" departSpeed="0.00" departDelay="0.60" arrival="57799.00" arrivalLane="-315358253#1_1" arrivalPos="63.90" arrivalSpeed="11.50" duration="41.00" routeLength="422.17" waitingTime="0.00" waitingCount="0" stopTime="0.00" timeLoss="6.06" rerouteNo="1" devices="tripinfo_carIn117869:1 routing_carIn117869:1" vType="default_016" speedFactor="0.91" vaporized=""/>
    <tripinfo id="carIn38625:1" depart="57714.00" departLane="124812856#0_1" departPos="5.10" departSpeed="0.00" departDelay="88.50" arrival="57805.00" arrivalLane="-653473569#5_1" arrivalPos="73.05" arrivalSpeed="12.81" duration="91.00" routeLength="450.40" waitingTime="37.00" waitingCount="2" stopTime="0.00" timeLoss="57.70" rerouteNo="1" devices="tripinfo_carIn38625:1 routing_carIn38625:1" vType="default_016" speedFactor="1.01" vaporized=""/>
    <tripinfo id="h21989c1:1" depart="57662.00" departLane="124812856#0_1" departPos="5.10" departSpeed="0.00" departDelay="41.60" arrival="57806.00" arrivalLane="202070434#2_1" arrivalPos="39.03" arrivalSpeed="11.85" duration="144.00" routeLength="569.75" waitingTime="78.00" waitingCount="2" stopTime="0.00" timeLoss="99.76" rerouteNo="1" devices="tripinfo_h21989c1:1 routing_h21989c1:1" vType="default_016" speedFactor="0.93" vaporized=""/>
    <tripinfo id="carIn12900:1" depart="57794.00" departLane="124812856#0_1" departPos="5.10" departSpeed="0.00" departDelay="145.80" arrival="57809.00" arrivalLane="201956810_1" arrivalPos="71.65" arrivalSpeed="13.91" duration="15.00" routeLength="134.91" waitingTime="0.00" waitingCount="0" stopTime="0.00" timeLoss="4.26" rerouteNo="1" devices="tripinfo_carIn12900:1 routing_carIn12900:1" vType="default_016" speedFactor="1.04" vaporized=""/>
    <tripinfo id="h20540c1:1" depart="57634.00" departLane="10425609#0_1" departPos="5.10" departSpeed="0.00" departDelay="0.50" arrival="57813.00" arrivalLane="-653473569#5_1" arrivalPos="73.05" arrivalSpeed="14.23" duration="179.00" routeLength="312.95" waitingTime="137.00" waitingCount="2" stopTime="0.00" timeLoss="156.04" rerouteNo="1" devices="tripinfo_h20540c1:1 routing_h20540c1:1" vType="default_016" speedFactor="1.07" vaporized=""/>
    <tripinfo id="h21130c2:1" depart="57630.00" departLane="10425609#0_1" departPos="5.10" departSpeed="0.00" departDelay="0.10" arrival="57818.00" arrivalLane="202070434#2_1" arrivalPos="39.03" arrivalSpeed="16.10" duration="188.00" routeLength="432.30" waitingTime="135.00" waitingCount="2" stopTime="0.00" timeLoss="160.14" rerouteNo="1" devices="tripinfo_h21130c2:1 routing_h21130c2:1" vType="default_016" speedFactor="1.17" vaporized=""/>
    <tripinfo id="carIn7631:1" depart="57786.00" departLane="-32978638#0_1" departPos="5.10" departSpeed="0.00" departDelay="0.70" arrival="57822.00" arrivalLane="-315358253#1_1" arrivalPos="63.90" arrivalSpeed="14.16" duration="36.00" routeLength="422.17" waitingTime="0.00" waitingCount="0" stopTime="0.00" timeLoss="6.65" rerouteNo="1" devices="tripinfo_carIn7631:1 routing_carIn7631:1" vType="default_016" speedFactor="1.10" vaporized=""/>
    <tripinfo id="h15353c2:1" depart="57763.00" departLane="124812856#0_1" departPos="5.10" departSpeed="0.00" departDelay="132.30" arrival="57826.00" arrivalLane="-653473569#5_1" arrivalPos="73.05" arrivalSpeed="12.11" duration="63.00" routeLength="450.40" waitingTime="4.00" waitingCount="2" stopTime="0.00" timeLoss="24.64" rerouteNo="1" devices="tripinfo_h15353c2:1 routing_h15353c2:1" vType="default_016" speedFactor="0.89" vaporized=""/>
    <tripinfo id="carIn17767:1" depart="57718.00" departLane="124812856#0_1" departPos="5.10" departSpeed="0.00" departDelay="90.80" arrival="57827.00" arrivalLane="-653473569#5_1" arrivalPos="73.05" arrivalSpeed="14.19" duration="109.00" routeLength="450.40" waitingTime="55.00" waitingCount="3" stopTime="0.00" timeLoss="76.98" rerouteNo="1" devices="tripinfo_carIn17767:1 routing_carIn17767:1" vType="default_016" speedFactor="1.05" vaporized=""/>
    <tripinfo id="carIn41791:1" depart="57737.00" departLane="653473569#5_1" departPos="5.10" departSpeed="0.00" departDelay="4.80" arrival="57832.00" arrivalLane="201956811#0_1" arrivalPos="40.40" arrivalSpeed="14.00" duration="95.00" routeLength="313.24" waitingTime="41.00" waitingCount="5" stopTime="0.00" timeLoss="71.46" rerouteNo="1" devices="tripinfo_carIn41791:1 routing_carIn41791:1" vType="default_016" speedFactor="1.02" vaporized=""/>
    <tripinfo id="carIn13016:1" depart="57740.00" departLane="653473569#5_1" departPos="5.10" departSpeed="0.00" departDelay="4.50" arrival="57834.00" arrivalLane="201956811#0_1" arrivalPos="40.40" arrivalSpeed="14.82" duration="94.00" routeLength="313.24" waitingTime="38.00" waitingCount="6" stopTime="0.00" timeLoss="71.54" rerouteNo="1" devices="tripinfo_carIn13016:1 routing_carIn13016:1" vType="default_016" speedFactor="1.07" vaporized=""/>