<?xml version="1.0" encoding="UTF-8"?>

<!-- generated on 2023-08-31 12:48:39 by Eclipse SUMO libsumo Version 1.18.0
<configuration xmlns:xsi="http://www.w3.org/2001/XMLSchema-instance" xsi:noNamespaceSchemaLocation="http://sumo.dlr.de/xsd/libsumoConfiguration.xsd">

    <input>
        <net-file value="/home/stefan/RESCO/./environments/ingolstadt7/ingolstadt7.net.xml"/>
        <route-files value="/home/stefan/RESCO/./environments/ingolstadt7/ingolstadt7.rou.xml"/>
    </input>

    <output>
        <tripinfo-output value="/home/stefan/results/RAINBOW-tr0-ingolstadt7-7-drq_norm-wait_norm/tripinfo_82.xml"/>
        <tripinfo-output.write-unfinished value="true"/>
    </output>

    <time>
        <begin value="57600"/>
        <end value="61200"/>
    </time>

    <processing>
        <time-to-teleport value="-1"/>
    </processing>

    <report>
        <no-warnings value="True"/>
        <no-step-log value="True"/>
    </report>

    <random_number>
        <random value="true"/>
    </random_number>

</configuration>
-->

<tripinfos xmlns:xsi="http://www.w3.org/2001/XMLSchema-instance" xsi:noNamespaceSchemaLocation="http://sumo.dlr.de/xsd/tripinfo_file.xsd">
    <tripinfo id="carIn89578:1" depart="57614.00" departLane="124812856#0_1" departPos="5.10" departSpeed="0.00" departDelay="3.60" arrival="57630.00" arrivalLane="201956810_1" arrivalPos="71.65" arrivalSpeed="12.70" duration="16.00" routeLength="134.91" waitingTime="0.00" waitingCount="0" stopTime="0.00" timeLoss="4.60" rerouteNo="1" devices="tripinfo_carIn89578:1 routing_carIn89578:1" vType="default_016" speedFactor="0.97" vaporized=""/>
    <tripinfo id="carIn25202:1" depart="57629.00" departLane="315358253#1_1" departPos="5.10" departSpeed="0.00" departDelay="1.50" arrival="57668.00" arrivalLane="32978638#0_1" arrivalPos="49.29" arrivalSpeed="12.91" duration="39.00" routeLength="405.15" waitingTime="0.00" waitingCount="0" stopTime="0.00" timeLoss="6.56" rerouteNo="1" devices="tripinfo_carIn25202:1 routing_carIn25202:1" vType="default_016" speedFactor="0.95" vaporized=""/>
    <tripinfo id="carIn925:1" depart="57654.00" departLane="124812856#0_1" departPos="5.10" departSpeed="0.00" departDelay="27.90" arrival="57669.00" arrivalLane="201956810_1" arrivalPos="71.65" arrivalSpeed="13.81" duration="15.00" routeLength="134.91" waitingTime="0.00" waitingCount="0" stopTime="0.00" timeLoss="4.01" rerouteNo="1" devices="tripinfo_carIn925:1 routing_carIn925:1" vType="default_016" speedFactor="1.01" vaporized=""/>
    <tripinfo id="carIn55461:1" depart="57652.00" departLane="10425609#0_1" departPos="5.10" departSpeed="0.00" departDelay="0.30" arrival="57680.00" arrivalLane="201956810_1" arrivalPos="71.65" arrivalSpeed="11.93" duration="28.00" routeLength="255.78" waitingTime="0.00" waitingCount="0" stopTime="0.00" timeLoss="6.06" rerouteNo="1" devices="tripinfo_carIn55461:1 routing_carIn55461:1" vType="default_016" speedFactor="0.94" vaporized=""/>
    <tripinfo id="carIn33538:1" depart="57671.00" departLane="37386279_1" departPos="5.10" departSpeed="0.00" departDelay="0.30" arrival="57685.00" arrivalLane="-24634414#4_1" arrivalPos="22.88" arrivalSpeed="9.32" duration="14.00" routeLength="125.23" waitingTime="0.00" waitingCount="0" stopTime="0.00" timeLoss="4.29" rerouteNo="0" devices="tripinfo_carIn33538:1 routing_carIn33538:1" vType="default_016" speedFactor="1.21" vaporized=""/>
    <tripinfo id="carIn114137:1" depart="57633.00" departLane="27920078#0_1" departPos="5.10" departSpeed="0.00" departDelay="2.10" arrival="57690.00" arrivalLane="-83304175#2_1" arrivalPos="189.34" arrivalSpeed="7.71" duration="57.00" routeLength="501.51" waitingTime="0.00" waitingCount="0" stopTime="0.00" timeLoss="11.95" rerouteNo="1" devices="tripinfo_carIn114137:1 routing_carIn114137:1" vType="default_016" speedFactor="1.06" vaporized=""/>
    <tripinfo id="carIn22637:1" depart="57634.00" departLane="27920078#0_1" departPos="5.10" departSpeed="0.00" departDelay="1.50" arrival="57693.00" arrivalLane="-83304175#2_1" arrivalPos="189.34" arrivalSpeed="8.03" duration="59.00" routeLength="501.51" waitingTime="0.00" waitingCount="0" stopTime="0.00" timeLoss="12.20" rerouteNo="1" devices="tripinfo_carIn22637:1 routing_carIn22637:1" vType="default_016" speedFactor="1.00" vaporized=""/>
    <tripinfo id="carIn131078:1" depart="57679.00" departLane="124812856#0_1" departPos="5.10" departSpeed="0.00" departDelay="43.60" arrival="57700.00" arrivalLane="201956810_1" arrivalPos="71.65" arrivalSpeed="14.48" duration="21.00" routeLength="134.91" waitingTime="0.00" waitingCount="0" stopTime="0.00" timeLoss="10.40" rerouteNo="1" devices="tripinfo_carIn131078:1 routing_carIn131078:1" vType="default_016" speedFactor="1.05" vaporized=""/>
    <tripinfo id="carIn7887:1" depart="57661.00" departLane="27920078#0_1" departPos="5.10" departSpeed="0.00" departDelay="0.50" arrival="57712.00" arrivalLane="-83304175#2_1" arrivalPos="189.34" arrivalSpeed="8.11" duration="51.00" routeLength="501.51" waitingTime="0.00" waitingCount="0" stopTime="0.00" timeLoss="5.90" rerouteNo="1" devices="tripinfo_carIn7887:1 routing_carIn7887:1" vType="default_016" speedFactor="1.06" vaporized=""/>
    <tripinfo id="h3688c1:1" depart="57679.00" departLane="315358253#1_1" departPos="5.10" departSpeed="0.00" departDelay="0.50" arrival="57717.00" arrivalLane="32978638#0_1" arrivalPos="49.29" arrivalSpeed="12.90" duration="38.00" routeLength="405.15" waitingTime="0.00" waitingCount="0" stopTime="0.00" timeLoss="6.52" rerouteNo="1" devices="tripinfo_h3688c1:1 routing_h3688c1:1" vType="default_016" speedFactor="0.98" vaporized=""/>
    <tripinfo id="h317c2:1" depart="57707.00" departLane="-32978638#0_1" departPos="5.10" departSpeed="0.00" departDelay="0.10" arrival="57740.00" arrivalLane="-266565295#5_1" arrivalPos="172.76" arrivalSpeed="13.28" duration="33.00" routeLength="370.53" waitingTime="0.00" waitingCount="0" stopTime="0.00" timeLoss="6.06" rerouteNo="1" devices="tripinfo_h317c2:1 routing_h317c2:1" vType="default_016" speedFactor="1.04" vaporized=""/>
    <tripinfo id="randUni22709:1" depart="57718.00" departLane="315358253#1_1" departPos="5.10" departSpeed="0.00" departDelay="0.20" arrival="57755.00" arrivalLane="32978638#0_1" arrivalPos="49.29" arrivalSpeed="14.50" duration="37.00" routeLength="405.15" waitingTime="0.00" waitingCount="0" stopTime="0.00" timeLoss="7.64" rerouteNo="1" devices="tripinfo_randUni22709:1 routing_randUni22709:1" vType="random_016" speedFactor="1.06" vaporized=""/>
    <tripinfo id="carIn99509:1" depart="57720.00" departLane="-32978638#0_1" departPos="5.10" departSpeed="0.00" departDelay="0.20" arrival="57760.00" arrivalLane="-315358253#1_1" arrivalPos="63.90" arrivalSpeed="12.40" duration="40.00" routeLength="422.17" waitingTime="0.00" waitingCount="0" stopTime="0.00" timeLoss="6.44" rerouteNo="1" devices="tripinfo_carIn99509:1 routing_carIn99509:1" vType="default_015" speedFactor="0.96" vaporized=""/>
    <tripinfo id="h134c1:3" depart="57721.00" departLane="315358253#1_1" departPos="5.10" departSpeed="0.00" departDelay="1.60" arrival="57763.00" arrivalLane="32978638#0_1" arrivalPos="49.29" arrivalSpeed="11.92" duration="42.00" routeLength="405.15" waitingTime="0.00" waitingCount="0" stopTime="0.00" timeLoss="6.45" rerouteNo="1" devices="tripinfo_h134c1:3 routing_h134c1:3" vType="default_016" speedFactor="0.87" vaporized=""/>
    <tripinfo id="carIn74045:1" depart="57724.00" departLane="315358253#1_1" departPos="5.10" departSpeed="0.00" departDelay="3.00" arrival="57764.00" arrivalLane="32978638#0_1" arrivalPos="49.29" arrivalSpeed="12.53" duration="40.00" routeLength="405.15" waitingTime="0.00" waitingCount="0" stopTime="0.00" timeLoss="13.81" rerouteNo="1" devices="tripinfo_carIn74045:1 routing_carIn74045:1" vType="default_016" speedFactor="1.16" vaporized=""/>
    <tripinfo id="h330c1:1" depart="57736.00" departLane="-32978638#0_1" departPos="5.10" departSpeed="0.00" departDelay="0.20" arrival="57780.00" arrivalLane="-266565295#5_1" arrivalPos="172.76" arrivalSpeed="10.04" duration="44.00" routeLength="370.53" waitingTime="0.00" waitingCount="0" stopTime="0.00" timeLoss="6.18" rerouteNo="1" devices="tripinfo_h330c1:1 routing_h330c1:1" vType="default_016" speedFactor="0.74" vaporized=""/>
    <tripinfo id="11_frequency1.42" depart="57739.00" departLane="315358253#1_1" departPos="12.10" departSpeed="0.00" departDelay="0.30" arrival="57780.00" arrivalLane="32978638#0_1" arrivalPos="49.29" arrivalSpeed="13.38" duration="41.00" routeLength="398.15" waitingTime="0.00" waitingCount="0" stopTime="0.00" timeLoss="10.40" rerouteNo="1" devices="tripinfo_11_frequency1.42 routing_11_frequency1.42" vType="bus" speedFactor="1.00" vaporized=""/>
    <tripinfo id="carIn98605:1" depart="57743.00" departLane="315358253#1_1" departPos="5.10" departSpeed="0.00" departDelay="2.20" arrival="57782.00" arrivalLane="32978638#0_1" arrivalPos="49.29" arrivalSpeed="14.35" duration="39.00" routeLength="405.15" waitingTime="0.00" waitingCount="0" stopTime="0.00" timeLoss="10.59" rerouteNo="1" devices="tripinfo_carIn98605:1 routing_carIn98605:1" vType="default_016" speedFactor="1.08" vaporized=""/>
    <tripinfo id="h319c1:3" depart="57746.00" departLane="315358253#1_1" departPos="5.10" departSpeed="0.00" departDelay="3.70" arrival="57784.00" arrivalLane="32978638#0_2" arrivalPos="49.29" arrivalSpeed="13.83" duration="38.00" routeLength="409.47" waitingTime="0.00" waitingCount="0" stopTime="0.00" timeLoss="8.51" rerouteNo="1" devices="tripinfo_h319c1:3 routing_h319c1:3" vType="default_016" speedFactor="1.08" vaporized=""/>
    <tripinfo id="carIn106325:1" depart="57713.00" departLane="27920078#0_1" departPos="5.10" departSpeed="0.00" departDelay="0.10" arrival="57789.00" arrivalLane="-83304175#2_1" arrivalPos="189.34" arrivalSpeed="6.80" duration="76.00" routeLength="501.51" waitingTime="9.00" waitingCount="1" stopTime="0.00" timeLoss="21.59" rerouteNo="1" devices="tripinfo_carIn106325:1 routing_carIn106325:1" vType="default_016" speedFactor="0.87" vaporized=""/>
    <tripinfo id="carIn107250:1" depart="57752.00" departLane="315358253#1_1" departPos="5.10" departSpeed="0.00" departDelay="6.70" arrival="57789.00" arrivalLane="32978638#0_1" arrivalPos="49.29" arrivalSpeed="12.64" duration="37.00" routeLength="405.15" waitingTime="0.00" waitingCount="0" stopTime="0.00" timeLoss="6.74" rerouteNo="1" devices="tripinfo_carIn107250:1 routing_carIn107250:1" vType="default_016" speedFactor="1.00" vaporized=""/>
    <tripinfo id="carIn99738:1" depart="57718.00" departLane="27920078#0_1" departPos="5.10" departSpeed="0.00" departDelay="0.30" arrival="57791.00" arrivalLane="-83304175#2_1" arrivalPos="189.34" arrivalSpeed="8.21" duration="73.00" routeLength="501.51" waitingTime="4.00" waitingCount="1" stopTime="0.00" timeLoss="25.95" rerouteNo="1" devices="tripinfo_carIn99738:1 routing_carIn99738:1" vType="default_016" speedFactor="1.01" vaporized=""/>
    <tripinfo id="h14316c1:3" depart="57758.00" departLane="315358253#1_1" departPos="5.10" departSpeed="0.00" departDelay="9.00" arrival="57798.00" arrivalLane="32978638#0_1" arrivalPos="49.29" arrivalSpeed="12.43" duration="40.00" routeLength="405.15" waitingTime="0.00" waitingCount="0" stopTime="0.00" timeLoss="6.37" rerouteNo="1" devices="tripinfo_h14316c1:3 routing_h14316c1:3" vType="default_016" speedFactor="0.92" vaporized=""/>
    <tripinfo id="carIn117869:1" depart="57758.00" departLane="-32978638#0_1" departPos="5.10" departSpeed="0.00" departDelay="0.60" arrival="57801.00" arrivalLane="-315358253#1_1" arrivalPos="63.90" arrivalSpeed="10.99" duration="43.00" routeLength="422.17" waitingTime="0.00" waitingCount="0" stopTime="0.00" timeLoss="6.76" rerouteNo="1" devices="tripinfo_carIn117869:1 routing_carIn117869:1" vType="default_016" speedFactor="0.87" vaporized=""/>
    <tripinfo id="carIn95310:1" depart="57753.00" departLane="27920078#0_1" departPos="5.10" departSpeed="0.00" departDelay="0.50" arrival="57810.00" arrivalLane="-83304175#2_1" arrivalPos="189.34" arrivalSpeed="8.80" duration="57.00" routeLength="501.51" waitingTime="0.00" waitingCount="0" stopTime="0.00" timeLoss="12.83" rerouteNo="1" devices="tripinfo_carIn95310:1 routing_carIn95310:1" vType="default_016" speedFactor="1.06" vaporized=""/>
    <tripinfo id="carIn40211:1" depart="57756.00" departLane="27920078#0_1" departPos="5.10" departSpeed="0.00" departDelay="0.00" arrival="57815.00" arrivalLane="-83304175#2_1" arrivalPos="189.34" arrivalSpeed="7.64" duration="59.00" routeLength="501.51" waitingTime="0.00" waitingCount="0" stopTime="0.00" timeLoss="12.33" rerouteNo="1" devices="tripinfo_carIn40211:1 routing_carIn40211:1" vType="default_016" speedFactor="1.01" vaporized=""/>
    <tripinfo id="carIn7631:1" depart="57786.00" departLane="-32978638#0_1" departPos="5.10" departSpeed="0.00" departDelay="0.70" arrival="57824.00" arrivalLane="-315358253#1_1" arrivalPos="63.90" arrivalSpeed="13.06" duration="38.00" routeLength="422.17" waitingTime="0.00" waitingCount="0" stopTime="0.00" timeLoss="6.83" rerouteNo="1" devices="tripinfo_carIn7631:1 routing_carIn7631:1" vType="default_016" speedFactor="1.03" vaporized=""/>
    <tripinfo id="h19105c2:3" depart="57795.00" departLane="10425609#0_1" departPos="5.10" departSpeed="0.00" departDelay="0.60" arrival="57840.00" arrivalLane="-653473569#5_1" arrivalPos="73.05" arrivalSpeed="15.60" duration="45.00" routeLength="323.56" waitingTime="0.00" waitingCount="0" stopTime="0.00" timeLoss="8.24" rerouteNo="1" devices="tripinfo_h19105c2:3 routing_h19105c2:3" vType="default_016" speedFactor="1.19" vaporized=""/>
    <tripinfo id="randUni31145:1" depart="57814.00" departLane="10425609#0_1" departPos="5.10" departSpeed="0.00" departDelay="0.30" arrival="57842.00" arrivalLane="201956810_1" arrivalPos="71.65" arrivalSpeed="11.12" duration="28.00" routeLength="255.78" waitingTime="0.00" waitingCount="0" stopTime="0.00" timeLoss="6.25" rerouteNo="1" devices="tripinfo_randUni31145:1 routing_randUni31145:1" vType="random_016" speedFactor="0.89" vaporized=""/>
    <tripinfo id="randUni2407:1" depart="57820.00" departLane="10425609#0_1" departPos="5.10" departSpeed="0.00" departDelay="0.80" arrival="57845.00" arrivalLane="201956810_1" arrivalPos="71.65" arrivalSpeed="14.27" duration="25.00" routeLength="255.78" waitingTime="0.00" waitingCount="0" stopTime="0.00" timeLoss="6.88" rerouteNo="1" devices="tripinfo_randUni2407:1 routing_randUni2407:1" vType="random_016" speedFactor="1.09" vaporized=""/>
    <tripinfo id="carIn46110:1" depart="57804.00" departLane="315358253#1_1" departPos="5.10" departSpeed="0.00" departDelay="0.40" arrival="57846.00" arrivalLane="32978638#0_1" arrivalPos="49.29" arrivalSpeed="10.82" duration="42.00" routeLength="405.15" waitingTime="0.00" waitingCount="0" stopTime="0.00" timeLoss="6.23" rerouteNo="1" devices="tripinfo_carIn46110:1 routing_carIn46110:1" vType="default_016" speedFactor="0.86" vaporized=""/>
    <tripinfo id="h6541c1:3" depart="57807.00" departLane="315358253#1_1" departPos="5.10" departSpeed="0.00" departDelay="0.60" arrival="57847.00" arrivalLane="32978638#0_2" arrivalPos="49.29" arrivalSpeed="13.61" duration="40.00" routeLength="409.47" waitingTime="0.00" waitingCount="0" stopTime="0.00" timeLoss="9.59" rerouteNo="1" devices="tripinfo_h6541c1:3 routing_h6541c1:3" vType="default_016" speedFactor="1.04" vaporized=""/>
    <tripinfo id="carIn48068:1" depart="57799.00" departLane="27920078#0_1" departPos="5.10" departSpeed="0.00" departDelay="0.80" arrival="57857.00" arrivalLane="-83304175#2_1" arrivalPos="189.34" arrivalSpeed="7.90" duration="58.00" routeLength="501.51" waitingTime="2.00" waitingCount="1" stopTime="0.00" timeLoss="14.43" rerouteNo="1" devices="tripinfo_carIn48068:1 routing_carIn48068:1" vType="default_016" speedFactor="1.08" vaporized=""/>
    <tripinfo id="carIn60437:1" depart="57800.00" departLane="27920078#0_1" departPos="5.10" departSpeed="0.00" departDelay="0.30" arrival="57861.00" arrivalLane="-83304175#2_1" arrivalPos="189.34" arrivalSpeed="8.47" duration="61.00" routeLength="501.51" waitingTime="0.00" waitingCount="0" stopTime="0.00" timeLoss="15.52" rerouteNo="1" devices="tripinfo_carIn60437:1 routing_carIn60437:1" vType="default_016" speedFactor="1.05" vaporized=""/>
    <tripinfo id="carIn9810:1" depart="57820.00" departLane="315358253#1_1" departPos="5.10" departSpeed="0.00" departDelay="0.80" arrival="57861.00" arrivalLane="32978638#0_1" arrivalPos="49.29" arrivalSpeed="11.56" duration="41.00" routeLength="405.15" waitingTime="0.00" waitingCount="0" stopTime="0.00" timeLoss="6.45" rerouteNo="1" devices="tripinfo_carIn9810:1 routing_carIn9810:1" vType="default_016" speedFactor="0.91" vaporized=""/>
    <tripinfo id="h3536c1:1" depart="57836.00" departLane="315358253#1_1" departPos="5.10" departSpeed="0.00" departDelay="0.80" arrival="57871.00" arrivalLane="32978638#0_1" arrivalPos="49.29" arrivalSpeed="15.17" duration="35.00" routeLength="405.15" waitingTime="0.00" waitingCount="0" stopTime="0.00" timeLoss="6.57" rerouteNo="1" devices="tripinfo_h3536c1:1 routing_h3536c1:1" vType="default_016" speedFactor="1.09" vaporized=""/>
    <tripinfo id="carIn114105:1" depart="57821.00" departLane="10425609#0_1" departPos="5.10" departSpeed="0.00" departDelay="0.20" arrival="57888.00" arrivalLane="-653473569#5_1" arrivalPos="73.05" arrivalSpeed="12.17" duration="67.00" routeLength="323.56" waitingTime="4.00" waitingCount="1" stopTime="0.00" timeLoss="17.94" rerouteNo="1" devices="tripinfo_carIn114105:1 routing_carIn114105:1" vType="default_016" speedFactor="0.89" vaporized=""/>
    <tripinfo id="carIn72316:1" depart="57826.00" departLane="10425609#0_1" departPos="5.10" departSpeed="0.00" departDelay="0.50" arrival="57890.00" arrivalLane="-653473569#5_1" arrivalPos="73.05" arrivalSpeed="11.96" duration="64.00" routeLength="323.56" waitingTime="3.00" waitingCount="1" stopTime="0.00" timeLoss="17.32" rerouteNo="1" devices="tripinfo_carIn72316:1 routing_carIn72316:1" vType="default_016" speedFactor="0.92" vaporized=""/>
    <tripinfo id="h13311c1:3" depart="57861.00" departLane="315358253#1_1" departPos="5.10" departSpeed="0.00" departDelay="0.00" arrival="57893.00" arrivalLane="32978638#0_1" arrivalPos="49.29" arrivalSpeed="17.01" duration="32.00" routeLength="405.15" waitingTime="0.00" waitingCount="0" stopTime="0.00" timeLoss="6.98" rerouteNo="1" devices="tripinfo_h13311c1:3 routing_h13311c1:3" vType="default_016" speedFactor="1.24" vaporized=""/>
    <tripinfo id="carIn101921:1" depart="57856.00" departLane="-32978638#0_1" departPos="5.10" departSpeed="0.00" departDelay="5.90" arrival="57902.00" arrivalLane="-315358253#1_1" arrivalPos="63.90" arrivalSpeed="9.93" duration="46.00" routeLength="422.17" waitingTime="0.00" waitingCount="0" stopTime="0.00" timeLoss="6.14" rerouteNo="1" devices="tripinfo_carIn101921:1 routing_carIn101921:1" vType="default_016" speedFactor="0.81" vaporized=""/>
    <tripinfo id="h7759c1:3" depart="57859.00" departLane="-32978638#0_1" departPos="5.10" departSpeed="0.00" departDelay="7.20" arrival="57903.00" arrivalLane="-315358253#1_1" arrivalPos="63.90" arrivalSpeed="12.20" duration="44.00" routeLength="420.12" waitingTime="0.00" waitingCount="0" stopTime="0.00" timeLoss="13.81" rerouteNo="1" devices="tripinfo_h7759c1:3 routing_h7759c1:3" vType="default_016" speedFactor="1.04" vaporized=""/>
    <tripinfo id="carIn64958:1" depart="57857.00" departLane="10425609#0_1" departPos="5.10" departSpeed="0.00" departDelay="0.60" arrival="57904.00" arrivalLane="-653473569#5_1" arrivalPos="73.05" arrivalSpeed="15.76" duration="47.00" routeLength="323.56" waitingTime="0.00" waitingCount="0" stopTime="0.00" timeLoss="8.95" rerouteNo="1" devices="tripinfo_carIn64958:1 routing_carIn64958:1" vType="default_016" speedFactor="1.15" vaporized=""/>
    <tripinfo id="carIn126072:1" depart="57870.00" departLane="315358253#1_1" departPos="5.10" departSpeed="0.00" departDelay="0.80" arrival="57905.00" arrivalLane="32978638#0_1" arrivalPos="49.29" arrivalSpeed="15.13" duration="35.00" routeLength="405.15" waitingTime="0.00" waitingCount="0" stopTime="0.00" timeLoss="6.40" rerouteNo="1" devices="tripinfo_carIn126072:1 routing_carIn126072:1" vType="default_016" speedFactor="1.09" vaporized=""/>
    <tripinfo id="carIn88912:1" depart="57867.00" departLane="-32978638#0_1" departPos="5.10" departSpeed="0.00" departDelay="0.20" arrival="57908.00" arrivalLane="-315358253#1_1" arrivalPos="63.90" arrivalSpeed="12.31" duration="41.00" routeLength="422.17" waitingTime="0.00" waitingCount="0" stopTime="0.00" timeLoss="5.82" rerouteNo="1" devices="tripinfo_carIn88912:1 routing_carIn88912:1" vType="default_016" speedFactor="0.92" vaporized=""/>
    <tripinfo id="carIn133015:1" depart="57864.00" departLane="10425609#0_1" departPos="5.10" departSpeed="0.00" departDelay="0.00" arrival="57914.00" arrivalLane="-653473569#5_1" arrivalPos="73.05" arrivalSpeed="14.38" duration="50.00" routeLength="323.56" waitingTime="0.00" waitingCount="0" stopTime="0.00" timeLoss="8.70" rerouteNo="1" devices="tripinfo_carIn133015:1 routing_carIn133015:1" vType="default_016" speedFactor="1.04" vaporized=""/>
    <tripinfo id="carIn69046:1" depart="57887.00" departLane="-32978638#0_1" departPos="5.10" departSpeed="0.00" departDelay="0.40" arrival="57924.00" arrivalLane="-315358253#1_1" arrivalPos="63.90" arrivalSpeed="13.73" duration="37.00" routeLength="422.17" waitingTime="0.00" waitingCount="0" stopTime="0.00" timeLoss="6.85" rerouteNo="1" devices="tripinfo_carIn69046:1 routing_carIn69046:1" vType="default_016" speedFactor="1.04" vaporized=""/>
    <tripinfo id="h21699c2:1" depart="57890.00" departLane="-32978638#0_1" departPos="5.10" departSpeed="0.00" departDelay="1.90" arrival="57928.00" arrivalLane="-315358253#1_1" arrivalPos="63.90" arrivalSpeed="13.22" duration="38.00" routeLength="422.17" waitingTime="0.00" waitingCount="0" stopTime="0.00" timeLoss="6.60" rerouteNo="1" devices="tripinfo_h21699c2:1 routing_h21699c2:1" vType="default_016" speedFactor="1.02" vaporized=""/>
    <tripinfo id="h17890c1:3" depart="57893.00" departLane="315358253#1_1" departPos="5.10" departSpeed="0.00" departDelay="0.90" arrival="57928.00" arrivalLane="32978638#0_1" arrivalPos="49.29" arrivalSpeed="14.04" duration="35.00" routeLength="405.15" waitingTime="0.00" waitingCount="0" stopTime="0.00" timeLoss="6.36" rerouteNo="1" devices="tripinfo_h17890c1:3 routing_h17890c1:3" vType="default_016" speedFactor="1.07" vaporized=""/>
    <tripinfo id="h2997c2:1" depart="57849.00" departLane="27920078#0_1" departPos="5.10" departSpeed="0.00" departDelay="0.60" arrival="57930.00" arrivalLane="-83304175#2_1" arrivalPos="189.34" arrivalSpeed="6.26" duration="81.00" routeLength="501.51" waitingTime="12.00" waitingCount="1" stopTime="0.00" timeLoss="24.42" rerouteNo="1" devices="tripinfo_h2997c2:1 routing_h2997c2:1" vType="default_016" speedFactor="0.83" vaporized=""/>
    <tripinfo id="h4784c1:3" depart="57899.00" departLane="315358253#1_1" departPos="5.10" departSpeed="0.00" departDelay="0.10" arrival="57935.00" arrivalLane="32978638#0_1" arrivalPos="49.29" arrivalSpeed="14.26" duration="36.00" routeLength="405.15" waitingTime="0.00" waitingCount="0" stopTime="0.00" timeLoss="6.12" rerouteNo="1" devices="tripinfo_h4784c1:3 routing_h4784c1:3" vType="default_016" speedFactor="1.06" vaporized=""/>
    <tripinfo id="randUni16001:1" depart="57912.00" departLane="10425609#0_1" departPos="5.10" departSpeed="0.00" departDelay="0.30" arrival="57935.00" arrivalLane="201956810_1" arrivalPos="71.65" arrivalSpeed="16.04" duration="23.00" routeLength="255.78" waitingTime="0.00" waitingCount="0" stopTime="0.00" timeLoss="6.15" rerouteNo="1" devices="tripinfo_randUni16001:1 routing_randUni16001:1" vType="random_016" speedFactor="1.21" vaporized=""/>
    <tripinfo id="carIn48137:1" depart="57903.00" departLane="315358253#1_1" departPos="5.10" departSpeed="0.00" departDelay="0.20" arrival="57939.00" arrivalLane="32978638#0_1" arrivalPos="49.29" arrivalSpeed="13.27" duration="36.00" routeLength="405.15" waitingTime="0.00" waitingCount="0" stopTime="0.00" timeLoss="5.80" rerouteNo="1" devices="tripinfo_carIn48137:1 routing_carIn48137:1" vType="default_016" speedFactor="1.01" vaporized=""/>
    <tripinfo id="h21872c1:1" depart="57901.00" departLane="-32978638#0_1" departPos="5.10" departSpeed="0.00" departDelay="0.70" arrival="57940.00" arrivalLane="-315358253#1_1" arrivalPos="63.90" arrivalSpeed="13.55" duration="39.00" routeLength="422.17" waitingTime="0.00" waitingCount="0" stopTime="0.00" timeLoss="6.94" rerouteNo="1" devices="tripinfo_h21872c1:1 routing_h21872c1:1" vType="default_016" speedFactor="0.99" vaporized=""/>
    <tripinfo id="h3847c1:3" depart="57907.00" departLane="315358253#1_1" departPos="5.10" departSpeed="0.00" departDelay="0.40" arrival="57941.00" arrivalLane="32978638#0_1" arrivalPos="49.29" arrivalSpeed="15.11" duration="34.00" routeLength="405.15" waitingTime="0.00" waitingCount="0" stopTime="0.00" timeLoss="7.46" rerouteNo="1" devices="tripinfo_h3847c1:3 routing_h3847c1:3" vType="default_016" speedFactor="1.15" vaporized=""/>
    <tripinfo id="carIn41236:1" depart="57904.00" departLane="-32978638#0_1" departPos="5.10" departSpeed="0.00" departDelay="2.10" arrival="57942.00" arrivalLane="-315358253#1_1" arrivalPos="63.90" arrivalSpeed="13.30" duration="38.00" routeLength="422.17" waitingTime="0.00" waitingCount="0" stopTime="0.00" timeLoss="7.36" rerouteNo="1" devices="tripinfo_carIn41236:1 routing_carIn41236:1" vType="default_016" speedFactor="1.04" vaporized=""/>
    <tripinfo id="randUni33912:1" depart="57873.00" departLane="-22716549#6_1" departPos="5.10" departSpeed="0.00" departDelay="0.00" arrival="57948.00" arrivalLane="202070434#2_1" arrivalPos="39.03" arrivalSpeed="11.35" duration="75.00" routeLength="632.93" waitingTime="0.00" waitingCount="0" stopTime="0.00" timeLoss="8.25" rerouteNo="1" devices="tripinfo_randUni33912:1 routing_randUni33912:1" vType="random_016" speedFactor="0.89" vaporized=""/>
    <tripinfo id="h19571c2:3" depart="57882.00" departLane="10425609#0_1" departPos="5.10" departSpeed="0.00" departDelay="0.30" arrival="57950.00" arrivalLane="-653473569#5_1" arrivalPos="73.05" arrivalSpeed="10.12" duration="68.00" routeLength="323.56" waitingTime="0.00" waitingCount="0" stopTime="0.00" timeLoss="11.67" rerouteNo="1" devices="tripinfo_h19571c2:3 routing_h19571c2:3" vType="default_016" speedFactor="0.77" vaporized=""/>
    <tripinfo id="carIn75793:1" depart="57884.00" departLane="653473569#5_1" departPos="5.10" departSpeed="0.00" departDelay="0.80" arrival="57950.00" arrivalLane="-83304175#2_1" arrivalPos="189.34" arrivalSpeed="7.96" duration="66.00" routeLength="613.06" waitingTime="0.00" waitingCount="0" stopTime="0.00" timeLoss="7.30" rerouteNo="1" devices="tripinfo_carIn75793:1 routing_carIn75793:1" vType="default_016" speedFactor="0.96" vaporized=""/>
    <tripinfo id="carIn101809:1" depart="57912.00" departLane="-32978638#0_1" departPos="5.10" departSpeed="0.00" departDelay="4.60" arrival="57951.00" arrivalLane="-315358253#1_1" arrivalPos="63.90" arrivalSpeed="13.56" duration="39.00" routeLength="422.17" waitingTime="0.00" waitingCount="0" stopTime="0.00" timeLoss="8.38" rerouteNo="1" devices="tripinfo_carIn101809:1 routing_carIn101809:1" vType="default_016" speedFactor="1.04" vaporized=""/>
    <tripinfo id="carIn88487:1" depart="57916.00" departLane="-32978638#0_1" departPos="5.10" departSpeed="0.00" departDelay="6.80" arrival="57954.00" arrivalLane="-315358253#1_1" arrivalPos="63.90" arrivalSpeed="14.64" duration="38.00" routeLength="420.12" waitingTime="0.00" waitingCount="0" stopTime="0.00" timeLoss="7.30" rerouteNo="1" devices="tripinfo_carIn88487:1 routing_carIn88487:1" vType="default_016" speedFactor="1.06" vaporized=""/>
    <tripinfo id="h17593c1:1" depart="57907.00" departLane="10425609#0_1" departPos="5.10" departSpeed="0.00" departDelay="0.90" arrival="57964.00" arrivalLane="-653473569#5_1" arrivalPos="73.05" arrivalSpeed="12.57" duration="57.00" routeLength="323.56" waitingTime="0.00" waitingCount="0" stopTime="0.00" timeLoss="9.98" rerouteNo="1" devices="tripinfo_h17593c1:1 routing_h17593c1:1" vType="default_016" speedFactor="0.92" vaporized=""/>
    <tripinfo id="h19505c1:1" depart="57930.00" departLane="315358253#1_1" departPos="5.10" departSpeed="0.00" departDelay="0.30" arrival="57969.00" arrivalLane="32978638#0_1" arrivalPos="49.29" arrivalSpeed="12.74" duration="39.00" routeLength="405.15" waitingTime="0.00" waitingCount="0" stopTime="0.00" timeLoss="6.84" rerouteNo="1" devices="tripinfo_h19505c1:1 routing_h19505c1:1" vType="default_016" speedFactor="0.95" vaporized=""/>
    <tripinfo id="carIn92238:1" depart="57936.00" departLane="-32978638#0_1" departPos="5.10" departSpeed="0.00" departDelay="0.40" arrival="57977.00" arrivalLane="-315358253#1_1" arrivalPos="63.90" arrivalSpeed="12.54" duration="41.00" routeLength="422.17" waitingTime="0.00" waitingCount="0" stopTime="0.00" timeLoss="5.81" rerouteNo="1" devices="tripinfo_carIn92238:1 routing_carIn92238:1" vType="default_016" speedFactor="0.92" vaporized=""/>
    <tripinfo id="carIn14948:1" depart="57945.00" departLane="-32978638#0_1" departPos="5.10" departSpeed="0.00" departDelay="4.10" arrival="57985.00" arrivalLane="-315358253#1_1" arrivalPos="63.90" arrivalSpeed="12.75" duration="40.00" routeLength="422.17" waitingTime="0.00" waitingCount="0" stopTime="0.00" timeLoss="5.98" rerouteNo="1" devices="tripinfo_carIn14948:1 routing_carIn14948:1" vType="default_016" speedFactor="0.95" vaporized=""/>