<?xml version="1.0" encoding="UTF-8"?>

<!-- generated on 2023-08-31 12:50:08 by Eclipse SUMO libsumo Version 1.18.0
<configuration xmlns:xsi="http://www.w3.org/2001/XMLSchema-instance" xsi:noNamespaceSchemaLocation="http://sumo.dlr.de/xsd/libsumoConfiguration.xsd">

    <input>
        <net-file value="/home/stefan/RESCO/./environments/ingolstadt7/ingolstadt7.net.xml"/>
        <route-files value="/home/stefan/RESCO/./environments/ingolstadt7/ingolstadt7.rou.xml"/>
    </input>

    <output>
        <tripinfo-output value="/home/stefan/results/RAINBOW-tr0-ingolstadt7-7-drq_norm-wait_norm/tripinfo_85.xml"/>
        <tripinfo-output.write-unfinished value="true"/>
    </output>

    <time>
        <begin value="57600"/>
        <end value="61200"/>
    </time>

    <processing>
        <time-to-teleport value="-1"/>
    </processing>

    <report>
        <no-warnings value="True"/>
        <no-step-log value="True"/>
    </report>

    <random_number>
        <random value="true"/>
    </random_number>

</configuration>
-->

<tripinfos xmlns:xsi="http://www.w3.org/2001/XMLSchema-instance" xsi:noNamespaceSchemaLocation="http://sumo.dlr.de/xsd/tripinfo_file.xsd">
    <tripinfo id="carIn89578:1" depart="57614.00" departLane="124812856#0_1" departPos="5.10" departSpeed="0.00" departDelay="3.60" arrival="57629.00" arrivalLane="201956810_1" arrivalPos="71.65" arrivalSpeed="17.41" duration="15.00" routeLength="134.91" waitingTime="0.00" waitingCount="0" stopTime="0.00" timeLoss="6.43" rerouteNo="1" devices="tripinfo_carIn89578:1 routing_carIn89578:1" vType="default_016" speedFactor="1.28" vaporized=""/>
    <tripinfo id="carIn28951:1" depart="57606.00" departLane="10425609#0_1" departPos="5.10" departSpeed="0.00" departDelay="0.20" arrival="57637.00" arrivalLane="-653473569#5_1" arrivalPos="73.05" arrivalSpeed="13.64" duration="31.00" routeLength="312.95" waitingTime="0.00" waitingCount="0" stopTime="0.00" timeLoss="6.55" rerouteNo="1" devices="tripinfo_carIn28951:1 routing_carIn28951:1" vType="default_016" speedFactor="1.01" vaporized=""/>
    <tripinfo id="carIn25202:1" depart="57629.00" departLane="315358253#1_1" departPos="5.10" departSpeed="0.00" departDelay="1.50" arrival="57668.00" arrivalLane="32978638#0_1" arrivalPos="49.29" arrivalSpeed="12.70" duration="39.00" routeLength="405.15" waitingTime="0.00" waitingCount="0" stopTime="0.00" timeLoss="6.98" rerouteNo="1" devices="tripinfo_carIn25202:1 routing_carIn25202:1" vType="default_016" speedFactor="0.97" vaporized=""/>
    <tripinfo id="carIn925:1" depart="57654.00" departLane="124812856#0_1" departPos="5.10" departSpeed="0.00" departDelay="27.90" arrival="57670.00" arrivalLane="201956810_1" arrivalPos="71.65" arrivalSpeed="11.20" duration="16.00" routeLength="134.91" waitingTime="0.00" waitingCount="0" stopTime="0.00" timeLoss="3.77" rerouteNo="1" devices="tripinfo_carIn925:1 routing_carIn925:1" vType="default_016" speedFactor="0.89" vaporized=""/>
    <tripinfo id="carIn55461:1" depart="57652.00" departLane="10425609#0_1" departPos="5.10" departSpeed="0.00" departDelay="0.30" arrival="57676.00" arrivalLane="201956810_1" arrivalPos="71.65" arrivalSpeed="14.45" duration="24.00" routeLength="255.78" waitingTime="0.00" waitingCount="0" stopTime="0.00" timeLoss="6.07" rerouteNo="1" devices="tripinfo_carIn55461:1 routing_carIn55461:1" vType="default_016" speedFactor="1.13" vaporized=""/>
    <tripinfo id="carIn33538:1" depart="57671.00" departLane="37386279_1" departPos="5.10" departSpeed="0.00" departDelay="0.30" arrival="57689.00" arrivalLane="-24634414#4_1" arrivalPos="22.88" arrivalSpeed="6.52" duration="18.00" routeLength="125.23" waitingTime="0.00" waitingCount="0" stopTime="0.00" timeLoss="4.26" rerouteNo="0" devices="tripinfo_carIn33538:1 routing_carIn33538:1" vType="default_016" speedFactor="0.83" vaporized=""/>
    <tripinfo id="carIn114137:1" depart="57635.00" departLane="27920078#0_1" departPos="5.10" departSpeed="0.00" departDelay="4.10" arrival="57695.00" arrivalLane="-83304175#2_1" arrivalPos="189.34" arrivalSpeed="7.28" duration="60.00" routeLength="501.51" waitingTime="0.00" waitingCount="0" stopTime="0.00" timeLoss="8.33" rerouteNo="1" devices="tripinfo_carIn114137:1 routing_carIn114137:1" vType="default_016" speedFactor="0.92" vaporized=""/>
    <tripinfo id="carIn22637:1" depart="57636.00" departLane="27920078#0_1" departPos="5.10" departSpeed="0.00" departDelay="3.50" arrival="57697.00" arrivalLane="-83304175#2_1" arrivalPos="189.34" arrivalSpeed="7.68" duration="61.00" routeLength="501.51" waitingTime="1.00" waitingCount="1" stopTime="0.00" timeLoss="14.42" rerouteNo="1" devices="tripinfo_carIn22637:1 routing_carIn22637:1" vType="default_016" speedFactor="1.02" vaporized=""/>
    <tripinfo id="carIn131078:1" depart="57679.00" departLane="124812856#0_1" departPos="5.10" departSpeed="0.00" departDelay="43.60" arrival="57703.00" arrivalLane="201956810_1" arrivalPos="71.65" arrivalSpeed="13.26" duration="24.00" routeLength="134.91" waitingTime="0.00" waitingCount="0" stopTime="0.00" timeLoss="13.11" rerouteNo="1" devices="tripinfo_carIn131078:1 routing_carIn131078:1" vType="default_016" speedFactor="1.01" vaporized=""/>
    <tripinfo id="carIn7887:1" depart="57661.00" departLane="27920078#0_1" departPos="5.10" departSpeed="0.00" departDelay="0.50" arrival="57716.00" arrivalLane="-83304175#2_1" arrivalPos="189.34" arrivalSpeed="8.14" duration="55.00" routeLength="501.51" waitingTime="0.00" waitingCount="0" stopTime="0.00" timeLoss="6.93" rerouteNo="1" devices="tripinfo_carIn7887:1 routing_carIn7887:1" vType="default_016" speedFactor="1.00" vaporized=""/>
    <tripinfo id="h3688c1:1" depart="57679.00" departLane="315358253#1_1" departPos="5.10" departSpeed="0.00" departDelay="0.50" arrival="57721.00" arrivalLane="32978638#0_1" arrivalPos="49.29" arrivalSpeed="11.68" duration="42.00" routeLength="405.15" waitingTime="0.00" waitingCount="0" stopTime="0.00" timeLoss="6.22" rerouteNo="1" devices="tripinfo_h3688c1:1 routing_h3688c1:1" vType="default_016" speedFactor="0.88" vaporized=""/>
    <tripinfo id="carIn12900:1" depart="57697.00" departLane="124812856#0_1" departPos="5.10" departSpeed="0.00" departDelay="48.80" arrival="57727.00" arrivalLane="201956810_1" arrivalPos="71.65" arrivalSpeed="13.31" duration="30.00" routeLength="134.91" waitingTime="9.00" waitingCount="1" stopTime="0.00" timeLoss="18.94" rerouteNo="1" devices="tripinfo_carIn12900:1 routing_carIn12900:1" vType="default_016" speedFactor="0.99" vaporized=""/>
    <tripinfo id="h317c2:1" depart="57707.00" departLane="-32978638#0_1" departPos="5.10" departSpeed="0.00" departDelay="0.10" arrival="57745.00" arrivalLane="-266565295#5_1" arrivalPos="172.76" arrivalSpeed="11.94" duration="38.00" routeLength="370.53" waitingTime="0.00" waitingCount="0" stopTime="0.00" timeLoss="6.77" rerouteNo="1" devices="tripinfo_h317c2:1 routing_h317c2:1" vType="default_016" speedFactor="0.89" vaporized=""/>
    <tripinfo id="randUni22709:1" depart="57718.00" departLane="315358253#1_1" departPos="5.10" departSpeed="0.00" departDelay="0.20" arrival="57753.00" arrivalLane="32978638#0_1" arrivalPos="49.29" arrivalSpeed="14.62" duration="35.00" routeLength="405.15" waitingTime="0.00" waitingCount="0" stopTime="0.00" timeLoss="6.62" rerouteNo="1" devices="tripinfo_randUni22709:1 routing_randUni22709:1" vType="random_016" speedFactor="1.08" vaporized=""/>
    <tripinfo id="carIn99509:1" depart="57720.00" departLane="-32978638#0_1" departPos="5.10" departSpeed="0.00" departDelay="0.20" arrival="57759.00" arrivalLane="-315358253#1_1" arrivalPos="63.90" arrivalSpeed="13.30" duration="39.00" routeLength="422.17" waitingTime="0.00" waitingCount="0" stopTime="0.00" timeLoss="6.12" rerouteNo="1" devices="tripinfo_carIn99509:1 routing_carIn99509:1" vType="default_015" speedFactor="0.99" vaporized=""/>
    <tripinfo id="h134c1:3" depart="57721.00" departLane="315358253#1_1" departPos="5.10" departSpeed="0.00" departDelay="1.60" arrival="57761.00" arrivalLane="32978638#0_1" arrivalPos="49.29" arrivalSpeed="12.47" duration="40.00" routeLength="405.15" waitingTime="0.00" waitingCount="0" stopTime="0.00" timeLoss="6.22" rerouteNo="1" devices="tripinfo_h134c1:3 routing_h134c1:3" vType="default_016" speedFactor="0.90" vaporized=""/>
    <tripinfo id="carIn74045:1" depart="57724.00" departLane="315358253#1_1" departPos="5.10" departSpeed="0.00" departDelay="3.00" arrival="57763.00" arrivalLane="32978638#0_2" arrivalPos="49.29" arrivalSpeed="13.20" duration="39.00" routeLength="409.47" waitingTime="0.00" waitingCount="0" stopTime="0.00" timeLoss="8.34" rerouteNo="1" devices="tripinfo_carIn74045:1 routing_carIn74045:1" vType="default_016" speedFactor="1.03" vaporized=""/>
    <tripinfo id="h330c1:1" depart="57736.00" departLane="-32978638#0_1" departPos="5.10" departSpeed="0.00" departDelay="0.20" arrival="57769.00" arrivalLane="-266565295#5_1" arrivalPos="172.76" arrivalSpeed="13.78" duration="33.00" routeLength="370.53" waitingTime="0.00" waitingCount="0" stopTime="0.00" timeLoss="5.17" rerouteNo="1" devices="tripinfo_h330c1:1 routing_h330c1:1" vType="default_016" speedFactor="0.99" vaporized=""/>
    <tripinfo id="11_frequency1.42" depart="57739.00" departLane="315358253#1_1" departPos="12.10" departSpeed="0.00" departDelay="0.30" arrival="57779.00" arrivalLane="32978638#0_1" arrivalPos="49.29" arrivalSpeed="13.60" duration="40.00" routeLength="398.15" waitingTime="0.00" waitingCount="0" stopTime="0.00" timeLoss="9.98" rerouteNo="1" devices="tripinfo_11_frequency1.42 routing_11_frequency1.42" vType="bus" speedFactor="1.00" vaporized=""/>
    <tripinfo id="carIn98605:1" depart="57743.00" departLane="315358253#1_1" departPos="5.10" departSpeed="0.00" departDelay="2.20" arrival="57784.00" arrivalLane="32978638#0_1" arrivalPos="49.29" arrivalSpeed="12.15" duration="41.00" routeLength="405.15" waitingTime="0.00" waitingCount="0" stopTime="0.00" timeLoss="7.34" rerouteNo="1" devices="tripinfo_carIn98605:1 routing_carIn98605:1" vType="default_016" speedFactor="0.91" vaporized=""/>
    <tripinfo id="h319c1:3" depart="57746.00" departLane="315358253#1_1" departPos="5.10" departSpeed="0.00" departDelay="3.70" arrival="57786.00" arrivalLane="32978638#0_1" arrivalPos="49.29" arrivalSpeed="14.63" duration="40.00" routeLength="405.15" waitingTime="0.00" waitingCount="0" stopTime="0.00" timeLoss="11.50" rerouteNo="1" devices="tripinfo_h319c1:3 routing_h319c1:3" vType="default_016" speedFactor="1.10" vaporized=""/>
    <tripinfo id="carIn106325:1" depart="57713.00" departLane="27920078#0_1" departPos="5.10" departSpeed="0.00" departDelay="0.10" arrival="57789.00" arrivalLane="-83304175#2_1" arrivalPos="189.34" arrivalSpeed="6.59" duration="76.00" routeLength="501.51" waitingTime="8.00" waitingCount="1" stopTime="0.00" timeLoss="22.91" rerouteNo="1" devices="tripinfo_carIn106325:1 routing_carIn106325:1" vType="default_016" speedFactor="0.89" vaporized=""/>
    <tripinfo id="carIn99738:1" depart="57718.00" departLane="27920078#0_1" departPos="5.10" departSpeed="0.00" departDelay="0.30" arrival="57791.00" arrivalLane="-83304175#2_1" arrivalPos="189.34" arrivalSpeed="7.46" duration="73.00" routeLength="501.51" waitingTime="5.00" waitingCount="3" stopTime="0.00" timeLoss="26.26" rerouteNo="1" devices="tripinfo_carIn99738:1 routing_carIn99738:1" vType="default_016" speedFactor="1.02" vaporized=""/>
    <tripinfo id="carIn107250:1" depart="57752.00" departLane="315358253#1_1" departPos="5.10" departSpeed="0.00" departDelay="6.70" arrival="57791.00" arrivalLane="32978638#0_1" arrivalPos="49.29" arrivalSpeed="11.49" duration="39.00" routeLength="405.15" waitingTime="0.00" waitingCount="0" stopTime="0.00" timeLoss="5.52" rerouteNo="1" devices="tripinfo_carIn107250:1 routing_carIn107250:1" vType="default_016" speedFactor="0.91" vaporized=""/>
    <tripinfo id="h14316c1:3" depart="57758.00" departLane="315358253#1_1" departPos="5.10" departSpeed="0.00" departDelay="9.00" arrival="57797.00" arrivalLane="32978638#0_1" arrivalPos="49.29" arrivalSpeed="13.18" duration="39.00" routeLength="405.15" waitingTime="0.00" waitingCount="0" stopTime="0.00" timeLoss="6.54" rerouteNo="1" devices="tripinfo_h14316c1:3 routing_h14316c1:3" vType="default_016" speedFactor="0.96" vaporized=""/>
    <tripinfo id="carIn117869:1" depart="57758.00" departLane="-32978638#0_1" departPos="5.10" departSpeed="0.00" departDelay="0.60" arrival="57797.00" arrivalLane="-315358253#1_1" arrivalPos="63.90" arrivalSpeed="13.32" duration="39.00" routeLength="422.17" waitingTime="0.00" waitingCount="0" stopTime="0.00" timeLoss="6.33" rerouteNo="1" devices="tripinfo_carIn117869:1 routing_carIn117869:1" vType="default_016" speedFactor="0.97" vaporized=""/>
    <tripinfo id="h20540c1:1" depart="57634.00" departLane="10425609#0_1" departPos="5.10" departSpeed="0.00" departDelay="0.50" arrival="57804.00" arrivalLane="-653473569#5_1" arrivalPos="73.05" arrivalSpeed="14.74" duration="170.00" routeLength="312.95" waitingTime="136.00" waitingCount="1" stopTime="0.00" timeLoss="148.19" rerouteNo="1" devices="tripinfo_h20540c1:1 routing_h20540c1:1" vType="default_016" speedFactor="1.09" vaporized=""/>
    <tripinfo id="carIn12775:1" depart="57676.00" departLane="10425609#0_1" departPos="5.10" departSpeed="0.00" departDelay="0.60" arrival="57807.00" arrivalLane="-653473569#5_1" arrivalPos="73.05" arrivalSpeed="12.31" duration="131.00" routeLength="312.95" waitingTime="95.00" waitingCount="1" stopTime="0.00" timeLoss="105.07" rerouteNo="1" devices="tripinfo_carIn12775:1 routing_carIn12775:1" vType="default_016" speedFactor="0.92" vaporized=""/>
    <tripinfo id="h19989c1:1" depart="57730.00" departLane="10425609#0_1" departPos="5.10" departSpeed="0.00" departDelay="0.60" arrival="57815.00" arrivalLane="-653473569#5_1" arrivalPos="73.05" arrivalSpeed="12.10" duration="85.00" routeLength="312.95" waitingTime="47.00" waitingCount="2" stopTime="0.00" timeLoss="58.92" rerouteNo="1" devices="tripinfo_h19989c1:1 routing_h19989c1:1" vType="default_016" speedFactor="0.93" vaporized=""/>
    <tripinfo id="carIn92858:1" depart="57733.00" departLane="10425609#0_1" departPos="5.10" departSpeed="0.00" departDelay="0.80" arrival="57818.00" arrivalLane="-653473569#5_1" arrivalPos="73.05" arrivalSpeed="12.63" duration="85.00" routeLength="312.95" waitingTime="42.00" waitingCount="2" stopTime="0.00" timeLoss="57.79" rerouteNo="1" devices="tripinfo_carIn92858:1 routing_carIn92858:1" vType="default_016" speedFactor="0.91" vaporized=""/>
    <tripinfo id="carIn7631:1" depart="57786.00" departLane="-32978638#0_1" departPos="5.10" departSpeed="0.00" departDelay="0.70" arrival="57820.00" arrivalLane="-315358253#1_1" arrivalPos="63.90" arrivalSpeed="15.63" duration="34.00" routeLength="422.17" waitingTime="0.00" waitingCount="0" stopTime="0.00" timeLoss="6.10" rerouteNo="1" devices="tripinfo_carIn7631:1 routing_carIn7631:1" vType="default_016" speedFactor="1.16" vaporized=""/>
    <tripinfo id="carIn101439:1" depart="57736.00" departLane="10425609#0_1" departPos="5.10" departSpeed="0.00" departDelay="1.70" arrival="57823.00" arrivalLane="-653473569#5_1" arrivalPos="73.05" arrivalSpeed="15.87" duration="87.00" routeLength="312.95" waitingTime="43.00" waitingCount="3" stopTime="0.00" timeLoss="66.23" rerouteNo="1" devices="tripinfo_carIn101439:1 routing_carIn101439:1" vType="default_016" speedFactor="1.15" vaporized=""/>
    <tripinfo id="carIn84229:1" depart="57739.00" departLane="10425609#0_1" departPos="5.10" departSpeed="0.00" departDelay="2.20" arrival="57829.00" arrivalLane="-653473569#5_1" arrivalPos="73.05" arrivalSpeed="10.16" duration="90.00" routeLength="312.95" waitingTime="39.00" waitingCount="2" stopTime="0.00" timeLoss="59.64" rerouteNo="1" devices="tripinfo_carIn84229:1 routing_carIn84229:1" vType="default_016" speedFactor="0.80" vaporized=""/>
    <tripinfo id="carIn16842:1" depart="57745.00" departLane="10425609#0_1" departPos="5.10" departSpeed="0.00" departDelay="1.40" arrival="57834.00" arrivalLane="-653473569#5_1" arrivalPos="73.05" arrivalSpeed="14.64" duration="89.00" routeLength="312.95" waitingTime="40.00" waitingCount="3" stopTime="0.00" timeLoss="67.56" rerouteNo="1" devices="tripinfo_carIn16842:1 routing_carIn16842:1" vType="default_016" speedFactor="1.13" vaporized=""/>
    <tripinfo id="carIn95310:1" depart="57753.00" departLane="27920078#0_1" departPos="5.10" departSpeed="0.00" departDelay="0.50" arrival="57834.00" arrivalLane="-83304175#2_1" arrivalPos="189.34" arrivalSpeed="5.54" duration="81.00" routeLength="501.51" waitingTime="9.00" waitingCount="1" stopTime="0.00" timeLoss="23.03" rerouteNo="1" devices="tripinfo_carIn95310:1 routing_carIn95310:1" vType="default_016" speedFactor="0.82" vaporized=""/>
    <tripinfo id="carIn40211:1" depart="57756.00" departLane="27920078#0_1" departPos="5.10" departSpeed="0.00" departDelay="0.00" arrival="57836.00" arrivalLane="-83304175#2_1" arrivalPos="189.34" arrivalSpeed="7.59" duration="80.00" routeLength="501.51" waitingTime="7.00" waitingCount="1" stopTime="0.00" timeLoss="31.21" rerouteNo="1" devices="tripinfo_carIn40211:1 routing_carIn40211:1" vType="default_016" speedFactor="0.97" vaporized=""/>
    <tripinfo id="h19105c2:3" depart="57795.00" departLane="10425609#0_1" departPos="5.10" departSpeed="0.00" departDelay="0.60" arrival="57836.00" arrivalLane="-653473569#5_1" arrivalPos="73.05" arrivalSpeed="14.90" duration="41.00" routeLength="312.95" waitingTime="3.00" waitingCount="1" stopTime="0.00" timeLoss="19.63" rerouteNo="1" devices="tripinfo_h19105c2:3 routing_h19105c2:3" vType="default_016" speedFactor="1.15" vaporized=""/>
    <tripinfo id="carIn46110:1" depart="57804.00" departLane="315358253#1_1" departPos="5.10" departSpeed="0.00" departDelay="0.40" arrival="57839.00" arrivalLane="32978638#0_1" arrivalPos="49.29" arrivalSpeed="14.35" duration="35.00" routeLength="405.15" waitingTime="0.00" waitingCount="0" stopTime="0.00" timeLoss="6.48" rerouteNo="1" devices="tripinfo_carIn46110:1 routing_carIn46110:1" vType="default_016" speedFactor="1.09" vaporized=""/>
    <tripinfo id="randUni31145:1" depart="57814.00" departLane="10425609#0_1" departPos="5.10" departSpeed="0.00" departDelay="0.30" arrival="57840.00" arrivalLane="201956810_1" arrivalPos="71.65" arrivalSpeed="13.65" duration="26.00" routeLength="255.78" waitingTime="0.00" waitingCount="0" stopTime="0.00" timeLoss="6.50" rerouteNo="1" devices="tripinfo_randUni31145:1 routing_randUni31145:1" vType="random_016" speedFactor="1.02" vaporized=""/>
    <tripinfo id="h6541c1:3" depart="57807.00" departLane="315358253#1_1" departPos="5.10" departSpeed="0.00" departDelay="0.60" arrival="57844.00" arrivalLane="32978638#0_1" arrivalPos="49.29" arrivalSpeed="12.99" duration="37.00" routeLength="405.15" waitingTime="0.00" waitingCount="0" stopTime="0.00" timeLoss="6.09" rerouteNo="1" devices="tripinfo_h6541c1:3 routing_h6541c1:3" vType="default_016" speedFactor="1.01" vaporized=""/>
    <tripinfo id="randUni2407:1" depart="57820.00" departLane="10425609#0_1" departPos="5.10" departSpeed="0.00" departDelay="0.80" arrival="57846.00" arrivalLane="201956810_1" arrivalPos="71.65" arrivalSpeed="12.66" duration="26.00" routeLength="255.78" waitingTime="0.00" waitingCount="0" stopTime="0.00" timeLoss="5.72" rerouteNo="1" devices="tripinfo_randUni2407:1 routing_randUni2407:1" vType="random_016" speedFactor="0.98" vaporized=""/>
    <tripinfo id="carIn9810:1" depart="57820.00" departLane="315358253#1_1" departPos="5.10" departSpeed="0.00" departDelay="0.80" arrival="57859.00" arrivalLane="32978638#0_1" arrivalPos="49.29" arrivalSpeed="12.76" duration="39.00" routeLength="405.15" waitingTime="0.00" waitingCount="0" stopTime="0.00" timeLoss="6.35" rerouteNo="1" devices="tripinfo_carIn9810:1 routing_carIn9810:1" vType="default_016" speedFactor="0.95" vaporized=""/>
    <tripinfo id="carIn72316:1" depart="57826.00" departLane="10425609#0_1" departPos="5.10" departSpeed="0.00" departDelay="0.50" arrival="57860.00" arrivalLane="-653473569#5_1" arrivalPos="73.05" arrivalSpeed="12.09" duration="34.00" routeLength="312.95" waitingTime="0.00" waitingCount="0" stopTime="0.00" timeLoss="5.93" rerouteNo="1" devices="tripinfo_carIn72316:1 routing_carIn72316:1" vType="default_016" speedFactor="0.88" vaporized=""/>
    <tripinfo id="carIn114105:1" depart="57821.00" departLane="10425609#0_1" departPos="5.10" departSpeed="0.00" departDelay="0.20" arrival="57874.00" arrivalLane="-653473569#5_1" arrivalPos="73.05" arrivalSpeed="13.39" duration="53.00" routeLength="323.56" waitingTime="0.00" waitingCount="0" stopTime="0.00" timeLoss="9.98" rerouteNo="1" devices="tripinfo_carIn114105:1 routing_carIn114105:1" vType="default_016" speedFactor="1.01" vaporized=""/>
    <tripinfo id="h3536c1:1" depart="57836.00" departLane="315358253#1_1" departPos="5.10" departSpeed="0.00" departDelay="0.80" arrival="57876.00" arrivalLane="32978638#0_1" arrivalPos="49.29" arrivalSpeed="11.79" duration="40.00" routeLength="405.15" waitingTime="0.00" waitingCount="0" stopTime="0.00" timeLoss="6.03" rerouteNo="1" devices="tripinfo_h3536c1:1 routing_h3536c1:1" vType="default_016" speedFactor="0.90" vaporized=""/>
    <tripinfo id="carIn64958:1" depart="57857.00" departLane="10425609#0_1" departPos="5.10" departSpeed="0.00" departDelay="0.60" arrival="57895.00" arrivalLane="-653473569#5_1" arrivalPos="73.05" arrivalSpeed="12.24" duration="38.00" routeLength="312.95" waitingTime="4.00" waitingCount="1" stopTime="0.00" timeLoss="11.42" rerouteNo="1" devices="tripinfo_carIn64958:1 routing_carIn64958:1" vType="default_016" speedFactor="0.92" vaporized=""/>
    <tripinfo id="carIn101921:1" depart="57856.00" departLane="-32978638#0_1" departPos="5.10" departSpeed="0.00" departDelay="5.90" arrival="57897.00" arrivalLane="-315358253#1_1" arrivalPos="63.90" arrivalSpeed="12.28" duration="41.00" routeLength="422.17" waitingTime="0.00" waitingCount="0" stopTime="0.00" timeLoss="6.16" rerouteNo="1" devices="tripinfo_carIn101921:1 routing_carIn101921:1" vType="default_016" speedFactor="0.90" vaporized=""/>
    <tripinfo id="carIn133015:1" depart="57864.00" departLane="10425609#0_1" departPos="5.10" departSpeed="0.00" departDelay="0.00" arrival="57897.00" arrivalLane="-653473569#5_1" arrivalPos="73.05" arrivalSpeed="12.58" duration="33.00" routeLength="312.95" waitingTime="0.00" waitingCount="0" stopTime="0.00" timeLoss="7.78" rerouteNo="1" devices="tripinfo_carIn133015:1 routing_carIn133015:1" vType="default_016" speedFactor="0.96" vaporized=""/>
    <tripinfo id="h7759c1:3" depart="57859.00" departLane="-32978638#0_1" departPos="5.10" departSpeed="0.00" departDelay="7.20" arrival="57899.00" arrivalLane="-315358253#1_1" arrivalPos="63.90" arrivalSpeed="14.39" duration="40.00" routeLength="422.17" waitingTime="0.00" waitingCount="0" stopTime="0.00" timeLoss="9.47" rerouteNo="1" devices="tripinfo_h7759c1:3 routing_h7759c1:3" vType="default_016" speedFactor="1.04" vaporized=""/>
    <tripinfo id="h13311c1:3" depart="57861.00" departLane="315358253#1_1" departPos="5.10" departSpeed="0.00" departDelay="0.00" arrival="57902.00" arrivalLane="32978638#0_1" arrivalPos="49.29" arrivalSpeed="11.05" duration="41.00" routeLength="405.15" waitingTime="0.00" waitingCount="0" stopTime="0.00" timeLoss="5.91" rerouteNo="1" devices="tripinfo_h13311c1:3 routing_h13311c1:3" vType="default_016" speedFactor="0.88" vaporized=""/>
    <tripinfo id="carIn88912:1" depart="57867.00" departLane="-32978638#0_1" departPos="5.10" departSpeed="0.00" departDelay="0.20" arrival="57902.00" arrivalLane="-315358253#1_1" arrivalPos="63.90" arrivalSpeed="14.60" duration="35.00" routeLength="422.17" waitingTime="0.00" waitingCount="0" stopTime="0.00" timeLoss="6.33" rerouteNo="1" devices="tripinfo_carIn88912:1 routing_carIn88912:1" vType="default_016" speedFactor="1.12" vaporized=""/>
    <tripinfo id="carIn126072:1" depart="57870.00" departLane="315358253#1_1" departPos="5.10" departSpeed="0.00" departDelay="0.80" arrival="57906.00" arrivalLane="32978638#0_1" arrivalPos="49.29" arrivalSpeed="13.91" duration="36.00" routeLength="405.15" waitingTime="0.00" waitingCount="0" stopTime="0.00" timeLoss="6.92" rerouteNo="1" devices="tripinfo_carIn126072:1 routing_carIn126072:1" vType="default_016" speedFactor="1.05" vaporized=""/>
    <tripinfo id="h19571c2:3" depart="57882.00" departLane="10425609#0_1" departPos="5.10" departSpeed="0.00" departDelay="0.30" arrival="57913.00" arrivalLane="-653473569#5_1" arrivalPos="73.05" arrivalSpeed="13.66" duration="31.00" routeLength="312.95" waitingTime="0.00" waitingCount="0" stopTime="0.00" timeLoss="7.79" rerouteNo="1" devices="tripinfo_h19571c2:3 routing_h19571c2:3" vType="default_016" speedFactor="1.05" vaporized=""/>
    <tripinfo id="carIn69046:1" depart="57887.00" departLane="-32978638#0_1" departPos="5.10" departSpeed="0.00" departDelay="0.40" arrival="57920.00" arrivalLane="-315358253#1_1" arrivalPos="63.90" arrivalSpeed="15.79" duration="33.00" routeLength="422.17" waitingTime="0.00" waitingCount="0" stopTime="0.00" timeLoss="6.82" rerouteNo="1" devices="tripinfo_carIn69046:1 routing_carIn69046:1" vType="default_016" speedFactor="1.21" vaporized=""/>
    <tripinfo id="h21699c2:1" depart="57890.00" departLane="-32978638#0_1" departPos="5.10" departSpeed="0.00" departDelay="1.90" arrival="57927.00" arrivalLane="-315358253#1_1" arrivalPos="63.90" arrivalSpeed="13.69" duration="37.00" routeLength="422.17" waitingTime="0.00" waitingCount="0" stopTime="0.00" timeLoss="6.13" rerouteNo="1" devices="tripinfo_h21699c2:1 routing_h21699c2:1" vType="default_016" speedFactor="1.02" vaporized=""/>
    <tripinfo id="h17890c1:3" depart="57893.00" departLane="315358253#1_1" departPos="5.10" departSpeed="0.00" departDelay="0.90" arrival="57928.00" arrivalLane="32978638#0_1" arrivalPos="49.29" arrivalSpeed="14.74" duration="35.00" routeLength="405.15" waitingTime="0.00" waitingCount="0" stopTime="0.00" timeLoss="6.69" rerouteNo="1" devices="tripinfo_h17890c1:3 routing_h17890c1:3" vType="default_016" speedFactor="1.10" vaporized=""/>
    <tripinfo id="randUni33912:1" depart="57873.00" departLane="-22716549#6_1" departPos="5.10" departSpeed="0.00" departDelay="0.00" arrival="57930.00" arrivalLane="202070434#2_1" arrivalPos="39.03" arrivalSpeed="15.74" duration="57.00" routeLength="632.93" waitingTime="0.00" waitingCount="0" stopTime="0.00" timeLoss="7.22" rerouteNo="1" devices="tripinfo_randUni33912:1 routing_randUni33912:1" vType="random_016" speedFactor="1.19" vaporized=""/>
    <tripinfo id="h21872c1:1" depart="57901.00" departLane="-32978638#0_1" departPos="5.10" departSpeed="0.00" departDelay="0.70" arrival="57938.00" arrivalLane="-315358253#1_1" arrivalPos="63.90" arrivalSpeed="13.73" duration="37.00" routeLength="422.17" waitingTime="0.00" waitingCount="0" stopTime="0.00" timeLoss="6.27" rerouteNo="1" devices="tripinfo_h21872c1:1 routing_h21872c1:1" vType="default_016" speedFactor="1.05" vaporized=""/>
    <tripinfo id="h4784c1:3" depart="57899.00" departLane="315358253#1_1" departPos="5.10" departSpeed="0.00" departDelay="0.10" arrival="57939.00" arrivalLane="32978638#0_1" arrivalPos="49.29" arrivalSpeed="11.90" duration="40.00" routeLength="405.15" waitingTime="0.00" waitingCount="0" stopTime="0.00" timeLoss="6.36" rerouteNo="1" devices="tripinfo_h4784c1:3 routing_h4784c1:3" vType="default_016" speedFactor="0.90" vaporized=""/>
    <tripinfo id="randUni16001:1" depart="57912.00" departLane="10425609#0_1" departPos="5.10" departSpeed="0.00" departDelay="0.30" arrival="57939.00" arrivalLane="201956810_1" arrivalPos="71.65" arrivalSpeed="13.68" duration="27.00" routeLength="255.78" waitingTime="0.00" waitingCount="0" stopTime="0.00" timeLoss="6.70" rerouteNo="1" devices="tripinfo_randUni16001:1 routing_randUni16001:1" vType="random_016" speedFactor="1.02" vaporized=""/>
    <tripinfo id="carIn41236:1" depart="57904.00" departLane="-32978638#0_1" departPos="5.10" departSpeed="0.00" departDelay="2.10" arrival="57943.00" arrivalLane="-315358253#1_1" arrivalPos="63.90" arrivalSpeed="12.61" duration="39.00" routeLength="422.17" waitingTime="0.00" waitingCount="0" stopTime="0.00" timeLoss="5.64" rerouteNo="1" devices="tripinfo_carIn41236:1 routing_carIn41236:1" vType="default_016" speedFactor="0.95" vaporized=""/>
    <tripinfo id="carIn48137:1" depart="57903.00" departLane="315358253#1_1" departPos="5.10" departSpeed="0.00" departDelay="0.20" arrival="57945.00" arrivalLane="32978638#0_1" arrivalPos="49.29" arrivalSpeed="11.54" duration="42.00" routeLength="405.15" waitingTime="0.00" waitingCount="0" stopTime="0.00" timeLoss="5.86" rerouteNo="1" devices="tripinfo_carIn48137:1 routing_carIn48137:1" vType="default_016" speedFactor="0.84" vaporized=""/>
    <tripinfo id="h17593c1:1" depart="57907.00" departLane="10425609#0_1" departPos="5.10" departSpeed="0.00" departDelay="0.90" arrival="57946.00" arrivalLane="-653473569#5_1" arrivalPos="73.05" arrivalSpeed="11.94" duration="39.00" routeLength="312.95" waitingTime="3.00" waitingCount="1" stopTime="0.00" timeLoss="11.48" rerouteNo="1" devices="tripinfo_h17593c1:1 routing_h17593c1:1" vType="default_016" speedFactor="0.88" vaporized=""/>
    <tripinfo id="h3847c1:3" depart="57907.00" departLane="315358253#1_1" departPos="5.10" departSpeed="0.00" departDelay="0.40" arrival="57947.00" arrivalLane="32978638#0_1" arrivalPos="49.29" arrivalSpeed="12.31" duration="40.00" routeLength="405.15" waitingTime="0.00" waitingCount="0" stopTime="0.00" timeLoss="6.83" rerouteNo="1" devices="tripinfo_h3847c1:3 routing_h3847c1:3" vType="default_016" speedFactor="0.92" vaporized=""/>