<?xml version="1.0" encoding="UTF-8"?>

<!-- generated on 2023-08-28 21:11:56 by Eclipse SUMO libsumo Version 1.18.0
<configuration xmlns:xsi="http://www.w3.org/2001/XMLSchema-instance" xsi:noNamespaceSchemaLocation="http://sumo.dlr.de/xsd/libsumoConfiguration.xsd">

    <input>
        <net-file value="/home/stefan/RESCO/./environments/cologne3/cologne3.net.xml"/>
        <route-files value="/home/stefan/RESCO/./environments/cologne3/cologne3.rou.xml"/>
    </input>

    <output>
        <tripinfo-output value="/home/stefan/results/ITRPO-tr0-cologne3-0-drq_norm-wait_norm/tripinfo_94.xml"/>
        <tripinfo-output.write-unfinished value="true"/>
    </output>

    <time>
        <begin value="25200"/>
        <end value="28800"/>
    </time>

    <processing>
        <time-to-teleport value="-1"/>
    </processing>

    <report>
        <no-warnings value="True"/>
        <no-step-log value="True"/>
    </report>

    <random_number>
        <random value="true"/>
    </random_number>

</configuration>
-->

<tripinfos xmlns:xsi="http://www.w3.org/2001/XMLSchema-instance" xsi:noNamespaceSchemaLocation="http://sumo.dlr.de/xsd/tripinfo_file.xsd">
    <tripinfo id="122325_406_0" depart="25208.00" departLane="319261593#12_0" departPos="4.40" departSpeed="0.00" departDelay="0.00" arrival="25241.00" arrivalLane="-31864804_0" arrivalPos="70.23" arrivalSpeed="11.66" duration="33.00" routeLength="352.97" waitingTime="0.00" waitingCount="0" stopTime="0.00" timeLoss="4.96" rerouteNo="0" devices="tripinfo_122325_406_0" vType="pkw" speedFactor="0.92" vaporized=""/>
    <tripinfo id="98545_395_0" depart="25206.00" departLane="4045330_0" departPos="4.40" departSpeed="0.00" departDelay="0.00" arrival="25252.00" arrivalLane="241660955#17_1" arrivalPos="110.13" arrivalSpeed="14.67" duration="46.00" routeLength="473.04" waitingTime="0.00" waitingCount="0" stopTime="0.00" timeLoss="7.95" rerouteNo="0" devices="tripinfo_98545_395_0" vType="pkw" speedFactor="1.06" vaporized=""/>
    <tripinfo id="141383_415_0" depart="25216.00" departLane="41910184_0" departPos="4.40" departSpeed="0.00" departDelay="0.00" arrival="25253.00" arrivalLane="4145589#0_0" arrivalPos="149.75" arrivalSpeed="8.95" duration="37.00" routeLength="368.38" waitingTime="0.00" waitingCount="0" stopTime="0.00" timeLoss="8.13" rerouteNo="0" devices="tripinfo_141383_415_0" vType="pkw" speedFactor="1.18" vaporized=""/>
    <tripinfo id="169122_425_0" depart="25228.00" departLane="-4999334_0" departPos="4.40" departSpeed="0.00" departDelay="0.00" arrival="25253.00" arrivalLane="-4999334_0" arrivalPos="293.22" arrivalSpeed="13.41" duration="25.00" routeLength="288.82" waitingTime="0.00" waitingCount="0" stopTime="0.00" timeLoss="3.64" rerouteNo="0" devices="tripinfo_169122_425_0" vType="pkw" speedFactor="1.01" vaporized=""/>
    <tripinfo id="73303_385_0" depart="25202.00" departLane="319261593#12_0" departPos="4.40" departSpeed="0.00" departDelay="0.00" arrival="25254.00" arrivalLane="4145590#0_0" arrivalPos="95.58" arrivalSpeed="14.70" duration="52.00" routeLength="408.95" waitingTime="10.00" waitingCount="1" stopTime="0.00" timeLoss="23.84" rerouteNo="0" devices="tripinfo_73303_385_0" vType="pkw" speedFactor="1.06" vaporized=""/>
    <tripinfo id="160296_421_0" depart="25211.00" departLane="241660955#13_0" departPos="4.40" departSpeed="0.00" departDelay="0.00" arrival="25255.00" arrivalLane="241660955#17_0" arrivalPos="110.13" arrivalSpeed="12.01" duration="44.00" routeLength="247.24" waitingTime="16.00" waitingCount="1" stopTime="0.00" timeLoss="24.96" rerouteNo="0" devices="tripinfo_160296_421_0" vType="pkw" speedFactor="0.94" vaporized=""/>
    <tripinfo id="120846_405_0" depart="25207.00" departLane="31864804_0" departPos="4.40" departSpeed="0.00" departDelay="0.00" arrival="25258.00" arrivalLane="-4999334_0" arrivalPos="293.22" arrivalSpeed="13.45" duration="51.00" routeLength="621.86" waitingTime="0.00" waitingCount="0" stopTime="0.00" timeLoss="6.27" rerouteNo="0" devices="tripinfo_120846_405_0" vType="pkw" speedFactor="1.01" vaporized=""/>
    <tripinfo id="163719_422_0" depart="25211.00" departLane="4045330_0" departPos="4.40" departSpeed="0.00" departDelay="0.00" arrival="25259.00" arrivalLane="241660955#17_0" arrivalPos="110.13" arrivalSpeed="12.67" duration="48.00" routeLength="473.04" waitingTime="0.00" waitingCount="0" stopTime="0.00" timeLoss="5.34" rerouteNo="0" devices="tripinfo_163719_422_0" vType="pkw" speedFactor="0.95" vaporized=""/>
    <tripinfo id="113109_402_0" depart="25203.00" departLane="4999334_0" departPos="4.40" departSpeed="0.00" departDelay="0.00" arrival="25260.00" arrivalLane="-31864804_0" arrivalPos="70.23" arrivalSpeed="11.38" duration="57.00" routeLength="615.92" waitingTime="0.00" waitingCount="0" stopTime="0.00" timeLoss="7.11" rerouteNo="0" devices="tripinfo_113109_402_0" vType="pkw" speedFactor="0.89" vaporized=""/>
    <tripinfo id="132667_410_0" depart="25212.00" departLane="-31800061#0_0" departPos="4.40" departSpeed="0.00" departDelay="0.00" arrival="25261.00" arrivalLane="-4999334_0" arrivalPos="293.22" arrivalSpeed="14.41" duration="49.00" routeLength="492.72" waitingTime="0.00" waitingCount="0" stopTime="0.00" timeLoss="9.92" rerouteNo="0" devices="tripinfo_132667_410_0" vType="pkw" speedFactor="1.06" vaporized=""/>
    <tripinfo id="132022_410_0" depart="25213.00" departLane="241660957#0_0" departPos="4.40" departSpeed="0.00" departDelay="0.00" arrival="25262.00" arrivalLane="4999331#0_0" arrivalPos="373.64" arrivalSpeed="13.30" duration="49.00" routeLength="489.64" waitingTime="3.00" waitingCount="1" stopTime="0.00" timeLoss="12.29" rerouteNo="0" devices="tripinfo_132022_410_0" vType="pkw" speedFactor="0.97" vaporized=""/>
    <tripinfo id="161160_421_0" depart="25225.00" departLane="241660957#0_0" departPos="4.40" departSpeed="0.00" departDelay="0.00" arrival="25263.00" arrivalLane="4999331#0_1" arrivalPos="373.64" arrivalSpeed="14.56" duration="38.00" routeLength="489.64" waitingTime="0.00" waitingCount="0" stopTime="0.00" timeLoss="5.22" rerouteNo="0" devices="tripinfo_161160_421_0" vType="pkw" speedFactor="1.09" vaporized=""/>
    <tripinfo id="140163_414_0" depart="25244.00" departLane="241660955#13_0" departPos="4.40" departSpeed="0.00" departDelay="0.00" arrival="25263.00" arrivalLane="-41910184_0" arrivalPos="185.90" arrivalSpeed="14.23" duration="19.00" routeLength="216.76" waitingTime="0.00" waitingCount="0" stopTime="0.00" timeLoss="4.77" rerouteNo="0" devices="tripinfo_140163_414_0" vType="pkw" speedFactor="1.11" vaporized=""/>
    <tripinfo id="73223_384_0" depart="25204.00" departLane="241660957#0_0" departPos="4.40" departSpeed="0.00" departDelay="0.00" arrival="25264.00" arrivalLane="4999331#0_0" arrivalPos="373.64" arrivalSpeed="12.51" duration="60.00" routeLength="489.64" waitingTime="11.00" waitingCount="1" stopTime="0.00" timeLoss="21.93" rerouteNo="0" devices="tripinfo_73223_384_0" vType="pkw" speedFactor="0.94" vaporized=""/>
    <tripinfo id="153968_420_0" depart="25227.00" departLane="319261593#12_0" departPos="4.40" departSpeed="0.00" departDelay="0.00" arrival="25264.00" arrivalLane="-31864804_0" arrivalPos="70.23" arrivalSpeed="12.75" duration="37.00" routeLength="352.97" waitingTime="1.00" waitingCount="1" stopTime="0.00" timeLoss="8.99" rerouteNo="0" devices="tripinfo_153968_420_0" vType="pkw" speedFactor="0.92" vaporized=""/>
    <tripinfo id="157649_421_0" depart="25230.00" departLane="319261593#12_0" departPos="4.40" departSpeed="0.00" departDelay="1.00" arrival="25266.00" arrivalLane="-31864804_0" arrivalPos="70.23" arrivalSpeed="12.90" duration="36.00" routeLength="352.97" waitingTime="0.00" waitingCount="0" stopTime="0.00" timeLoss="9.49" rerouteNo="0" devices="tripinfo_157649_421_0" vType="pkw" speedFactor="0.99" vaporized=""/>
    <tripinfo id="131963_410_0" depart="25223.00" departLane="-31800061#0_0" departPos="4.40" departSpeed="0.00" departDelay="0.00" arrival="25267.00" arrivalLane="-4999334_0" arrivalPos="293.22" arrivalSpeed="15.27" duration="44.00" routeLength="492.72" waitingTime="0.00" waitingCount="0" stopTime="0.00" timeLoss="8.20" rerouteNo="0" devices="tripinfo_131963_410_0" vType="pkw" speedFactor="1.13" vaporized=""/>
    <tripinfo id="68266_381_0" depart="25229.00" departLane="4045329#5_0" departPos="4.40" departSpeed="0.00" departDelay="0.00" arrival="25274.00" arrivalLane="41910185#0_0" arrivalPos="127.86" arrivalSpeed="7.87" duration="45.00" routeLength="267.37" waitingTime="7.00" waitingCount="1" stopTime="0.00" timeLoss="18.63" rerouteNo="0" devices="tripinfo_68266_381_0" vType="pkw" speedFactor="1.00" vaporized=""/>
    <tripinfo id="106913_399_0" depart="25201.00" departLane="31864804_0" departPos="4.40" departSpeed="0.00" departDelay="0.00" arrival="25276.00" arrivalLane="241660955#17_0" arrivalPos="110.13" arrivalSpeed="14.58" duration="75.00" routeLength="875.23" waitingTime="1.00" waitingCount="1" stopTime="0.00" timeLoss="16.45" rerouteNo="0" devices="tripinfo_106913_399_0" vType="pkw" speedFactor="1.09" vaporized=""/>
    <tripinfo id="174028_427_0" depart="25232.00" departLane="319261593#12_0" departPos="4.40" departSpeed="0.00" departDelay="0.00" arrival="25278.00" arrivalLane="4145590#0_0" arrivalPos="95.58" arrivalSpeed="11.43" duration="46.00" routeLength="408.95" waitingTime="0.00" waitingCount="0" stopTime="0.00" timeLoss="12.53" rerouteNo="0" devices="tripinfo_174028_427_0" vType="pkw" speedFactor="0.88" vaporized=""/>
    <tripinfo id="81370_389_0" depart="25232.00" departLane="4045329#5_0" departPos="4.40" departSpeed="0.00" departDelay="1.00" arrival="25283.00" arrivalLane="-4045330_0" arrivalPos="128.76" arrivalSpeed="7.11" duration="51.00" routeLength="329.66" waitingTime="7.00" waitingCount="1" stopTime="0.00" timeLoss="19.02" rerouteNo="0" devices="tripinfo_81370_389_0" vType="pkw" speedFactor="0.96" vaporized=""/>
    <tripinfo id="149066_417_0" depart="25235.00" departLane="31864804_0" departPos="4.40" departSpeed="0.00" departDelay="0.00" arrival="25283.00" arrivalLane="4999331#0_0" arrivalPos="373.64" arrivalSpeed="13.33" duration="48.00" routeLength="492.92" waitingTime="0.00" waitingCount="0" stopTime="0.00" timeLoss="10.88" rerouteNo="0" devices="tripinfo_149066_417_0" vType="pkw" speedFactor="0.97" vaporized=""/>
    <tripinfo id="140878_414_0" depart="25231.00" departLane="-130160207#0_0" departPos="4.40" departSpeed="0.00" departDelay="0.00" arrival="25284.00" arrivalLane="241660955#17_0" arrivalPos="110.13" arrivalSpeed="13.64" duration="53.00" routeLength="250.75" waitingTime="22.00" waitingCount="1" stopTime="0.00" timeLoss="29.91" rerouteNo="0" devices="tripinfo_140878_414_0" vType="pkw" speedFactor="1.07" vaporized=""/>
    <tripinfo id="158876_421_0" depart="25255.00" departLane="319261593#12_0" departPos="4.40" departSpeed="0.00" departDelay="0.00" arrival="25285.00" arrivalLane="-31864804_0" arrivalPos="70.23" arrivalSpeed="14.49" duration="30.00" routeLength="352.97" waitingTime="0.00" waitingCount="0" stopTime="0.00" timeLoss="5.92" rerouteNo="0" devices="tripinfo_158876_421_0" vType="pkw" speedFactor="1.06" vaporized=""/>
    <tripinfo id="111294_401_0" depart="25211.00" departLane="-5229966#3_0" departPos="4.40" departSpeed="0.00" departDelay="0.00" arrival="25286.00" arrivalLane="4145590#0_0" arrivalPos="95.58" arrivalSpeed="10.71" duration="75.00" routeLength="453.70" waitingTime="21.00" waitingCount="2" stopTime="0.00" timeLoss="34.98" rerouteNo="0" devices="tripinfo_111294_401_0" vType="pkw" speedFactor="0.83" vaporized=""/>
    <tripinfo id="163598_422_0" depart="25236.00" departLane="-130160207#0_0" departPos="4.40" departSpeed="0.00" departDelay="0.00" arrival="25286.00" arrivalLane="241660955#17_0" arrivalPos="110.13" arrivalSpeed="15.13" duration="50.00" routeLength="250.75" waitingTime="19.00" waitingCount="1" stopTime="0.00" timeLoss="28.63" rerouteNo="0" devices="tripinfo_163598_422_0" vType="pkw" speedFactor="1.16" vaporized=""/>
    <tripinfo id="166826_424_0" depart="25240.00" departLane="41910184_0" departPos="4.40" departSpeed="0.00" departDelay="0.00" arrival="25286.00" arrivalLane="4145589#0_0" arrivalPos="149.75" arrivalSpeed="7.25" duration="46.00" routeLength="368.38" waitingTime="0.00" waitingCount="0" stopTime="0.00" timeLoss="7.10" rerouteNo="0" devices="tripinfo_166826_424_0" vType="pkw" speedFactor="0.88" vaporized=""/>
    <tripinfo id="118698_405_0" depart="25214.00" departLane="-5229966#3_0" departPos="4.40" departSpeed="0.00" departDelay="1.00" arrival="25288.00" arrivalLane="4145590#0_0" arrivalPos="95.58" arrivalSpeed="11.70" duration="74.00" routeLength="453.70" waitingTime="17.00" waitingCount="2" stopTime="0.00" timeLoss="35.38" rerouteNo="0" devices="tripinfo_118698_405_0" vType="pkw" speedFactor="0.86" vaporized=""/>
    <tripinfo id="100929_396_0" depart="25233.00" departLane="-5229966#3_0" departPos="4.40" departSpeed="0.00" departDelay="0.00" arrival="25289.00" arrivalLane="4145590#0_0" arrivalPos="95.58" arrivalSpeed="14.76" duration="56.00" routeLength="453.70" waitingTime="3.00" waitingCount="1" stopTime="0.00" timeLoss="27.83" rerouteNo="0" devices="tripinfo_100929_396_0" vType="pkw" speedFactor="1.17" vaporized=""/>
    <tripinfo id="161578_421_0" depart="25263.00" departLane="-4999334_0" departPos="4.40" departSpeed="0.00" departDelay="0.00" arrival="25291.00" arrivalLane="-4999334_0" arrivalPos="293.22" arrivalSpeed="12.27" duration="28.00" routeLength="288.82" waitingTime="0.00" waitingCount="0" stopTime="0.00" timeLoss="4.32" rerouteNo="0" devices="tripinfo_161578_421_0" vType="pkw" speedFactor="0.90" vaporized=""/>
    <tripinfo id="137478_412_0" depart="25248.00" departLane="4045330_0" departPos="4.40" departSpeed="0.00" departDelay="0.00" arrival="25293.00" arrivalLane="241660955#17_0" arrivalPos="110.13" arrivalSpeed="17.75" duration="45.00" routeLength="473.04" waitingTime="3.00" waitingCount="1" stopTime="0.00" timeLoss="13.72" rerouteNo="0" devices="tripinfo_137478_412_0" vType="pkw" speedFactor="1.28" vaporized=""/>
    <tripinfo id="168647_425_0" depart="25267.00" departLane="-4999334_0" departPos="4.40" departSpeed="0.00" departDelay="1.00" arrival="25293.00" arrivalLane="-4999334_0" arrivalPos="293.22" arrivalSpeed="13.92" duration="26.00" routeLength="288.82" waitingTime="0.00" waitingCount="0" stopTime="0.00" timeLoss="6.92" rerouteNo="0" devices="tripinfo_168647_425_0" vType="pkw" speedFactor="1.14" vaporized=""/>
    <tripinfo id="141513_415_0" depart="25233.00" departLane="4999334_0" departPos="4.40" departSpeed="0.00" departDelay="0.00" arrival="25295.00" arrivalLane="4145590#0_1" arrivalPos="95.58" arrivalSpeed="15.12" duration="62.00" routeLength="615.60" waitingTime="7.00" waitingCount="1" stopTime="0.00" timeLoss="20.82" rerouteNo="0" devices="tripinfo_141513_415_0" vType="pkw" speedFactor="1.10" vaporized=""/>
    <tripinfo id="85241_390_0" depart="25243.00" departLane="41910184_0" departPos="4.40" departSpeed="0.00" departDelay="1.00" arrival="25295.00" arrivalLane="241660955#17_0" arrivalPos="110.13" arrivalSpeed="14.25" duration="52.00" routeLength="451.07" waitingTime="6.00" waitingCount="1" stopTime="0.00" timeLoss="19.67" rerouteNo="0" devices="tripinfo_85241_390_0" vType="pkw" speedFactor="1.03" vaporized=""/>
    <tripinfo id="161841_421_0" depart="25244.00" departLane="31864804_0" departPos="4.40" departSpeed="0.00" departDelay="0.00" arrival="25295.00" arrivalLane="4999331#0_0" arrivalPos="373.64" arrivalSpeed="13.58" duration="51.00" routeLength="492.92" waitingTime="5.00" waitingCount="1" stopTime="0.00" timeLoss="16.67" rerouteNo="0" devices="tripinfo_161841_421_0" vType="pkw" speedFactor="1.06" vaporized=""/>
    <tripinfo id="173797_427_0" depart="25226.00" departLane="-41910186_0" departPos="4.40" departSpeed="0.00" departDelay="0.00" arrival="25296.00" arrivalLane="4145590#0_1" arrivalPos="95.58" arrivalSpeed="13.74" duration="70.00" routeLength="894.77" waitingTime="0.00" waitingCount="0" stopTime="0.00" timeLoss="9.76" rerouteNo="0" devices="tripinfo_173797_427_0" vType="pkw" speedFactor="1.07" vaporized=""/>
    <tripinfo id="160813_421_0" depart="25253.00" departLane="41910184_0" departPos="4.40" departSpeed="0.00" departDelay="0.00" arrival="25297.00" arrivalLane="4145589#0_0" arrivalPos="149.75" arrivalSpeed="7.07" duration="44.00" routeLength="368.38" waitingTime="0.00" waitingCount="0" stopTime="0.00" timeLoss="6.34" rerouteNo="0" devices="tripinfo_160813_421_0" vType="pkw" speedFactor="0.91" vaporized=""/>
    <tripinfo id="83081_390_0" depart="25228.00" departLane="31864804_0" departPos="4.40" departSpeed="0.00" departDelay="0.00" arrival="25298.00" arrivalLane="-4999334_0" arrivalPos="293.22" arrivalSpeed="12.73" duration="70.00" routeLength="688.22" waitingTime="4.00" waitingCount="1" stopTime="0.00" timeLoss="16.76" rerouteNo="0" devices="tripinfo_83081_390_0" vType="pkw" speedFactor="0.94" vaporized=""/>
    <tripinfo id="134770_411_0" depart="25235.00" departLane="-31800061#0_0" departPos="4.40" departSpeed="0.00" departDelay="0.00" arrival="25299.00" arrivalLane="-41910184_0" arrivalPos="185.90" arrivalSpeed="13.42" duration="64.00" routeLength="682.81" waitingTime="0.00" waitingCount="0" stopTime="0.00" timeLoss="7.89" rerouteNo="0" devices="tripinfo_134770_411_0" vType="pkw" speedFactor="0.98" vaporized=""/>
    <tripinfo id="126562_407_0" depart="25263.00" departLane="241660957#0_0" departPos="4.40" departSpeed="0.00" departDelay="1.00" arrival="25299.00" arrivalLane="4999331#0_1" arrivalPos="373.64" arrivalSpeed="15.01" duration="36.00" routeLength="489.64" waitingTime="0.00" waitingCount="0" stopTime="0.00" timeLoss="5.29" rerouteNo="0" devices="tripinfo_126562_407_0" vType="pkw" speedFactor="1.17" vaporized=""/>
    <tripinfo id="150954_418_0" depart="25249.00" departLane="-130160207#0_0" departPos="4.40" departSpeed="0.00" departDelay="0.00" arrival="25304.00" arrivalLane="-41910184_0" arrivalPos="185.90" arrivalSpeed="13.76" duration="55.00" routeLength="470.87" waitingTime="7.00" waitingCount="1" stopTime="0.00" timeLoss="15.53" rerouteNo="0" devices="tripinfo_150954_418_0" vType="pkw" speedFactor="1.04" vaporized=""/>
    <tripinfo id="123109_406_0" depart="25260.00" departLane="241660957#0_0" departPos="4.40" departSpeed="0.00" departDelay="0.00" arrival="25305.00" arrivalLane="4999331#0_0" arrivalPos="373.64" arrivalSpeed="12.68" duration="45.00" routeLength="489.64" waitingTime="0.00" waitingCount="0" stopTime="0.00" timeLoss="8.90" rerouteNo="0" devices="tripinfo_123109_406_0" vType="pkw" speedFactor="0.98" vaporized=""/>
    <tripinfo id="148720_417_0" depart="25231.00" departLane="31864804_0" departPos="4.40" departSpeed="0.00" departDelay="2.00" arrival="25307.00" arrivalLane="-41910184_0" arrivalPos="185.90" arrivalSpeed="13.54" duration="76.00" routeLength="811.95" waitingTime="1.00" waitingCount="1" stopTime="0.00" timeLoss="18.52" rerouteNo="0" devices="tripinfo_148720_417_0" vType="pkw" speedFactor="1.02" vaporized=""/>
    <tripinfo id="125978_406_0" depart="25249.00" departLane="-5229966#3_0" departPos="4.40" departSpeed="0.00" departDelay="0.00" arrival="25308.00" arrivalLane="4145590#0_0" arrivalPos="95.58" arrivalSpeed="14.89" duration="59.00" routeLength="453.70" waitingTime="17.00" waitingCount="1" stopTime="0.00" timeLoss="28.90" rerouteNo="0" devices="tripinfo_125978_406_0" vType="pkw" speedFactor="1.12" vaporized=""/>
    <tripinfo id="153704_420_0" depart="25240.00" departLane="-31800061#0_0" departPos="4.40" departSpeed="0.00" departDelay="0.00" arrival="25309.00" arrivalLane="-41910184_0" arrivalPos="185.90" arrivalSpeed="13.09" duration="69.00" routeLength="682.81" waitingTime="5.00" waitingCount="1" stopTime="0.00" timeLoss="15.95" rerouteNo="0" devices="tripinfo_153704_420_0" vType="pkw" speedFactor="1.03" vaporized=""/>
    <tripinfo id="100301_396_0" depart="25260.00" departLane="-241660955#17_0" departPos="4.40" departSpeed="0.00" departDelay="0.00" arrival="25309.00" arrivalLane="130160207#0_0" arrivalPos="135.18" arrivalSpeed="7.25" duration="49.00" routeLength="257.86" waitingTime="11.00" waitingCount="2" stopTime="0.00" timeLoss="20.41" rerouteNo="0" devices="tripinfo_100301_396_0" vType="pkw" speedFactor="0.89" vaporized=""/>
    <tripinfo id="79538_387_0" depart="25217.00" departLane="-5229966#3_0" departPos="4.40" departSpeed="0.00" departDelay="2.00" arrival="25310.00" arrivalLane="4999331#0_0" arrivalPos="373.64" arrivalSpeed="13.00" duration="93.00" routeLength="732.61" waitingTime="14.00" waitingCount="2" stopTime="0.00" timeLoss="36.84" rerouteNo="0" devices="tripinfo_79538_387_0" vType="pkw" speedFactor="0.94" vaporized=""/>
    <tripinfo id="111993_401_0" depart="25251.00" departLane="4045329#5_0" departPos="4.40" departSpeed="0.00" departDelay="0.00" arrival="25311.00" arrivalLane="41910185#0_0" arrivalPos="127.86" arrivalSpeed="7.00" duration="60.00" routeLength="267.37" waitingTime="22.00" waitingCount="1" stopTime="0.00" timeLoss="30.84" rerouteNo="0" devices="tripinfo_111993_401_0" vType="pkw" speedFactor="0.91" vaporized=""/>
    <tripinfo id="163366_422_0" depart="25253.00" departLane="-130160207#0_0" departPos="4.40" departSpeed="0.00" departDelay="0.00" arrival="25314.00" arrivalLane="241660955#17_0" arrivalPos="110.13" arrivalSpeed="13.85" duration="61.00" routeLength="250.75" waitingTime="23.00" waitingCount="2" stopTime="0.00" timeLoss="37.60" rerouteNo="0" devices="tripinfo_163366_422_0" vType="pkw" speedFactor="1.06" vaporized=""/>
    <tripinfo id="76573_386_0" depart="25275.00" departLane="-241660955#17_0" departPos="4.40" departSpeed="0.00" departDelay="0.00" arrival="25314.00" arrivalLane="130160207#0_0" arrivalPos="135.18" arrivalSpeed="5.86" duration="39.00" routeLength="257.86" waitingTime="0.00" waitingCount="0" stopTime="0.00" timeLoss="6.53" rerouteNo="0" devices="tripinfo_76573_386_0" vType="pkw" speedFactor="0.79" vaporized=""/>
    <tripinfo id="132705_410_0" depart="25200.00" departLane="-5229966#3_0" departPos="4.40" departSpeed="0.00" departDelay="0.00" arrival="25316.00" arrivalLane="4045332#0_0" arrivalPos="114.41" arrivalSpeed="6.75" duration="116.00" routeLength="720.54" waitingTime="33.00" waitingCount="2" stopTime="0.00" timeLoss="52.98" rerouteNo="0" devices="tripinfo_132705_410_0" vType="pkw" speedFactor="0.92" vaporized=""/>
    <tripinfo id="155750_420_0" depart="25256.00" departLane="-130160207#0_0" departPos="4.40" departSpeed="0.00" departDelay="0.00" arrival="25317.00" arrivalLane="241660955#17_0" arrivalPos="110.13" arrivalSpeed="12.45" duration="61.00" routeLength="250.75" waitingTime="21.00" waitingCount="2" stopTime="0.00" timeLoss="35.19" rerouteNo="0" devices="tripinfo_155750_420_0" vType="pkw" speedFactor="0.98" vaporized=""/>
    <tripinfo id="153005_419_0" depart="25270.00" departLane="41910184_0" departPos="4.40" departSpeed="0.00" departDelay="0.00" arrival="25320.00" arrivalLane="4145589#0_0" arrivalPos="149.75" arrivalSpeed="7.93" duration="50.00" routeLength="368.38" waitingTime="6.00" waitingCount="1" stopTime="0.00" timeLoss="15.87" rerouteNo="0" devices="tripinfo_153005_419_0" vType="pkw" speedFactor="1.00" vaporized=""/>
    <tripinfo id="67548_381_0" depart="25289.00" departLane="-41910185#2_0" departPos="4.40" departSpeed="0.00" departDelay="1.00" arrival="25321.00" arrivalLane="241660955#10_0" arrivalPos="56.57" arrivalSpeed="15.29" duration="32.00" routeLength="191.84" waitingTime="3.00" waitingCount="1" stopTime="0.00" timeLoss="13.89" rerouteNo="0" devices="tripinfo_67548_381_0" vType="pkw" speedFactor="1.14" vaporized=""/>
    <tripinfo id="71667_383_0" depart="25276.00" departLane="241660957#0_0" departPos="4.40" departSpeed="0.00" departDelay="0.00" arrival="25323.00" arrivalLane="4999331#0_0" arrivalPos="373.64" arrivalSpeed="11.79" duration="47.00" routeLength="489.64" waitingTime="0.00" waitingCount="0" stopTime="0.00" timeLoss="8.91" rerouteNo="0" devices="tripinfo_71667_383_0" vType="pkw" speedFactor="0.93" vaporized=""/>
    <tripinfo id="104671_398_0" depart="25286.00" departLane="-41910185#2_0" departPos="4.40" departSpeed="0.00" departDelay="0.00" arrival="25326.00" arrivalLane="241660955#11_0" arrivalPos="73.18" arrivalSpeed="13.10" duration="40.00" routeLength="279.28" waitingTime="4.00" waitingCount="1" stopTime="0.00" timeLoss="13.70" rerouteNo="0" devices="tripinfo_104671_398_0" vType="pkw" speedFactor="1.02" vaporized=""/>
    <tripinfo id="163790_422_0" depart="25264.00" departLane="-130160207#0_0" departPos="4.40" departSpeed="0.00" departDelay="0.00" arrival="25327.00" arrivalLane="130160207#0_0" arrivalPos="135.18" arrivalSpeed="8.06" duration="63.00" routeLength="270.63" waitingTime="18.00" waitingCount="1" stopTime="0.00" timeLoss="29.39" rerouteNo="0" devices="tripinfo_163790_422_0" vType="pkw" speedFactor="0.97" vaporized=""/>
    <tripinfo id="170585_426_0" depart="25288.00" departLane="241660957#0_0" departPos="4.40" departSpeed="0.00" departDelay="0.00" arrival="25329.00" arrivalLane="4999331#0_0" arrivalPos="373.64" arrivalSpeed="13.52" duration="41.00" routeLength="489.64" waitingTime="0.00" waitingCount="0" stopTime="0.00" timeLoss="5.26" rerouteNo="0" devices="tripinfo_170585_426_0" vType="pkw" speedFactor="1.00" vaporized=""/>
    <tripinfo id="171899_426_0" depart="25303.00" departLane="-41910185#2_0" departPos="4.40" departSpeed="0.00" departDelay="0.00" arrival="25329.00" arrivalLane="-4045329#5_0" arrivalPos="121.37" arrivalSpeed="15.91" duration="26.00" routeLength="266.80" waitingTime="0.00" waitingCount="0" stopTime="0.00" timeLoss="3.42" rerouteNo="0" devices="tripinfo_171899_426_0" vType="pkw" speedFactor="1.15" vaporized=""/>
    <tripinfo id="144088_416_0" depart="25303.00" departLane="241660955#6_0" departPos="4.40" departSpeed="0.00" departDelay="0.00" arrival="25331.00" arrivalLane="-4999334_0" arrivalPos="293.22" arrivalSpeed="15.62" duration="28.00" routeLength="357.51" waitingTime="0.00" waitingCount="0" stopTime="0.00" timeLoss="4.65" rerouteNo="0" devices="tripinfo_144088_416_0" vType="pkw" speedFactor="1.14" vaporized=""/>
    <tripinfo id="97604_395_0" depart="25295.00" departLane="319261593#12_0" departPos="4.40" departSpeed="0.00" departDelay="0.00" arrival="25332.00" arrivalLane="-31864804_0" arrivalPos="70.23" arrivalSpeed="14.91" duration="37.00" routeLength="367.00" waitingTime="2.00" waitingCount="1" stopTime="0.00" timeLoss="12.38" rerouteNo="0" devices="tripinfo_97604_395_0" vType="pkw" speedFactor="1.08" vaporized=""/>
    <tripinfo id="84339_390_0" depart="25297.00" departLane="319261593#12_0" departPos="4.40" departSpeed="0.00" departDelay="0.00" arrival="25333.00" arrivalLane="4145590#0_1" arrivalPos="95.58" arrivalSpeed="13.46" duration="36.00" routeLength="383.82" waitingTime="0.00" waitingCount="0" stopTime="0.00" timeLoss="8.67" rerouteNo="0" devices="tripinfo_84339_390_0" vType="pkw" speedFactor="1.04" vaporized=""/>
    <tripinfo id="149951_417_0" depart="25274.00" departLane="-130160207#0_0" departPos="4.40" departSpeed="0.00" departDelay="0.00" arrival="25334.00" arrivalLane="241660955#17_0" arrivalPos="110.13" arrivalSpeed="14.66" duration="60.00" routeLength="250.75" waitingTime="25.00" waitingCount="2" stopTime="0.00" timeLoss="38.37" rerouteNo="0" devices="tripinfo_149951_417_0" vType="pkw" speedFactor="1.14" vaporized=""/>
    <tripinfo id="126024_407_0" depart="25300.00" departLane="319261593#12_0" departPos="4.40" departSpeed="0.00" departDelay="2.00" arrival="25335.00" arrivalLane="-31864804_0" arrivalPos="70.23" arrivalSpeed="11.92" duration="35.00" routeLength="367.00" waitingTime="0.00" waitingCount="0" stopTime="0.00" timeLoss="6.38" rerouteNo="0" devices="tripinfo_126024_407_0" vType="pkw" speedFactor="0.95" vaporized=""/>
    <tripinfo id="147523_416_0" depart="25297.00" departLane="241660957#0_0" departPos="4.40" departSpeed="0.00" departDelay="0.00" arrival="25339.00" arrivalLane="4999331#0_0" arrivalPos="373.64" arrivalSpeed="13.74" duration="42.00" routeLength="489.64" waitingTime="0.00" waitingCount="0" stopTime="0.00" timeLoss="7.11" rerouteNo="0" devices="tripinfo_147523_416_0" vType="pkw" speedFactor="1.03" vaporized=""/>
    <tripinfo id="169266_425_0" depart="25215.00" departLane="-31864804_0" departPos="4.40" departSpeed="0.00" departDelay="0.00" arrival="25342.00" arrivalLane="-41910184_0" arrivalPos="185.90" arrivalSpeed="11.94" duration="127.00" routeLength="1152.49" waitingTime="19.00" waitingCount="2" stopTime="0.00" timeLoss="35.89" rerouteNo="0" devices="tripinfo_169266_425_0" vType="pkw" speedFactor="0.92" vaporized=""/>
    <tripinfo id="147095_416_0" depart="25300.00" departLane="-130160207#0_0" departPos="4.40" departSpeed="0.00" departDelay="0.00" arrival="25343.00" arrivalLane="241660955#17_0" arrivalPos="110.13" arrivalSpeed="14.43" duration="43.00" routeLength="250.75" waitingTime="7.00" waitingCount="1" stopTime="0.00" timeLoss="18.96" rerouteNo="0" devices="tripinfo_147095_416_0" vType="pkw" speedFactor="1.05" vaporized=""/>
    <tripinfo id="142858_415_0" depart="25309.00" departLane="-130160207#0_0" departPos="4.40" departSpeed="0.00" departDelay="0.00" arrival="25345.00" arrivalLane="241660955#17_0" arrivalPos="110.13" arrivalSpeed="12.70" duration="36.00" routeLength="250.75" waitingTime="1.00" waitingCount="1" stopTime="0.00" timeLoss="10.13" rerouteNo="0" devices="tripinfo_142858_415_0" vType="pkw" speedFactor="0.96" vaporized=""/>
    <tripinfo id="152332_419_0" depart="25313.00" departLane="-130160207#0_0" departPos="4.40" departSpeed="0.00" departDelay="0.00" arrival="25347.00" arrivalLane="241660955#17_0" arrivalPos="110.13" arrivalSpeed="14.58" duration="34.00" routeLength="250.75" waitingTime="0.00" waitingCount="0" stopTime="0.00" timeLoss="10.93" rerouteNo="0" devices="tripinfo_152332_419_0" vType="pkw" speedFactor="1.10" vaporized=""/>