<?xml version="1.0" encoding="UTF-8"?>

<!-- generated on 2023-08-28 21:10:44 by Eclipse SUMO libsumo Version 1.18.0
<configuration xmlns:xsi="http://www.w3.org/2001/XMLSchema-instance" xsi:noNamespaceSchemaLocation="http://sumo.dlr.de/xsd/libsumoConfiguration.xsd">

    <input>
        <net-file value="/home/stefan/RESCO/./environments/cologne3/cologne3.net.xml"/>
        <route-files value="/home/stefan/RESCO/./environments/cologne3/cologne3.rou.xml"/>
    </input>

    <output>
        <tripinfo-output value="/home/stefan/results/ITRPO-tr0-cologne3-0-drq_norm-wait_norm/tripinfo_72.xml"/>
        <tripinfo-output.write-unfinished value="true"/>
    </output>

    <time>
        <begin value="25200"/>
        <end value="28800"/>
    </time>

    <processing>
        <time-to-teleport value="-1"/>
    </processing>

    <report>
        <no-warnings value="True"/>
        <no-step-log value="True"/>
    </report>

    <random_number>
        <random value="true"/>
    </random_number>

</configuration>
-->

<tripinfos xmlns:xsi="http://www.w3.org/2001/XMLSchema-instance" xsi:noNamespaceSchemaLocation="http://sumo.dlr.de/xsd/tripinfo_file.xsd">
    <tripinfo id="122325_406_0" depart="25208.00" departLane="319261593#12_0" departPos="4.40" departSpeed="0.00" departDelay="0.00" arrival="25244.00" arrivalLane="-31864804_0" arrivalPos="70.23" arrivalSpeed="14.42" duration="36.00" routeLength="352.97" waitingTime="0.00" waitingCount="0" stopTime="0.00" timeLoss="11.93" rerouteNo="0" devices="tripinfo_122325_406_0" vType="pkw" speedFactor="1.06" vaporized=""/>
    <tripinfo id="169122_425_0" depart="25228.00" departLane="-4999334_0" departPos="4.40" departSpeed="0.00" departDelay="0.00" arrival="25252.00" arrivalLane="-4999334_0" arrivalPos="293.22" arrivalSpeed="13.54" duration="24.00" routeLength="288.82" waitingTime="0.00" waitingCount="0" stopTime="0.00" timeLoss="3.73" rerouteNo="0" devices="tripinfo_169122_425_0" vType="pkw" speedFactor="1.05" vaporized=""/>
    <tripinfo id="113109_402_0" depart="25203.00" departLane="4999334_0" departPos="4.40" departSpeed="0.00" departDelay="0.00" arrival="25253.00" arrivalLane="-31864804_0" arrivalPos="70.23" arrivalSpeed="16.46" duration="50.00" routeLength="615.92" waitingTime="0.00" waitingCount="0" stopTime="0.00" timeLoss="12.58" rerouteNo="0" devices="tripinfo_113109_402_0" vType="pkw" speedFactor="1.20" vaporized=""/>
    <tripinfo id="73223_384_0" depart="25204.00" departLane="241660957#0_0" departPos="4.40" departSpeed="0.00" departDelay="0.00" arrival="25253.00" arrivalLane="4999331#0_0" arrivalPos="373.64" arrivalSpeed="12.91" duration="49.00" routeLength="489.64" waitingTime="1.00" waitingCount="1" stopTime="0.00" timeLoss="12.15" rerouteNo="0" devices="tripinfo_73223_384_0" vType="pkw" speedFactor="0.98" vaporized=""/>
    <tripinfo id="73303_385_0" depart="25202.00" departLane="319261593#12_0" departPos="4.40" departSpeed="0.00" departDelay="0.00" arrival="25257.00" arrivalLane="4145590#0_0" arrivalPos="95.58" arrivalSpeed="12.01" duration="55.00" routeLength="408.95" waitingTime="7.00" waitingCount="2" stopTime="0.00" timeLoss="21.56" rerouteNo="0" devices="tripinfo_73303_385_0" vType="pkw" speedFactor="0.89" vaporized=""/>
    <tripinfo id="141383_415_0" depart="25216.00" departLane="41910184_0" departPos="4.40" departSpeed="0.00" departDelay="0.00" arrival="25257.00" arrivalLane="4145589#0_0" arrivalPos="149.75" arrivalSpeed="7.49" duration="41.00" routeLength="368.38" waitingTime="0.00" waitingCount="0" stopTime="0.00" timeLoss="7.33" rerouteNo="0" devices="tripinfo_141383_415_0" vType="pkw" speedFactor="1.03" vaporized=""/>
    <tripinfo id="153968_420_0" depart="25227.00" departLane="319261593#12_0" departPos="4.40" departSpeed="0.00" departDelay="0.00" arrival="25257.00" arrivalLane="-31864804_0" arrivalPos="70.23" arrivalSpeed="14.11" duration="30.00" routeLength="352.97" waitingTime="0.00" waitingCount="0" stopTime="0.00" timeLoss="6.47" rerouteNo="0" devices="tripinfo_153968_420_0" vType="pkw" speedFactor="1.08" vaporized=""/>
    <tripinfo id="140878_414_0" depart="25231.00" departLane="-130160207#0_0" departPos="4.40" departSpeed="0.00" departDelay="0.00" arrival="25259.00" arrivalLane="241660955#17_0" arrivalPos="110.13" arrivalSpeed="13.71" duration="28.00" routeLength="250.75" waitingTime="0.00" waitingCount="0" stopTime="0.00" timeLoss="3.64" rerouteNo="0" devices="tripinfo_140878_414_0" vType="pkw" speedFactor="1.00" vaporized=""/>
    <tripinfo id="132667_410_0" depart="25212.00" departLane="-31800061#0_0" departPos="4.40" departSpeed="0.00" departDelay="0.00" arrival="25262.00" arrivalLane="-4999334_0" arrivalPos="293.22" arrivalSpeed="12.97" duration="50.00" routeLength="492.72" waitingTime="0.00" waitingCount="0" stopTime="0.00" timeLoss="7.93" rerouteNo="0" devices="tripinfo_132667_410_0" vType="pkw" speedFactor="0.97" vaporized=""/>
    <tripinfo id="68266_381_0" depart="25229.00" departLane="4045329#5_0" departPos="4.40" departSpeed="0.00" departDelay="0.00" arrival="25262.00" arrivalLane="41910185#0_0" arrivalPos="127.86" arrivalSpeed="7.55" duration="33.00" routeLength="267.37" waitingTime="0.00" waitingCount="0" stopTime="0.00" timeLoss="5.48" rerouteNo="0" devices="tripinfo_68266_381_0" vType="pkw" speedFactor="0.96" vaporized=""/>
    <tripinfo id="157649_421_0" depart="25230.00" departLane="319261593#12_0" departPos="4.40" departSpeed="0.00" departDelay="1.00" arrival="25262.00" arrivalLane="-31864804_0" arrivalPos="70.23" arrivalSpeed="13.09" duration="32.00" routeLength="352.97" waitingTime="0.00" waitingCount="0" stopTime="0.00" timeLoss="6.22" rerouteNo="0" devices="tripinfo_157649_421_0" vType="pkw" speedFactor="1.00" vaporized=""/>
    <tripinfo id="140163_414_0" depart="25244.00" departLane="241660955#13_0" departPos="4.40" departSpeed="0.00" departDelay="0.00" arrival="25264.00" arrivalLane="-41910184_0" arrivalPos="185.90" arrivalSpeed="14.49" duration="20.00" routeLength="216.76" waitingTime="0.00" waitingCount="0" stopTime="0.00" timeLoss="4.71" rerouteNo="0" devices="tripinfo_140163_414_0" vType="pkw" speedFactor="1.06" vaporized=""/>
    <tripinfo id="120846_405_0" depart="25207.00" departLane="31864804_0" departPos="4.40" departSpeed="0.00" departDelay="0.00" arrival="25269.00" arrivalLane="-4999334_0" arrivalPos="293.22" arrivalSpeed="12.43" duration="62.00" routeLength="621.86" waitingTime="1.00" waitingCount="1" stopTime="0.00" timeLoss="15.65" rerouteNo="0" devices="tripinfo_120846_405_0" vType="pkw" speedFactor="0.97" vaporized=""/>
    <tripinfo id="81370_389_0" depart="25232.00" departLane="4045329#5_0" departPos="4.40" departSpeed="0.00" departDelay="1.00" arrival="25269.00" arrivalLane="-4045330_0" arrivalPos="128.76" arrivalSpeed="7.17" duration="37.00" routeLength="329.66" waitingTime="0.00" waitingCount="0" stopTime="0.00" timeLoss="6.89" rerouteNo="0" devices="tripinfo_81370_389_0" vType="pkw" speedFactor="1.00" vaporized=""/>
    <tripinfo id="163598_422_0" depart="25236.00" departLane="-130160207#0_0" departPos="4.40" departSpeed="0.00" departDelay="0.00" arrival="25270.00" arrivalLane="241660955#17_0" arrivalPos="110.13" arrivalSpeed="13.08" duration="34.00" routeLength="250.75" waitingTime="1.00" waitingCount="1" stopTime="0.00" timeLoss="8.90" rerouteNo="0" devices="tripinfo_163598_422_0" vType="pkw" speedFactor="0.97" vaporized=""/>
    <tripinfo id="131963_410_0" depart="25223.00" departLane="-31800061#0_0" departPos="4.40" departSpeed="0.00" departDelay="0.00" arrival="25271.00" arrivalLane="-4999334_0" arrivalPos="293.22" arrivalSpeed="14.62" duration="48.00" routeLength="492.72" waitingTime="0.00" waitingCount="0" stopTime="0.00" timeLoss="9.21" rerouteNo="0" devices="tripinfo_131963_410_0" vType="pkw" speedFactor="1.07" vaporized=""/>
    <tripinfo id="111294_401_0" depart="25211.00" departLane="-5229966#3_0" departPos="4.40" departSpeed="0.00" departDelay="0.00" arrival="25272.00" arrivalLane="4145590#0_0" arrivalPos="95.58" arrivalSpeed="12.22" duration="61.00" routeLength="453.70" waitingTime="17.00" waitingCount="1" stopTime="0.00" timeLoss="24.71" rerouteNo="0" devices="tripinfo_111294_401_0" vType="pkw" speedFactor="0.91" vaporized=""/>
    <tripinfo id="118698_405_0" depart="25213.00" departLane="-5229966#3_0" departPos="4.40" departSpeed="0.00" departDelay="0.00" arrival="25274.00" arrivalLane="4145590#0_0" arrivalPos="95.58" arrivalSpeed="12.03" duration="61.00" routeLength="453.70" waitingTime="15.00" waitingCount="1" stopTime="0.00" timeLoss="23.55" rerouteNo="0" devices="tripinfo_118698_405_0" vType="pkw" speedFactor="0.88" vaporized=""/>
    <tripinfo id="100929_396_0" depart="25233.00" departLane="-5229966#3_0" departPos="4.40" departSpeed="0.00" departDelay="0.00" arrival="25276.00" arrivalLane="4145590#0_0" arrivalPos="95.58" arrivalSpeed="13.67" duration="43.00" routeLength="453.70" waitingTime="0.00" waitingCount="0" stopTime="0.00" timeLoss="11.22" rerouteNo="0" devices="tripinfo_100929_396_0" vType="pkw" speedFactor="1.03" vaporized=""/>
    <tripinfo id="161160_421_0" depart="25225.00" departLane="241660957#0_0" departPos="4.40" departSpeed="0.00" departDelay="0.00" arrival="25279.00" arrivalLane="4999331#0_0" arrivalPos="373.64" arrivalSpeed="17.90" duration="54.00" routeLength="489.64" waitingTime="15.00" waitingCount="1" stopTime="0.00" timeLoss="26.32" rerouteNo="0" devices="tripinfo_161160_421_0" vType="pkw" speedFactor="1.31" vaporized=""/>
    <tripinfo id="166826_424_0" depart="25240.00" departLane="41910184_0" departPos="4.40" departSpeed="0.00" departDelay="0.00" arrival="25283.00" arrivalLane="4145589#0_0" arrivalPos="149.75" arrivalSpeed="8.06" duration="43.00" routeLength="368.38" waitingTime="0.00" waitingCount="0" stopTime="0.00" timeLoss="7.55" rerouteNo="0" devices="tripinfo_166826_424_0" vType="pkw" speedFactor="0.99" vaporized=""/>
    <tripinfo id="160296_421_0" depart="25211.00" departLane="241660955#13_0" departPos="4.40" departSpeed="0.00" departDelay="0.00" arrival="25284.00" arrivalLane="241660955#17_0" arrivalPos="110.13" arrivalSpeed="14.47" duration="73.00" routeLength="247.24" waitingTime="46.00" waitingCount="1" stopTime="0.00" timeLoss="56.58" rerouteNo="0" devices="tripinfo_160296_421_0" vType="pkw" speedFactor="1.13" vaporized=""/>
    <tripinfo id="118681_405_0" depart="25237.00" departLane="4999334_0" departPos="4.40" departSpeed="0.00" departDelay="0.00" arrival="25285.00" arrivalLane="-31864804_0" arrivalPos="70.23" arrivalSpeed="14.43" duration="48.00" routeLength="615.92" waitingTime="0.00" waitingCount="0" stopTime="0.00" timeLoss="6.77" rerouteNo="0" devices="tripinfo_118681_405_0" vType="pkw" speedFactor="1.08" vaporized=""/>
    <tripinfo id="98545_395_0" depart="25206.00" departLane="4045330_0" departPos="4.40" departSpeed="0.00" departDelay="0.00" arrival="25286.00" arrivalLane="241660955#17_1" arrivalPos="110.13" arrivalSpeed="12.57" duration="80.00" routeLength="473.04" waitingTime="25.00" waitingCount="1" stopTime="0.00" timeLoss="36.87" rerouteNo="0" devices="tripinfo_98545_395_0" vType="pkw" speedFactor="0.95" vaporized=""/>
    <tripinfo id="132022_410_0" depart="25213.00" departLane="241660957#0_0" departPos="4.40" departSpeed="0.00" departDelay="0.00" arrival="25286.00" arrivalLane="4999331#0_0" arrivalPos="373.64" arrivalSpeed="12.64" duration="73.00" routeLength="489.64" waitingTime="26.00" waitingCount="1" stopTime="0.00" timeLoss="36.88" rerouteNo="0" devices="tripinfo_132022_410_0" vType="pkw" speedFactor="0.99" vaporized=""/>
    <tripinfo id="163719_422_0" depart="25211.00" departLane="4045330_0" departPos="4.40" departSpeed="0.00" departDelay="0.00" arrival="25287.00" arrivalLane="241660955#17_0" arrivalPos="110.13" arrivalSpeed="12.58" duration="76.00" routeLength="473.04" waitingTime="22.00" waitingCount="1" stopTime="0.00" timeLoss="33.17" rerouteNo="0" devices="tripinfo_163719_422_0" vType="pkw" speedFactor="0.96" vaporized=""/>
    <tripinfo id="141513_415_0" depart="25233.00" departLane="4999334_0" departPos="4.40" departSpeed="0.00" departDelay="0.00" arrival="25287.00" arrivalLane="4145590#0_1" arrivalPos="95.58" arrivalSpeed="12.27" duration="54.00" routeLength="615.60" waitingTime="0.00" waitingCount="0" stopTime="0.00" timeLoss="8.06" rerouteNo="0" devices="tripinfo_141513_415_0" vType="pkw" speedFactor="0.97" vaporized=""/>
    <tripinfo id="85241_390_0" depart="25243.00" departLane="41910184_0" departPos="4.40" departSpeed="0.00" departDelay="1.00" arrival="25287.00" arrivalLane="241660955#17_1" arrivalPos="110.13" arrivalSpeed="13.38" duration="44.00" routeLength="451.07" waitingTime="0.00" waitingCount="0" stopTime="0.00" timeLoss="12.78" rerouteNo="0" devices="tripinfo_85241_390_0" vType="pkw" speedFactor="1.05" vaporized=""/>
    <tripinfo id="137478_412_0" depart="25248.00" departLane="4045330_0" departPos="4.40" departSpeed="0.00" departDelay="0.00" arrival="25289.00" arrivalLane="241660955#17_0" arrivalPos="110.13" arrivalSpeed="14.46" duration="41.00" routeLength="473.04" waitingTime="0.00" waitingCount="0" stopTime="0.00" timeLoss="5.10" rerouteNo="0" devices="tripinfo_137478_412_0" vType="pkw" speedFactor="1.12" vaporized=""/>
    <tripinfo id="132705_410_0" depart="25200.00" departLane="-5229966#3_0" departPos="4.40" departSpeed="0.00" departDelay="0.00" arrival="25295.00" arrivalLane="4045332#0_0" arrivalPos="114.41" arrivalSpeed="8.94" duration="95.00" routeLength="720.54" waitingTime="28.00" waitingCount="1" stopTime="0.00" timeLoss="42.15" rerouteNo="0" devices="tripinfo_132705_410_0" vType="pkw" speedFactor="1.10" vaporized=""/>
    <tripinfo id="173797_427_0" depart="25226.00" departLane="-41910186_0" departPos="4.40" departSpeed="0.00" departDelay="0.00" arrival="25295.00" arrivalLane="4145590#0_1" arrivalPos="95.58" arrivalSpeed="14.74" duration="69.00" routeLength="894.77" waitingTime="0.00" waitingCount="0" stopTime="0.00" timeLoss="8.96" rerouteNo="0" devices="tripinfo_173797_427_0" vType="pkw" speedFactor="1.08" vaporized=""/>
    <tripinfo id="158876_421_0" depart="25255.00" departLane="319261593#12_0" departPos="4.40" departSpeed="0.00" departDelay="0.00" arrival="25295.00" arrivalLane="-31864804_0" arrivalPos="70.23" arrivalSpeed="14.16" duration="40.00" routeLength="352.97" waitingTime="6.00" waitingCount="1" stopTime="0.00" timeLoss="15.66" rerouteNo="0" devices="tripinfo_158876_421_0" vType="pkw" speedFactor="1.04" vaporized=""/>
    <tripinfo id="161578_421_0" depart="25264.00" departLane="-4999334_0" departPos="4.40" departSpeed="0.00" departDelay="1.00" arrival="25296.00" arrivalLane="-4999334_0" arrivalPos="293.22" arrivalSpeed="10.70" duration="32.00" routeLength="288.82" waitingTime="0.00" waitingCount="0" stopTime="0.00" timeLoss="4.15" rerouteNo="0" devices="tripinfo_161578_421_0" vType="pkw" speedFactor="0.77" vaporized=""/>
    <tripinfo id="168647_425_0" depart="25267.00" departLane="-4999334_0" departPos="4.40" departSpeed="0.00" departDelay="1.00" arrival="25297.00" arrivalLane="-4999334_0" arrivalPos="293.22" arrivalSpeed="11.55" duration="30.00" routeLength="288.82" waitingTime="0.00" waitingCount="0" stopTime="0.00" timeLoss="7.99" rerouteNo="0" devices="tripinfo_168647_425_0" vType="pkw" speedFactor="0.95" vaporized=""/>
    <tripinfo id="83081_390_0" depart="25228.00" departLane="31864804_0" departPos="4.40" departSpeed="0.00" departDelay="0.00" arrival="25299.00" arrivalLane="-4999334_0" arrivalPos="293.22" arrivalSpeed="14.27" duration="71.00" routeLength="688.22" waitingTime="3.00" waitingCount="1" stopTime="0.00" timeLoss="24.56" rerouteNo="0" devices="tripinfo_83081_390_0" vType="pkw" speedFactor="1.08" vaporized=""/>
    <tripinfo id="79538_387_0" depart="25216.00" departLane="-5229966#3_0" departPos="4.40" departSpeed="0.00" departDelay="1.00" arrival="25300.00" arrivalLane="4999331#0_0" arrivalPos="373.64" arrivalSpeed="14.35" duration="84.00" routeLength="731.93" waitingTime="13.00" waitingCount="1" stopTime="0.00" timeLoss="32.67" rerouteNo="0" devices="tripinfo_79538_387_0" vType="pkw" speedFactor="1.03" vaporized=""/>
    <tripinfo id="160813_421_0" depart="25253.00" departLane="41910184_0" departPos="4.40" departSpeed="0.00" departDelay="0.00" arrival="25300.00" arrivalLane="4145589#0_0" arrivalPos="149.75" arrivalSpeed="6.23" duration="47.00" routeLength="368.38" waitingTime="0.00" waitingCount="0" stopTime="0.00" timeLoss="8.85" rerouteNo="0" devices="tripinfo_160813_421_0" vType="pkw" speedFactor="0.90" vaporized=""/>
    <tripinfo id="125978_406_0" depart="25249.00" departLane="-5229966#3_0" departPos="4.40" departSpeed="0.00" departDelay="0.00" arrival="25301.00" arrivalLane="4145590#0_0" arrivalPos="95.58" arrivalSpeed="12.20" duration="52.00" routeLength="453.70" waitingTime="6.00" waitingCount="1" stopTime="0.00" timeLoss="16.53" rerouteNo="0" devices="tripinfo_125978_406_0" vType="pkw" speedFactor="0.94" vaporized=""/>
    <tripinfo id="100301_396_0" depart="25260.00" departLane="-241660955#17_0" departPos="4.40" departSpeed="0.00" departDelay="0.00" arrival="25302.00" arrivalLane="130160207#0_0" arrivalPos="135.18" arrivalSpeed="8.08" duration="42.00" routeLength="257.86" waitingTime="7.00" waitingCount="1" stopTime="0.00" timeLoss="16.63" rerouteNo="0" devices="tripinfo_100301_396_0" vType="pkw" speedFactor="1.02" vaporized=""/>
    <tripinfo id="155359_420_0" depart="25288.00" departLane="31864804_0" departPos="4.40" departSpeed="0.00" departDelay="0.00" arrival="25304.00" arrivalLane="-31864804_1" arrivalPos="70.23" arrivalSpeed="16.12" duration="16.00" routeLength="140.71" waitingTime="0.00" waitingCount="0" stopTime="0.00" timeLoss="7.31" rerouteNo="0" devices="tripinfo_155359_420_0" vType="pkw" speedFactor="1.17" vaporized=""/>
    <tripinfo id="76573_386_0" depart="25275.00" departLane="-241660955#17_0" departPos="4.40" departSpeed="0.00" departDelay="0.00" arrival="25307.00" arrivalLane="130160207#0_0" arrivalPos="135.18" arrivalSpeed="7.17" duration="32.00" routeLength="257.86" waitingTime="0.00" waitingCount="0" stopTime="0.00" timeLoss="4.65" rerouteNo="0" devices="tripinfo_76573_386_0" vType="pkw" speedFactor="0.97" vaporized=""/>
    <tripinfo id="149066_417_0" depart="25235.00" departLane="31864804_0" departPos="4.40" departSpeed="0.00" departDelay="0.00" arrival="25308.00" arrivalLane="4999331#0_0" arrivalPos="373.64" arrivalSpeed="15.24" duration="73.00" routeLength="492.92" waitingTime="22.00" waitingCount="2" stopTime="0.00" timeLoss="40.85" rerouteNo="0" devices="tripinfo_149066_417_0" vType="pkw" speedFactor="1.10" vaporized=""/>
    <tripinfo id="153005_419_0" depart="25270.00" departLane="41910184_0" departPos="4.40" departSpeed="0.00" departDelay="0.00" arrival="25308.00" arrivalLane="4145589#0_0" arrivalPos="149.75" arrivalSpeed="8.75" duration="38.00" routeLength="368.38" waitingTime="0.00" waitingCount="0" stopTime="0.00" timeLoss="9.36" rerouteNo="0" devices="tripinfo_153005_419_0" vType="pkw" speedFactor="1.19" vaporized=""/>
    <tripinfo id="161841_421_0" depart="25244.00" departLane="31864804_0" departPos="4.40" departSpeed="0.00" departDelay="0.00" arrival="25310.00" arrivalLane="4999331#0_1" arrivalPos="373.64" arrivalSpeed="14.72" duration="66.00" routeLength="492.92" waitingTime="19.00" waitingCount="1" stopTime="0.00" timeLoss="33.30" rerouteNo="0" devices="tripinfo_161841_421_0" vType="pkw" speedFactor="1.10" vaporized=""/>
    <tripinfo id="163366_422_0" depart="25253.00" departLane="-130160207#0_0" departPos="4.40" departSpeed="0.00" departDelay="0.00" arrival="25312.00" arrivalLane="241660955#17_0" arrivalPos="110.13" arrivalSpeed="13.30" duration="59.00" routeLength="250.75" waitingTime="25.00" waitingCount="1" stopTime="0.00" timeLoss="34.65" rerouteNo="0" devices="tripinfo_163366_422_0" vType="pkw" speedFactor="1.01" vaporized=""/>
    <tripinfo id="150860_418_0" depart="25276.00" departLane="31864804_0" departPos="4.40" departSpeed="0.00" departDelay="0.00" arrival="25312.00" arrivalLane="4999331#0_1" arrivalPos="373.64" arrivalSpeed="16.39" duration="36.00" routeLength="492.92" waitingTime="0.00" waitingCount="0" stopTime="0.00" timeLoss="6.28" rerouteNo="0" devices="tripinfo_150860_418_0" vType="pkw" speedFactor="1.23" vaporized=""/>
    <tripinfo id="174028_427_0" depart="25232.00" departLane="319261593#12_0" departPos="4.40" departSpeed="0.00" departDelay="0.00" arrival="25313.00" arrivalLane="4145590#0_0" arrivalPos="95.58" arrivalSpeed="14.16" duration="81.00" routeLength="408.95" waitingTime="34.00" waitingCount="2" stopTime="0.00" timeLoss="52.16" rerouteNo="0" devices="tripinfo_174028_427_0" vType="pkw" speedFactor="1.03" vaporized=""/>
    <tripinfo id="155750_420_0" depart="25256.00" departLane="-130160207#0_0" departPos="4.40" departSpeed="0.00" departDelay="0.00" arrival="25314.00" arrivalLane="241660955#17_0" arrivalPos="110.13" arrivalSpeed="12.47" duration="58.00" routeLength="250.75" waitingTime="24.00" waitingCount="1" stopTime="0.00" timeLoss="33.04" rerouteNo="0" devices="tripinfo_155750_420_0" vType="pkw" speedFactor="0.98" vaporized=""/>
    <tripinfo id="165473_423_0" depart="25267.00" departLane="41910186_0" departPos="4.40" departSpeed="0.00" departDelay="0.00" arrival="25314.00" arrivalLane="-31864804_0" arrivalPos="70.23" arrivalSpeed="14.24" duration="47.00" routeLength="565.92" waitingTime="0.00" waitingCount="0" stopTime="0.00" timeLoss="6.91" rerouteNo="0" devices="tripinfo_165473_423_0" vType="pkw" speedFactor="1.03" vaporized=""/>
    <tripinfo id="111993_401_0" depart="25251.00" departLane="4045329#5_0" departPos="4.40" departSpeed="0.00" departDelay="0.00" arrival="25315.00" arrivalLane="41910185#0_0" arrivalPos="127.86" arrivalSpeed="5.92" duration="64.00" routeLength="267.37" waitingTime="23.00" waitingCount="1" stopTime="0.00" timeLoss="30.20" rerouteNo="0" devices="tripinfo_111993_401_0" vType="pkw" speedFactor="0.79" vaporized=""/>
    <tripinfo id="126562_407_0" depart="25262.00" departLane="241660957#0_0" departPos="4.40" departSpeed="0.00" departDelay="0.00" arrival="25318.00" arrivalLane="4999331#0_0" arrivalPos="373.64" arrivalSpeed="15.96" duration="56.00" routeLength="489.64" waitingTime="13.00" waitingCount="2" stopTime="0.00" timeLoss="25.93" rerouteNo="0" devices="tripinfo_126562_407_0" vType="pkw" speedFactor="1.18" vaporized=""/>
    <tripinfo id="149951_417_0" depart="25274.00" departLane="-130160207#0_0" departPos="4.40" departSpeed="0.00" departDelay="0.00" arrival="25318.00" arrivalLane="241660955#17_0" arrivalPos="110.13" arrivalSpeed="14.09" duration="44.00" routeLength="250.75" waitingTime="11.00" waitingCount="1" stopTime="0.00" timeLoss="19.95" rerouteNo="0" devices="tripinfo_149951_417_0" vType="pkw" speedFactor="1.02" vaporized=""/>
    <tripinfo id="123109_406_0" depart="25260.00" departLane="241660957#0_0" departPos="4.40" departSpeed="0.00" departDelay="0.00" arrival="25320.00" arrivalLane="4999331#0_0" arrivalPos="373.64" arrivalSpeed="13.97" duration="60.00" routeLength="489.64" waitingTime="15.00" waitingCount="1" stopTime="0.00" timeLoss="25.38" rerouteNo="0" devices="tripinfo_123109_406_0" vType="pkw" speedFactor="1.02" vaporized=""/>
    <tripinfo id="157767_421_0" depart="25269.00" departLane="31864804_0" departPos="4.40" departSpeed="0.00" departDelay="0.00" arrival="25320.00" arrivalLane="-41910186_0" arrivalPos="324.50" arrivalSpeed="14.15" duration="51.00" routeLength="571.64" waitingTime="0.00" waitingCount="0" stopTime="0.00" timeLoss="13.49" rerouteNo="0" devices="tripinfo_157767_421_0" vType="pkw" speedFactor="1.10" vaporized=""/>
    <tripinfo id="71667_383_0" depart="25276.00" departLane="241660957#0_0" departPos="4.40" departSpeed="0.00" departDelay="0.00" arrival="25321.00" arrivalLane="4999331#0_1" arrivalPos="373.64" arrivalSpeed="13.83" duration="45.00" routeLength="489.64" waitingTime="2.00" waitingCount="1" stopTime="0.00" timeLoss="12.31" rerouteNo="0" devices="tripinfo_71667_383_0" vType="pkw" speedFactor="1.08" vaporized=""/>
    <tripinfo id="163790_422_0" depart="25264.00" departLane="-130160207#0_0" departPos="4.40" departSpeed="0.00" departDelay="0.00" arrival="25323.00" arrivalLane="130160207#0_0" arrivalPos="135.18" arrivalSpeed="8.00" duration="59.00" routeLength="270.63" waitingTime="18.00" waitingCount="1" stopTime="0.00" timeLoss="28.71" rerouteNo="0" devices="tripinfo_163790_422_0" vType="pkw" speedFactor="1.08" vaporized=""/>
    <tripinfo id="97604_395_0" depart="25295.00" departLane="319261593#12_0" departPos="4.40" departSpeed="0.00" departDelay="0.00" arrival="25326.00" arrivalLane="-31864804_0" arrivalPos="70.23" arrivalSpeed="13.57" duration="31.00" routeLength="367.00" waitingTime="0.00" waitingCount="0" stopTime="0.00" timeLoss="4.47" rerouteNo="0" devices="tripinfo_97604_395_0" vType="pkw" speedFactor="1.01" vaporized=""/>
    <tripinfo id="170585_426_0" depart="25288.00" departLane="241660957#0_0" departPos="4.40" departSpeed="0.00" departDelay="0.00" arrival="25329.00" arrivalLane="4999331#0_0" arrivalPos="373.64" arrivalSpeed="13.35" duration="41.00" routeLength="489.64" waitingTime="0.00" waitingCount="0" stopTime="0.00" timeLoss="4.83" rerouteNo="0" devices="tripinfo_170585_426_0" vType="pkw" speedFactor="0.99" vaporized=""/>
    <tripinfo id="150954_418_0" depart="25249.00" departLane="-130160207#0_0" departPos="4.40" departSpeed="0.00" departDelay="0.00" arrival="25330.00" arrivalLane="-41910184_0" arrivalPos="185.90" arrivalSpeed="12.23" duration="81.00" routeLength="470.87" waitingTime="26.00" waitingCount="1" stopTime="0.00" timeLoss="35.67" rerouteNo="0" devices="tripinfo_150954_418_0" vType="pkw" speedFactor="0.89" vaporized=""/>
    <tripinfo id="134770_411_0" depart="25235.00" departLane="-31800061#0_0" departPos="4.40" departSpeed="0.00" departDelay="0.00" arrival="25336.00" arrivalLane="-41910184_0" arrivalPos="185.90" arrivalSpeed="12.71" duration="101.00" routeLength="682.81" waitingTime="33.00" waitingCount="1" stopTime="0.00" timeLoss="44.21" rerouteNo="0" devices="tripinfo_134770_411_0" vType="pkw" speedFactor="0.97" vaporized=""/>
    <tripinfo id="148720_417_0" depart="25230.00" departLane="31864804_0" departPos="4.40" departSpeed="0.00" departDelay="1.00" arrival="25337.00" arrivalLane="-41910184_0" arrivalPos="185.90" arrivalSpeed="13.70" duration="107.00" routeLength="811.95" waitingTime="25.00" waitingCount="4" stopTime="0.00" timeLoss="50.15" rerouteNo="0" devices="tripinfo_148720_417_0" vType="pkw" speedFactor="1.03" vaporized=""/>
    <tripinfo id="172020_426_0" depart="25285.00" departLane="31864804_0" departPos="4.40" departSpeed="0.00" departDelay="0.00" arrival="25338.00" arrivalLane="4999331#0_0" arrivalPos="373.64" arrivalSpeed="13.30" duration="53.00" routeLength="492.92" waitingTime="4.00" waitingCount="1" stopTime="0.00" timeLoss="16.64" rerouteNo="0" devices="tripinfo_172020_426_0" vType="pkw" speedFactor="0.98" vaporized=""/>
    <tripinfo id="134193_411_0" depart="25298.00" departLane="31864804_0" departPos="4.40" departSpeed="0.00" departDelay="0.00" arrival="25340.00" arrivalLane="4999331#0_1" arrivalPos="373.64" arrivalSpeed="14.09" duration="42.00" routeLength="492.92" waitingTime="0.00" waitingCount="0" stopTime="0.00" timeLoss="7.23" rerouteNo="0" devices="tripinfo_134193_411_0" vType="pkw" speedFactor="1.04" vaporized=""/>
    <tripinfo id="144088_416_0" depart="25303.00" departLane="241660955#6_0" departPos="4.40" departSpeed="0.00" departDelay="0.00" arrival="25340.00" arrivalLane="-4999334_0" arrivalPos="293.22" arrivalSpeed="10.98" duration="37.00" routeLength="357.51" waitingTime="0.00" waitingCount="0" stopTime="0.00" timeLoss="5.25" rerouteNo="0" devices="tripinfo_144088_416_0" vType="pkw" speedFactor="0.83" vaporized=""/>
    <tripinfo id="121240_405_0" depart="25302.00" departLane="241660957#0_0" departPos="4.40" departSpeed="0.00" departDelay="0.00" arrival="25342.00" arrivalLane="4999331#0_0" arrivalPos="373.64" arrivalSpeed="13.58" duration="40.00" routeLength="489.64" waitingTime="0.00" waitingCount="0" stopTime="0.00" timeLoss="5.90" rerouteNo="0" devices="tripinfo_121240_405_0" vType="pkw" speedFactor="1.03" vaporized=""/>
    <tripinfo id="153704_420_0" depart="25240.00" departLane="-31800061#0_0" departPos="4.40" departSpeed="0.00" departDelay="0.00" arrival="25343.00" arrivalLane="-41910184_0" arrivalPos="185.90" arrivalSpeed="12.55" duration="103.00" routeLength="682.81" waitingTime="23.00" waitingCount="3" stopTime="0.00" timeLoss="44.19" rerouteNo="0" devices="tripinfo_153704_420_0" vType="pkw" speedFactor="0.93" vaporized=""/>
    <tripinfo id="149148_417_0" depart="25279.00" departLane="-130160207#0_0" departPos="4.40" departSpeed="0.00" departDelay="0.00" arrival="25347.00" arrivalLane="-41910184_0" arrivalPos="185.90" arrivalSpeed="13.85" duration="68.00" routeLength="470.87" waitingTime="11.00" waitingCount="2" stopTime="0.00" timeLoss="28.20" rerouteNo="0" devices="tripinfo_149148_417_0" vType="pkw" speedFactor="1.03" vaporized=""/>
    <tripinfo id="147523_416_0" depart="25297.00" departLane="241660957#0_0" departPos="4.40" departSpeed="0.00" departDelay="0.00" arrival="25347.00" arrivalLane="4999331#0_0" arrivalPos="373.64" arrivalSpeed="12.02" duration="50.00" routeLength="489.64" waitingTime="1.00" waitingCount="1" stopTime="0.00" timeLoss="12.42" rerouteNo="0" devices="tripinfo_147523_416_0" vType="pkw" speedFactor="0.94" vaporized=""/>
    <tripinfo id="131925_410_0" depart="25260.00" departLane="319261593#12_0" departPos="4.40" departSpeed="0.00" departDelay="0.00" arrival="25348.00" arrivalLane="-41910186_0" arrivalPos="324.50" arrivalSpeed="13.22" duration="88.00" routeLength="785.03" waitingTime="5.00" waitingCount="3" stopTime="0.00" timeLoss="28.83" rerouteNo="0" devices="tripinfo_131925_410_0" vType="pkw" speedFactor="0.96" vaporized=""/>