<?xml version="1.0" encoding="UTF-8"?>

<!-- generated on 2023-08-24 16:04:46 by Eclipse SUMO libsumo Version 1.18.0
<configuration xmlns:xsi="http://www.w3.org/2001/XMLSchema-instance" xsi:noNamespaceSchemaLocation="http://sumo.dlr.de/xsd/libsumoConfiguration.xsd">

    <input>
        <net-file value="/home/stefan/RESCO/./environments/cologne3/cologne3.net.xml"/>
        <route-files value="/home/stefan/RESCO/./environments/cologne3/cologne3.rou.xml"/>
    </input>

    <output>
        <tripinfo-output value="/home/stefan/results/IDDQN-tr0-cologne3-0-drq_norm-wait_norm/tripinfo_14.xml"/>
        <tripinfo-output.write-unfinished value="true"/>
    </output>

    <time>
        <begin value="25200"/>
        <end value="28800"/>
    </time>

    <processing>
        <time-to-teleport value="-1"/>
    </processing>

    <report>
        <no-warnings value="True"/>
        <no-step-log value="True"/>
    </report>

    <random_number>
        <random value="true"/>
    </random_number>

</configuration>
-->

<tripinfos xmlns:xsi="http://www.w3.org/2001/XMLSchema-instance" xsi:noNamespaceSchemaLocation="http://sumo.dlr.de/xsd/tripinfo_file.xsd">
    <tripinfo id="160296_421_0" depart="25211.00" departLane="241660955#13_0" departPos="4.40" departSpeed="0.00" departDelay="0.00" arrival="25232.00" arrivalLane="241660955#17_0" arrivalPos="110.13" arrivalSpeed="14.75" duration="21.00" routeLength="247.24" waitingTime="0.00" waitingCount="0" stopTime="0.00" timeLoss="5.39" rerouteNo="0" devices="tripinfo_160296_421_0" vType="pkw" speedFactor="1.16" vaporized=""/>
    <tripinfo id="111294_401_0" depart="25211.00" departLane="-5229966#3_0" departPos="4.40" departSpeed="0.00" departDelay="0.00" arrival="25248.00" arrivalLane="4145590#0_0" arrivalPos="95.58" arrivalSpeed="15.34" duration="37.00" routeLength="453.70" waitingTime="0.00" waitingCount="0" stopTime="0.00" timeLoss="8.14" rerouteNo="0" devices="tripinfo_111294_401_0" vType="pkw" speedFactor="1.14" vaporized=""/>
    <tripinfo id="73223_384_0" depart="25204.00" departLane="241660957#0_0" departPos="4.40" departSpeed="0.00" departDelay="0.00" arrival="25253.00" arrivalLane="4999331#0_0" arrivalPos="373.64" arrivalSpeed="12.87" duration="49.00" routeLength="489.64" waitingTime="1.00" waitingCount="1" stopTime="0.00" timeLoss="12.25" rerouteNo="0" devices="tripinfo_73223_384_0" vType="pkw" speedFactor="0.97" vaporized=""/>
    <tripinfo id="98545_395_0" depart="25206.00" departLane="4045330_0" departPos="4.40" departSpeed="0.00" departDelay="0.00" arrival="25253.00" arrivalLane="241660955#17_0" arrivalPos="110.13" arrivalSpeed="13.94" duration="47.00" routeLength="473.04" waitingTime="0.00" waitingCount="0" stopTime="0.00" timeLoss="6.92" rerouteNo="0" devices="tripinfo_98545_395_0" vType="pkw" speedFactor="1.02" vaporized=""/>
    <tripinfo id="118698_405_0" depart="25213.00" departLane="-5229966#3_0" departPos="4.40" departSpeed="0.00" departDelay="0.00" arrival="25253.00" arrivalLane="4145590#0_0" arrivalPos="95.58" arrivalSpeed="14.09" duration="40.00" routeLength="453.70" waitingTime="0.00" waitingCount="0" stopTime="0.00" timeLoss="7.45" rerouteNo="0" devices="tripinfo_118698_405_0" vType="pkw" speedFactor="1.02" vaporized=""/>
    <tripinfo id="132022_410_0" depart="25213.00" departLane="241660957#0_0" departPos="4.40" departSpeed="0.00" departDelay="0.00" arrival="25254.00" arrivalLane="4999331#0_1" arrivalPos="373.64" arrivalSpeed="13.37" duration="41.00" routeLength="489.64" waitingTime="0.00" waitingCount="0" stopTime="0.00" timeLoss="5.60" rerouteNo="0" devices="tripinfo_132022_410_0" vType="pkw" speedFactor="1.00" vaporized=""/>
    <tripinfo id="169122_425_0" depart="25228.00" departLane="-4999334_0" departPos="4.40" departSpeed="0.00" departDelay="0.00" arrival="25257.00" arrivalLane="-4999334_0" arrivalPos="293.22" arrivalSpeed="11.65" duration="29.00" routeLength="288.82" waitingTime="0.00" waitingCount="0" stopTime="0.00" timeLoss="4.35" rerouteNo="0" devices="tripinfo_169122_425_0" vType="pkw" speedFactor="0.86" vaporized=""/>
    <tripinfo id="163719_422_0" depart="25211.00" departLane="4045330_0" departPos="4.40" departSpeed="0.00" departDelay="0.00" arrival="25259.00" arrivalLane="241660955#17_0" arrivalPos="110.13" arrivalSpeed="12.63" duration="48.00" routeLength="473.04" waitingTime="0.00" waitingCount="0" stopTime="0.00" timeLoss="5.10" rerouteNo="0" devices="tripinfo_163719_422_0" vType="pkw" speedFactor="0.95" vaporized=""/>
    <tripinfo id="132667_410_0" depart="25212.00" departLane="-31800061#0_0" departPos="4.40" departSpeed="0.00" departDelay="0.00" arrival="25263.00" arrivalLane="-4999334_0" arrivalPos="293.22" arrivalSpeed="11.99" duration="51.00" routeLength="492.72" waitingTime="0.00" waitingCount="0" stopTime="0.00" timeLoss="7.63" rerouteNo="0" devices="tripinfo_132667_410_0" vType="pkw" speedFactor="0.94" vaporized=""/>
    <tripinfo id="140163_414_0" depart="25244.00" departLane="241660955#13_0" departPos="4.40" departSpeed="0.00" departDelay="0.00" arrival="25264.00" arrivalLane="-41910184_0" arrivalPos="185.90" arrivalSpeed="12.69" duration="20.00" routeLength="216.76" waitingTime="0.00" waitingCount="0" stopTime="0.00" timeLoss="4.39" rerouteNo="0" devices="tripinfo_140163_414_0" vType="pkw" speedFactor="1.00" vaporized=""/>
    <tripinfo id="140878_414_0" depart="25231.00" departLane="-130160207#0_0" departPos="4.40" departSpeed="0.00" departDelay="0.00" arrival="25265.00" arrivalLane="241660955#17_0" arrivalPos="110.13" arrivalSpeed="12.89" duration="34.00" routeLength="250.75" waitingTime="2.00" waitingCount="1" stopTime="0.00" timeLoss="9.13" rerouteNo="0" devices="tripinfo_140878_414_0" vType="pkw" speedFactor="1.02" vaporized=""/>
    <tripinfo id="141383_415_0" depart="25216.00" departLane="41910184_0" departPos="4.40" departSpeed="0.00" departDelay="0.00" arrival="25266.00" arrivalLane="4145589#0_0" arrivalPos="149.75" arrivalSpeed="7.56" duration="50.00" routeLength="368.38" waitingTime="0.00" waitingCount="0" stopTime="0.00" timeLoss="12.31" rerouteNo="0" devices="tripinfo_141383_415_0" vType="pkw" speedFactor="0.92" vaporized=""/>
    <tripinfo id="163598_422_0" depart="25236.00" departLane="-130160207#0_0" departPos="4.40" departSpeed="0.00" departDelay="0.00" arrival="25266.00" arrivalLane="241660955#17_0" arrivalPos="110.13" arrivalSpeed="13.94" duration="30.00" routeLength="250.75" waitingTime="0.00" waitingCount="0" stopTime="0.00" timeLoss="7.04" rerouteNo="0" devices="tripinfo_163598_422_0" vType="pkw" speedFactor="1.07" vaporized=""/>
    <tripinfo id="113109_402_0" depart="25203.00" departLane="4999334_0" departPos="4.40" departSpeed="0.00" departDelay="0.00" arrival="25276.00" arrivalLane="-31864804_0" arrivalPos="70.23" arrivalSpeed="12.49" duration="73.00" routeLength="615.92" waitingTime="12.00" waitingCount="1" stopTime="0.00" timeLoss="25.55" rerouteNo="0" devices="tripinfo_113109_402_0" vType="pkw" speedFactor="0.94" vaporized=""/>
    <tripinfo id="161160_421_0" depart="25225.00" departLane="241660957#0_0" departPos="4.40" departSpeed="0.00" departDelay="0.00" arrival="25277.00" arrivalLane="4999331#0_0" arrivalPos="373.64" arrivalSpeed="11.57" duration="52.00" routeLength="489.64" waitingTime="0.00" waitingCount="0" stopTime="0.00" timeLoss="9.64" rerouteNo="0" devices="tripinfo_161160_421_0" vType="pkw" speedFactor="0.84" vaporized=""/>
    <tripinfo id="132705_410_0" depart="25200.00" departLane="-5229966#3_0" departPos="4.40" departSpeed="0.00" departDelay="0.00" arrival="25278.00" arrivalLane="4045332#0_0" arrivalPos="114.41" arrivalSpeed="8.68" duration="78.00" routeLength="720.54" waitingTime="4.00" waitingCount="1" stopTime="0.00" timeLoss="21.93" rerouteNo="0" devices="tripinfo_132705_410_0" vType="pkw" speedFactor="1.05" vaporized=""/>
    <tripinfo id="131963_410_0" depart="25223.00" departLane="-31800061#0_0" departPos="4.40" departSpeed="0.00" departDelay="0.00" arrival="25278.00" arrivalLane="-4999334_0" arrivalPos="293.22" arrivalSpeed="10.48" duration="55.00" routeLength="492.72" waitingTime="0.00" waitingCount="0" stopTime="0.00" timeLoss="6.12" rerouteNo="0" devices="tripinfo_131963_410_0" vType="pkw" speedFactor="0.84" vaporized=""/>
    <tripinfo id="79538_387_0" depart="25216.00" departLane="-5229966#3_0" departPos="4.40" departSpeed="0.00" departDelay="1.00" arrival="25281.00" arrivalLane="4999331#0_0" arrivalPos="373.64" arrivalSpeed="12.72" duration="65.00" routeLength="731.93" waitingTime="0.00" waitingCount="0" stopTime="0.00" timeLoss="9.73" rerouteNo="0" devices="tripinfo_79538_387_0" vType="pkw" speedFactor="0.96" vaporized=""/>
    <tripinfo id="166826_424_0" depart="25240.00" departLane="41910184_0" departPos="4.40" departSpeed="0.00" departDelay="0.00" arrival="25284.00" arrivalLane="4145589#0_0" arrivalPos="149.75" arrivalSpeed="7.55" duration="44.00" routeLength="368.38" waitingTime="0.00" waitingCount="0" stopTime="0.00" timeLoss="7.29" rerouteNo="0" devices="tripinfo_166826_424_0" vType="pkw" speedFactor="0.95" vaporized=""/>
    <tripinfo id="68266_381_0" depart="25229.00" departLane="4045329#5_0" departPos="4.40" departSpeed="0.00" departDelay="0.00" arrival="25289.00" arrivalLane="41910185#0_0" arrivalPos="127.86" arrivalSpeed="7.87" duration="60.00" routeLength="267.37" waitingTime="25.00" waitingCount="1" stopTime="0.00" timeLoss="34.98" rerouteNo="0" devices="tripinfo_68266_381_0" vType="pkw" speedFactor="1.06" vaporized=""/>
    <tripinfo id="161578_421_0" depart="25263.00" departLane="-4999334_0" departPos="4.40" departSpeed="0.00" departDelay="0.00" arrival="25289.00" arrivalLane="-4999334_0" arrivalPos="293.22" arrivalSpeed="12.88" duration="26.00" routeLength="288.82" waitingTime="0.00" waitingCount="0" stopTime="0.00" timeLoss="4.19" rerouteNo="0" devices="tripinfo_161578_421_0" vType="pkw" speedFactor="0.97" vaporized=""/>
    <tripinfo id="100301_396_0" depart="25260.00" departLane="-241660955#17_0" departPos="4.40" departSpeed="0.00" departDelay="0.00" arrival="25290.00" arrivalLane="130160207#0_0" arrivalPos="135.18" arrivalSpeed="9.12" duration="30.00" routeLength="257.86" waitingTime="0.00" waitingCount="0" stopTime="0.00" timeLoss="6.49" rerouteNo="0" devices="tripinfo_100301_396_0" vType="pkw" speedFactor="1.11" vaporized=""/>
    <tripinfo id="168647_425_0" depart="25266.00" departLane="-4999334_0" departPos="4.40" departSpeed="0.00" departDelay="0.00" arrival="25291.00" arrivalLane="-4999334_0" arrivalPos="293.22" arrivalSpeed="15.15" duration="25.00" routeLength="288.82" waitingTime="0.00" waitingCount="0" stopTime="0.00" timeLoss="6.27" rerouteNo="0" devices="tripinfo_168647_425_0" vType="pkw" speedFactor="1.16" vaporized=""/>
    <tripinfo id="141513_415_0" depart="25233.00" departLane="4999334_0" departPos="4.40" departSpeed="0.00" departDelay="0.00" arrival="25292.00" arrivalLane="4145590#0_1" arrivalPos="95.58" arrivalSpeed="12.57" duration="59.00" routeLength="615.60" waitingTime="1.00" waitingCount="1" stopTime="0.00" timeLoss="14.10" rerouteNo="0" devices="tripinfo_141513_415_0" vType="pkw" speedFactor="1.00" vaporized=""/>
    <tripinfo id="160813_421_0" depart="25253.00" departLane="41910184_0" departPos="4.40" departSpeed="0.00" departDelay="0.00" arrival="25292.00" arrivalLane="4145589#0_0" arrivalPos="149.75" arrivalSpeed="8.18" duration="39.00" routeLength="368.38" waitingTime="0.00" waitingCount="0" stopTime="0.00" timeLoss="6.78" rerouteNo="0" devices="tripinfo_160813_421_0" vType="pkw" speedFactor="1.06" vaporized=""/>
    <tripinfo id="85241_390_0" depart="25243.00" departLane="41910184_0" departPos="4.40" departSpeed="0.00" departDelay="1.00" arrival="25294.00" arrivalLane="241660955#17_0" arrivalPos="110.13" arrivalSpeed="13.66" duration="51.00" routeLength="451.07" waitingTime="5.00" waitingCount="1" stopTime="0.00" timeLoss="19.15" rerouteNo="0" devices="tripinfo_85241_390_0" vType="pkw" speedFactor="1.02" vaporized=""/>
    <tripinfo id="137478_412_0" depart="25248.00" departLane="4045330_0" departPos="4.40" departSpeed="0.00" departDelay="0.00" arrival="25295.00" arrivalLane="241660955#17_1" arrivalPos="110.13" arrivalSpeed="12.78" duration="47.00" routeLength="473.04" waitingTime="0.00" waitingCount="0" stopTime="0.00" timeLoss="6.91" rerouteNo="0" devices="tripinfo_137478_412_0" vType="pkw" speedFactor="1.01" vaporized=""/>
    <tripinfo id="173797_427_0" depart="25226.00" departLane="-41910186_0" departPos="4.40" departSpeed="0.00" departDelay="0.00" arrival="25301.00" arrivalLane="4145590#0_1" arrivalPos="95.58" arrivalSpeed="13.54" duration="75.00" routeLength="894.77" waitingTime="0.00" waitingCount="0" stopTime="0.00" timeLoss="13.70" rerouteNo="0" devices="tripinfo_173797_427_0" vType="pkw" speedFactor="1.06" vaporized=""/>
    <tripinfo id="111993_401_0" depart="25251.00" departLane="4045329#5_0" departPos="4.40" departSpeed="0.00" departDelay="0.00" arrival="25301.00" arrivalLane="41910185#0_0" arrivalPos="127.86" arrivalSpeed="7.69" duration="50.00" routeLength="267.37" waitingTime="9.00" waitingCount="2" stopTime="0.00" timeLoss="25.46" rerouteNo="0" devices="tripinfo_111993_401_0" vType="pkw" speedFactor="1.07" vaporized=""/>
    <tripinfo id="122325_406_0" depart="25208.00" departLane="319261593#12_0" departPos="4.40" departSpeed="0.00" departDelay="0.00" arrival="25302.00" arrivalLane="-31864804_0" arrivalPos="70.23" arrivalSpeed="11.55" duration="94.00" routeLength="352.97" waitingTime="55.00" waitingCount="1" stopTime="0.00" timeLoss="66.10" rerouteNo="0" devices="tripinfo_122325_406_0" vType="pkw" speedFactor="0.92" vaporized=""/>
    <tripinfo id="73303_385_0" depart="25202.00" departLane="319261593#12_0" departPos="4.40" departSpeed="0.00" departDelay="0.00" arrival="25305.00" arrivalLane="4145590#0_0" arrivalPos="95.58" arrivalSpeed="12.03" duration="103.00" routeLength="408.95" waitingTime="59.00" waitingCount="1" stopTime="0.00" timeLoss="70.02" rerouteNo="0" devices="tripinfo_73303_385_0" vType="pkw" speedFactor="0.89" vaporized=""/>
    <tripinfo id="120846_405_0" depart="25207.00" departLane="31864804_0" departPos="4.40" departSpeed="0.00" departDelay="0.00" arrival="25305.00" arrivalLane="-4999334_0" arrivalPos="293.22" arrivalSpeed="14.56" duration="98.00" routeLength="621.86" waitingTime="41.00" waitingCount="1" stopTime="0.00" timeLoss="56.95" rerouteNo="0" devices="tripinfo_120846_405_0" vType="pkw" speedFactor="1.11" vaporized=""/>
    <tripinfo id="81370_389_0" depart="25232.00" departLane="4045329#5_0" departPos="4.40" departSpeed="0.00" departDelay="1.00" arrival="25305.00" arrivalLane="-4045330_0" arrivalPos="128.76" arrivalSpeed="7.82" duration="73.00" routeLength="329.66" waitingTime="29.00" waitingCount="2" stopTime="0.00" timeLoss="43.86" rerouteNo="0" devices="tripinfo_81370_389_0" vType="pkw" speedFactor="1.05" vaporized=""/>
    <tripinfo id="118681_405_0" depart="25237.00" departLane="4999334_0" departPos="4.40" departSpeed="0.00" departDelay="0.00" arrival="25305.00" arrivalLane="-31864804_1" arrivalPos="70.23" arrivalSpeed="13.39" duration="68.00" routeLength="615.92" waitingTime="12.00" waitingCount="1" stopTime="0.00" timeLoss="24.70" rerouteNo="0" devices="tripinfo_118681_405_0" vType="pkw" speedFactor="1.03" vaporized=""/>
    <tripinfo id="76573_386_0" depart="25275.00" departLane="-241660955#17_0" departPos="4.40" departSpeed="0.00" departDelay="0.00" arrival="25309.00" arrivalLane="130160207#0_0" arrivalPos="135.18" arrivalSpeed="7.22" duration="34.00" routeLength="257.86" waitingTime="0.00" waitingCount="0" stopTime="0.00" timeLoss="6.41" rerouteNo="0" devices="tripinfo_76573_386_0" vType="pkw" speedFactor="0.93" vaporized=""/>
    <tripinfo id="155359_420_0" depart="25288.00" departLane="31864804_0" departPos="4.40" departSpeed="0.00" departDelay="0.00" arrival="25309.00" arrivalLane="-31864804_1" arrivalPos="70.23" arrivalSpeed="13.19" duration="21.00" routeLength="140.71" waitingTime="0.00" waitingCount="0" stopTime="0.00" timeLoss="10.92" rerouteNo="0" devices="tripinfo_155359_420_0" vType="pkw" speedFactor="1.02" vaporized=""/>
    <tripinfo id="153005_419_0" depart="25270.00" departLane="41910184_0" departPos="4.40" departSpeed="0.00" departDelay="0.00" arrival="25311.00" arrivalLane="4145589#0_0" arrivalPos="149.75" arrivalSpeed="7.88" duration="41.00" routeLength="368.38" waitingTime="0.00" waitingCount="0" stopTime="0.00" timeLoss="7.17" rerouteNo="0" devices="tripinfo_153005_419_0" vType="pkw" speedFactor="1.02" vaporized=""/>
    <tripinfo id="165473_423_0" depart="25267.00" departLane="41910186_0" departPos="4.40" departSpeed="0.00" departDelay="0.00" arrival="25312.00" arrivalLane="-31864804_0" arrivalPos="70.23" arrivalSpeed="14.10" duration="45.00" routeLength="565.92" waitingTime="0.00" waitingCount="0" stopTime="0.00" timeLoss="6.60" rerouteNo="0" devices="tripinfo_165473_423_0" vType="pkw" speedFactor="1.08" vaporized=""/>
    <tripinfo id="150954_418_0" depart="25249.00" departLane="-130160207#0_0" departPos="4.40" departSpeed="0.00" departDelay="0.00" arrival="25313.00" arrivalLane="-41910184_0" arrivalPos="185.90" arrivalSpeed="11.33" duration="64.00" routeLength="470.87" waitingTime="5.00" waitingCount="1" stopTime="0.00" timeLoss="14.20" rerouteNo="0" devices="tripinfo_150954_418_0" vType="pkw" speedFactor="0.82" vaporized=""/>
    <tripinfo id="67548_381_0" depart="25289.00" departLane="-41910185#2_0" departPos="4.40" departSpeed="0.00" departDelay="1.00" arrival="25315.00" arrivalLane="241660955#10_0" arrivalPos="56.57" arrivalSpeed="13.53" duration="26.00" routeLength="191.84" waitingTime="0.00" waitingCount="0" stopTime="0.00" timeLoss="5.72" rerouteNo="0" devices="tripinfo_67548_381_0" vType="pkw" speedFactor="1.02" vaporized=""/>
    <tripinfo id="149066_417_0" depart="25235.00" departLane="31864804_0" departPos="4.40" departSpeed="0.00" departDelay="0.00" arrival="25316.00" arrivalLane="4999331#0_0" arrivalPos="373.64" arrivalSpeed="10.86" duration="81.00" routeLength="492.92" waitingTime="23.00" waitingCount="2" stopTime="0.00" timeLoss="40.33" rerouteNo="0" devices="tripinfo_149066_417_0" vType="pkw" speedFactor="0.87" vaporized=""/>
    <tripinfo id="153968_420_0" depart="25227.00" departLane="319261593#12_0" departPos="4.40" departSpeed="0.00" departDelay="0.00" arrival="25317.00" arrivalLane="-31864804_0" arrivalPos="70.23" arrivalSpeed="10.92" duration="90.00" routeLength="352.97" waitingTime="46.00" waitingCount="2" stopTime="0.00" timeLoss="60.20" rerouteNo="0" devices="tripinfo_153968_420_0" vType="pkw" speedFactor="0.85" vaporized=""/>
    <tripinfo id="157649_421_0" depart="25230.00" departLane="319261593#12_0" departPos="4.40" departSpeed="0.00" departDelay="1.00" arrival="25319.00" arrivalLane="-31864804_0" arrivalPos="70.23" arrivalSpeed="13.03" duration="89.00" routeLength="352.97" waitingTime="43.00" waitingCount="2" stopTime="0.00" timeLoss="62.38" rerouteNo="0" devices="tripinfo_157649_421_0" vType="pkw" speedFactor="0.98" vaporized=""/>
    <tripinfo id="161841_421_0" depart="25244.00" departLane="31864804_0" departPos="4.40" departSpeed="0.00" departDelay="0.00" arrival="25319.00" arrivalLane="4999331#0_1" arrivalPos="373.64" arrivalSpeed="15.75" duration="75.00" routeLength="492.92" waitingTime="20.00" waitingCount="2" stopTime="0.00" timeLoss="43.54" rerouteNo="0" devices="tripinfo_161841_421_0" vType="pkw" speedFactor="1.14" vaporized=""/>
    <tripinfo id="163366_422_0" depart="25253.00" departLane="-130160207#0_0" departPos="4.40" departSpeed="0.00" departDelay="0.00" arrival="25320.00" arrivalLane="241660955#17_0" arrivalPos="110.13" arrivalSpeed="14.14" duration="67.00" routeLength="250.75" waitingTime="29.00" waitingCount="2" stopTime="0.00" timeLoss="42.83" rerouteNo="0" devices="tripinfo_163366_422_0" vType="pkw" speedFactor="1.02" vaporized=""/>
    <tripinfo id="104671_398_0" depart="25286.00" departLane="-41910185#2_0" departPos="4.40" departSpeed="0.00" departDelay="0.00" arrival="25321.00" arrivalLane="241660955#11_0" arrivalPos="73.18" arrivalSpeed="14.72" duration="35.00" routeLength="279.28" waitingTime="0.00" waitingCount="0" stopTime="0.00" timeLoss="11.36" rerouteNo="0" devices="tripinfo_104671_398_0" vType="pkw" speedFactor="1.15" vaporized=""/>
    <tripinfo id="155750_420_0" depart="25256.00" departLane="-130160207#0_0" departPos="4.40" departSpeed="0.00" departDelay="0.00" arrival="25331.00" arrivalLane="241660955#17_0" arrivalPos="110.13" arrivalSpeed="11.58" duration="75.00" routeLength="250.75" waitingTime="33.00" waitingCount="3" stopTime="0.00" timeLoss="47.90" rerouteNo="0" devices="tripinfo_155750_420_0" vType="pkw" speedFactor="0.91" vaporized=""/>
    <tripinfo id="164227_422_0" depart="25285.00" departLane="4999334_0" departPos="4.40" departSpeed="0.00" departDelay="0.00" arrival="25333.00" arrivalLane="-31864804_0" arrivalPos="70.23" arrivalSpeed="15.78" duration="48.00" routeLength="615.92" waitingTime="0.00" waitingCount="0" stopTime="0.00" timeLoss="8.91" rerouteNo="0" devices="tripinfo_164227_422_0" vType="pkw" speedFactor="1.16" vaporized=""/>
    <tripinfo id="150860_418_0" depart="25276.00" departLane="31864804_0" departPos="4.40" departSpeed="0.00" departDelay="0.00" arrival="25334.00" arrivalLane="4999331#0_1" arrivalPos="373.64" arrivalSpeed="15.84" duration="58.00" routeLength="492.92" waitingTime="6.00" waitingCount="2" stopTime="0.00" timeLoss="26.62" rerouteNo="0" devices="tripinfo_150860_418_0" vType="pkw" speedFactor="1.17" vaporized=""/>
    <tripinfo id="143042_415_0" depart="25300.00" departLane="31864804_0" departPos="4.40" departSpeed="0.00" departDelay="0.00" arrival="25334.00" arrivalLane="4145590#0_0" arrivalPos="95.58" arrivalSpeed="12.18" duration="34.00" routeLength="195.56" waitingTime="11.00" waitingCount="1" stopTime="0.00" timeLoss="18.63" rerouteNo="0" devices="tripinfo_143042_415_0" vType="pkw" speedFactor="0.95" vaporized=""/>
    <tripinfo id="144088_416_0" depart="25303.00" departLane="241660955#6_0" departPos="4.40" departSpeed="0.00" departDelay="0.00" arrival="25335.00" arrivalLane="-4999334_0" arrivalPos="293.22" arrivalSpeed="13.37" duration="32.00" routeLength="357.51" waitingTime="0.00" waitingCount="0" stopTime="0.00" timeLoss="5.96" rerouteNo="0" devices="tripinfo_144088_416_0" vType="pkw" speedFactor="1.00" vaporized=""/>
    <tripinfo id="157767_421_0" depart="25269.00" departLane="31864804_0" departPos="4.40" departSpeed="0.00" departDelay="0.00" arrival="25338.00" arrivalLane="-41910186_0" arrivalPos="324.50" arrivalSpeed="11.40" duration="69.00" routeLength="571.64" waitingTime="9.00" waitingCount="1" stopTime="0.00" timeLoss="21.43" rerouteNo="0" devices="tripinfo_157767_421_0" vType="pkw" speedFactor="0.88" vaporized=""/>
    <tripinfo id="171899_426_0" depart="25303.00" departLane="-41910185#2_0" departPos="4.40" departSpeed="0.00" departDelay="0.00" arrival="25338.00" arrivalLane="-4045329#5_0" arrivalPos="121.37" arrivalSpeed="10.16" duration="35.00" routeLength="266.80" waitingTime="0.00" waitingCount="0" stopTime="0.00" timeLoss="4.17" rerouteNo="0" devices="tripinfo_171899_426_0" vType="pkw" speedFactor="0.82" vaporized=""/>
    <tripinfo id="172020_426_0" depart="25285.00" departLane="31864804_0" departPos="4.40" departSpeed="0.00" departDelay="0.00" arrival="25339.00" arrivalLane="4999331#0_0" arrivalPos="373.64" arrivalSpeed="13.98" duration="54.00" routeLength="492.92" waitingTime="0.00" waitingCount="0" stopTime="0.00" timeLoss="18.26" rerouteNo="0" devices="tripinfo_172020_426_0" vType="pkw" speedFactor="1.02" vaporized=""/>
    <tripinfo id="158876_421_0" depart="25255.00" departLane="319261593#12_0" departPos="4.40" departSpeed="0.00" departDelay="0.00" arrival="25341.00" arrivalLane="-31864804_0" arrivalPos="70.23" arrivalSpeed="12.89" duration="86.00" routeLength="352.97" waitingTime="37.00" waitingCount="3" stopTime="0.00" timeLoss="58.21" rerouteNo="0" devices="tripinfo_158876_421_0" vType="pkw" speedFactor="0.94" vaporized=""/>
    <tripinfo id="134193_411_0" depart="25298.00" departLane="31864804_0" departPos="4.40" departSpeed="0.00" departDelay="0.00" arrival="25342.00" arrivalLane="4999331#0_0" arrivalPos="373.64" arrivalSpeed="12.50" duration="44.00" routeLength="492.92" waitingTime="0.00" waitingCount="0" stopTime="0.00" timeLoss="6.60" rerouteNo="0" devices="tripinfo_134193_411_0" vType="pkw" speedFactor="0.96" vaporized=""/>
    <tripinfo id="174028_427_0" depart="25233.00" departLane="319261593#12_0" departPos="4.40" departSpeed="0.00" departDelay="1.00" arrival="25344.00" arrivalLane="4145590#0_0" arrivalPos="95.58" arrivalSpeed="12.46" duration="111.00" routeLength="408.95" waitingTime="56.00" waitingCount="3" stopTime="0.00" timeLoss="78.84" rerouteNo="0" devices="tripinfo_174028_427_0" vType="pkw" speedFactor="0.94" vaporized=""/>
    <tripinfo id="83081_390_0" depart="25228.00" departLane="31864804_0" departPos="4.40" departSpeed="0.00" departDelay="0.00" arrival="25345.00" arrivalLane="-4999334_0" arrivalPos="293.22" arrivalSpeed="12.94" duration="117.00" routeLength="688.22" waitingTime="46.00" waitingCount="2" stopTime="0.00" timeLoss="67.76" rerouteNo="0" devices="tripinfo_83081_390_0" vType="pkw" speedFactor="1.01" vaporized=""/>
    <tripinfo id="147727_416_0" depart="25301.00" departLane="41910184_0" departPos="4.40" departSpeed="0.00" departDelay="0.00" arrival="25345.00" arrivalLane="4145589#0_0" arrivalPos="149.75" arrivalSpeed="7.61" duration="44.00" routeLength="368.38" waitingTime="0.00" waitingCount="0" stopTime="0.00" timeLoss="9.22" rerouteNo="0" devices="tripinfo_147727_416_0" vType="pkw" speedFactor="1.00" vaporized=""/>
    <tripinfo id="149951_417_0" depart="25274.00" departLane="-130160207#0_0" departPos="4.40" departSpeed="0.00" departDelay="0.00" arrival="25346.00" arrivalLane="241660955#17_0" arrivalPos="110.13" arrivalSpeed="12.79" duration="72.00" routeLength="250.75" waitingTime="32.00" waitingCount="3" stopTime="0.00" timeLoss="45.63" rerouteNo="0" devices="tripinfo_149951_417_0" vType="pkw" speedFactor="0.93" vaporized=""/>
    <tripinfo id="85782_390_0" depart="25303.00" departLane="31864804_0" departPos="4.40" departSpeed="0.00" departDelay="3.00" arrival="25348.00" arrivalLane="4999331#0_1" arrivalPos="373.64" arrivalSpeed="14.81" duration="45.00" routeLength="492.92" waitingTime="4.00" waitingCount="1" stopTime="0.00" timeLoss="13.91" rerouteNo="0" devices="tripinfo_85782_390_0" vType="pkw" speedFactor="1.15" vaporized=""/>
    <tripinfo id="163790_422_0" depart="25264.00" departLane="-130160207#0_0" departPos="4.40" departSpeed="0.00" departDelay="0.00" arrival="25350.00" arrivalLane="130160207#0_0" arrivalPos="135.18" arrivalSpeed="7.85" duration="86.00" routeLength="270.63" waitingTime="37.00" waitingCount="3" stopTime="0.00" timeLoss="56.32" rerouteNo="0" devices="tripinfo_163790_422_0" vType="pkw" speedFactor="1.10" vaporized=""/>
    <tripinfo id="162714_422_0" depart="25301.00" departLane="4999334_0" departPos="4.40" departSpeed="0.00" departDelay="0.00" arrival="25351.00" arrivalLane="-4999334_0" arrivalPos="293.22" arrivalSpeed="12.68" duration="50.00" routeLength="586.71" waitingTime="0.00" waitingCount="0" stopTime="0.00" timeLoss="7.00" rerouteNo="0" devices="tripinfo_162714_422_0" vType="pkw" speedFactor="0.99" vaporized=""/>
    <tripinfo id="100929_396_0" depart="25233.00" departLane="-5229966#3_0" departPos="4.40" departSpeed="0.00" departDelay="0.00" arrival="25353.00" arrivalLane="4145590#0_0" arrivalPos="95.58" arrivalSpeed="14.83" duration="120.00" routeLength="453.70" waitingTime="73.00" waitingCount="2" stopTime="0.00" timeLoss="91.37" rerouteNo="0" devices="tripinfo_100929_396_0" vType="pkw" speedFactor="1.14" vaporized=""/>
    <tripinfo id="97604_395_0" depart="25295.00" departLane="319261593#12_0" departPos="4.40" departSpeed="0.00" departDelay="0.00" arrival="25354.00" arrivalLane="-31864804_0" arrivalPos="70.23" arrivalSpeed="14.41" duration="59.00" routeLength="367.00" waitingTime="11.00" waitingCount="2" stopTime="0.00" timeLoss="34.37" rerouteNo="0" devices="tripinfo_97604_395_0" vType="pkw" speedFactor="1.07" vaporized=""/>
    <tripinfo id="84339_390_0" depart="25298.00" departLane="319261593#12_0" departPos="4.40" departSpeed="0.00" departDelay="1.00" arrival="25354.00" arrivalLane="4145590#0_0" arrivalPos="95.58" arrivalSpeed="13.61" duration="56.00" routeLength="383.14" waitingTime="19.00" waitingCount="1" stopTime="0.00" timeLoss="29.82" rerouteNo="0" devices="tripinfo_84339_390_0" vType="pkw" speedFactor="1.07" vaporized=""/>
    <tripinfo id="149020_417_0" depart="25324.00" departLane="4999331#0_0" departPos="4.40" departSpeed="0.00" departDelay="1.00" arrival="25355.00" arrivalLane="4999331#0_0" arrivalPos="373.64" arrivalSpeed="14.18" duration="31.00" routeLength="369.24" waitingTime="0.00" waitingCount="0" stopTime="0.00" timeLoss="4.52" rerouteNo="0" devices="tripinfo_149020_417_0" vType="pkw" speedFactor="1.04" vaporized=""/>
    <tripinfo id="126024_407_0" depart="25301.00" departLane="319261593#12_0" departPos="4.40" departSpeed="0.00" departDelay="3.00" arrival="25356.00" arrivalLane="-31864804_0" arrivalPos="70.23" arrivalSpeed="14.23" duration="55.00" routeLength="367.00" waitingTime="10.00" waitingCount="1" stopTime="0.00" timeLoss="29.46" rerouteNo="0" devices="tripinfo_126024_407_0" vType="pkw" speedFactor="1.05" vaporized=""/>
    <tripinfo id="80569_388_0" depart="25309.00" departLane="319261593#12_0" departPos="4.40" departSpeed="0.00" departDelay="0.00" arrival="25356.00" arrivalLane="4145590#0_1" arrivalPos="95.58" arrivalSpeed="14.97" duration="47.00" routeLength="383.14" waitingTime="9.00" waitingCount="1" stopTime="0.00" timeLoss="20.87" rerouteNo="0" devices="tripinfo_80569_388_0" vType="pkw" speedFactor="1.08" vaporized=""/>