<?xml version="1.0" encoding="UTF-8"?>

<!-- generated on 2023-08-24 16:11:52 by Eclipse SUMO libsumo Version 1.18.0
<configuration xmlns:xsi="http://www.w3.org/2001/XMLSchema-instance" xsi:noNamespaceSchemaLocation="http://sumo.dlr.de/xsd/libsumoConfiguration.xsd">

    <input>
        <net-file value="/home/stefan/RESCO/./environments/cologne3/cologne3.net.xml"/>
        <route-files value="/home/stefan/RESCO/./environments/cologne3/cologne3.rou.xml"/>
    </input>

    <output>
        <tripinfo-output value="/home/stefan/results/IDDQN-tr0-cologne3-0-drq_norm-wait_norm/tripinfo_84.xml"/>
        <tripinfo-output.write-unfinished value="true"/>
    </output>

    <time>
        <begin value="25200"/>
        <end value="28800"/>
    </time>

    <processing>
        <time-to-teleport value="-1"/>
    </processing>

    <report>
        <no-warnings value="True"/>
        <no-step-log value="True"/>
    </report>

    <random_number>
        <random value="true"/>
    </random_number>

</configuration>
-->

<tripinfos xmlns:xsi="http://www.w3.org/2001/XMLSchema-instance" xsi:noNamespaceSchemaLocation="http://sumo.dlr.de/xsd/tripinfo_file.xsd">
    <tripinfo id="122325_406_0" depart="25208.00" departLane="319261593#12_0" departPos="4.40" departSpeed="0.00" departDelay="0.00" arrival="25238.00" arrivalLane="-31864804_0" arrivalPos="70.23" arrivalSpeed="13.96" duration="30.00" routeLength="352.97" waitingTime="0.00" waitingCount="0" stopTime="0.00" timeLoss="6.00" rerouteNo="0" devices="tripinfo_122325_406_0" vType="pkw" speedFactor="1.07" vaporized=""/>
    <tripinfo id="160296_421_0" depart="25211.00" departLane="241660955#13_0" departPos="4.40" departSpeed="0.00" departDelay="0.00" arrival="25245.00" arrivalLane="241660955#17_0" arrivalPos="110.13" arrivalSpeed="13.01" duration="34.00" routeLength="247.24" waitingTime="6.00" waitingCount="1" stopTime="0.00" timeLoss="14.58" rerouteNo="0" devices="tripinfo_160296_421_0" vType="pkw" speedFactor="0.94" vaporized=""/>
    <tripinfo id="98545_395_0" depart="25206.00" departLane="4045330_0" departPos="4.40" departSpeed="0.00" departDelay="0.00" arrival="25247.00" arrivalLane="241660955#17_0" arrivalPos="110.13" arrivalSpeed="14.29" duration="41.00" routeLength="473.04" waitingTime="0.00" waitingCount="0" stopTime="0.00" timeLoss="4.63" rerouteNo="0" devices="tripinfo_98545_395_0" vType="pkw" speedFactor="1.10" vaporized=""/>
    <tripinfo id="111294_401_0" depart="25211.00" departLane="-5229966#3_0" departPos="4.40" departSpeed="0.00" departDelay="0.00" arrival="25248.00" arrivalLane="4145590#0_0" arrivalPos="95.58" arrivalSpeed="16.05" duration="37.00" routeLength="453.70" waitingTime="0.00" waitingCount="0" stopTime="0.00" timeLoss="9.94" rerouteNo="0" devices="tripinfo_111294_401_0" vType="pkw" speedFactor="1.23" vaporized=""/>
    <tripinfo id="73223_384_0" depart="25204.00" departLane="241660957#0_0" departPos="4.40" departSpeed="0.00" departDelay="0.00" arrival="25251.00" arrivalLane="4999331#0_0" arrivalPos="373.64" arrivalSpeed="14.25" duration="47.00" routeLength="489.64" waitingTime="2.00" waitingCount="1" stopTime="0.00" timeLoss="12.14" rerouteNo="0" devices="tripinfo_73223_384_0" vType="pkw" speedFactor="1.04" vaporized=""/>
    <tripinfo id="163719_422_0" depart="25211.00" departLane="4045330_0" departPos="4.40" departSpeed="0.00" departDelay="0.00" arrival="25252.00" arrivalLane="241660955#17_0" arrivalPos="110.13" arrivalSpeed="15.46" duration="41.00" routeLength="473.04" waitingTime="0.00" waitingCount="0" stopTime="0.00" timeLoss="5.16" rerouteNo="0" devices="tripinfo_163719_422_0" vType="pkw" speedFactor="1.14" vaporized=""/>
    <tripinfo id="169122_425_0" depart="25228.00" departLane="-4999334_0" departPos="4.40" departSpeed="0.00" departDelay="0.00" arrival="25253.00" arrivalLane="-4999334_0" arrivalPos="293.22" arrivalSpeed="13.28" duration="25.00" routeLength="288.82" waitingTime="0.00" waitingCount="0" stopTime="0.00" timeLoss="3.82" rerouteNo="0" devices="tripinfo_169122_425_0" vType="pkw" speedFactor="0.99" vaporized=""/>
    <tripinfo id="73303_385_0" depart="25202.00" departLane="319261593#12_0" departPos="4.40" departSpeed="0.00" departDelay="0.00" arrival="25254.00" arrivalLane="4145590#0_0" arrivalPos="95.58" arrivalSpeed="12.28" duration="52.00" routeLength="408.95" waitingTime="9.00" waitingCount="1" stopTime="0.00" timeLoss="19.25" rerouteNo="0" devices="tripinfo_73303_385_0" vType="pkw" speedFactor="0.91" vaporized=""/>
    <tripinfo id="113109_402_0" depart="25203.00" departLane="4999334_0" departPos="4.40" departSpeed="0.00" departDelay="0.00" arrival="25254.00" arrivalLane="-31864804_0" arrivalPos="70.23" arrivalSpeed="14.15" duration="51.00" routeLength="615.92" waitingTime="0.00" waitingCount="0" stopTime="0.00" timeLoss="9.64" rerouteNo="0" devices="tripinfo_113109_402_0" vType="pkw" speedFactor="1.09" vaporized=""/>
    <tripinfo id="68266_381_0" depart="25229.00" departLane="4045329#5_0" departPos="4.40" departSpeed="0.00" departDelay="0.00" arrival="25257.00" arrivalLane="41910185#0_0" arrivalPos="127.86" arrivalSpeed="9.20" duration="28.00" routeLength="267.37" waitingTime="0.00" waitingCount="0" stopTime="0.00" timeLoss="4.62" rerouteNo="0" devices="tripinfo_68266_381_0" vType="pkw" speedFactor="1.11" vaporized=""/>
    <tripinfo id="141383_415_0" depart="25216.00" departLane="41910184_0" departPos="4.40" departSpeed="0.00" departDelay="0.00" arrival="25258.00" arrivalLane="4145589#0_0" arrivalPos="149.75" arrivalSpeed="7.81" duration="42.00" routeLength="368.38" waitingTime="0.00" waitingCount="0" stopTime="0.00" timeLoss="9.44" rerouteNo="0" devices="tripinfo_141383_415_0" vType="pkw" speedFactor="1.06" vaporized=""/>
    <tripinfo id="153968_420_0" depart="25227.00" departLane="319261593#12_0" departPos="4.40" departSpeed="0.00" departDelay="0.00" arrival="25260.00" arrivalLane="-31864804_0" arrivalPos="70.23" arrivalSpeed="12.32" duration="33.00" routeLength="352.97" waitingTime="0.00" waitingCount="0" stopTime="0.00" timeLoss="5.46" rerouteNo="0" devices="tripinfo_153968_420_0" vType="pkw" speedFactor="0.94" vaporized=""/>
    <tripinfo id="132667_410_0" depart="25212.00" departLane="-31800061#0_0" departPos="4.40" departSpeed="0.00" departDelay="0.00" arrival="25262.00" arrivalLane="-4999334_0" arrivalPos="293.22" arrivalSpeed="12.01" duration="50.00" routeLength="492.72" waitingTime="0.00" waitingCount="0" stopTime="0.00" timeLoss="7.07" rerouteNo="0" devices="tripinfo_132667_410_0" vType="pkw" speedFactor="0.95" vaporized=""/>
    <tripinfo id="157649_421_0" depart="25230.00" departLane="319261593#12_0" departPos="4.40" departSpeed="0.00" departDelay="1.00" arrival="25263.00" arrivalLane="-31864804_0" arrivalPos="70.23" arrivalSpeed="13.39" duration="33.00" routeLength="352.97" waitingTime="0.00" waitingCount="0" stopTime="0.00" timeLoss="6.48" rerouteNo="0" devices="tripinfo_157649_421_0" vType="pkw" speedFactor="0.98" vaporized=""/>
    <tripinfo id="140878_414_0" depart="25231.00" departLane="-130160207#0_0" departPos="4.40" departSpeed="0.00" departDelay="0.00" arrival="25264.00" arrivalLane="241660955#17_0" arrivalPos="110.13" arrivalSpeed="14.95" duration="33.00" routeLength="250.75" waitingTime="2.00" waitingCount="1" stopTime="0.00" timeLoss="11.11" rerouteNo="0" devices="tripinfo_140878_414_0" vType="pkw" speedFactor="1.13" vaporized=""/>
    <tripinfo id="140163_414_0" depart="25244.00" departLane="241660955#13_0" departPos="4.40" departSpeed="0.00" departDelay="0.00" arrival="25264.00" arrivalLane="-41910184_0" arrivalPos="185.90" arrivalSpeed="13.59" duration="20.00" routeLength="216.76" waitingTime="0.00" waitingCount="0" stopTime="0.00" timeLoss="3.94" rerouteNo="0" devices="tripinfo_140163_414_0" vType="pkw" speedFactor="1.01" vaporized=""/>
    <tripinfo id="120846_405_0" depart="25207.00" departLane="31864804_0" departPos="4.40" departSpeed="0.00" departDelay="0.00" arrival="25266.00" arrivalLane="-4999334_0" arrivalPos="293.22" arrivalSpeed="14.20" duration="59.00" routeLength="621.86" waitingTime="3.00" waitingCount="1" stopTime="0.00" timeLoss="14.83" rerouteNo="0" devices="tripinfo_120846_405_0" vType="pkw" speedFactor="1.03" vaporized=""/>
    <tripinfo id="163598_422_0" depart="25236.00" departLane="-130160207#0_0" departPos="4.40" departSpeed="0.00" departDelay="0.00" arrival="25266.00" arrivalLane="241660955#17_0" arrivalPos="110.13" arrivalSpeed="14.86" duration="30.00" routeLength="250.75" waitingTime="0.00" waitingCount="0" stopTime="0.00" timeLoss="7.28" rerouteNo="0" devices="tripinfo_163598_422_0" vType="pkw" speedFactor="1.09" vaporized=""/>
    <tripinfo id="81370_389_0" depart="25231.00" departLane="4045329#5_0" departPos="4.40" departSpeed="0.00" departDelay="0.00" arrival="25267.00" arrivalLane="-4045330_0" arrivalPos="128.76" arrivalSpeed="8.49" duration="36.00" routeLength="329.66" waitingTime="0.00" waitingCount="0" stopTime="0.00" timeLoss="6.41" rerouteNo="0" devices="tripinfo_81370_389_0" vType="pkw" speedFactor="1.05" vaporized=""/>
    <tripinfo id="118698_405_0" depart="25214.00" departLane="-5229966#3_0" departPos="4.40" departSpeed="0.00" departDelay="1.00" arrival="25270.00" arrivalLane="4145590#0_0" arrivalPos="95.58" arrivalSpeed="14.00" duration="56.00" routeLength="453.70" waitingTime="15.00" waitingCount="1" stopTime="0.00" timeLoss="25.55" rerouteNo="0" devices="tripinfo_118698_405_0" vType="pkw" speedFactor="1.08" vaporized=""/>
    <tripinfo id="132022_410_0" depart="25213.00" departLane="241660957#0_0" departPos="4.40" departSpeed="0.00" departDelay="0.00" arrival="25271.00" arrivalLane="4999331#0_0" arrivalPos="373.64" arrivalSpeed="13.75" duration="58.00" routeLength="489.64" waitingTime="13.00" waitingCount="1" stopTime="0.00" timeLoss="22.90" rerouteNo="0" devices="tripinfo_132022_410_0" vType="pkw" speedFactor="1.02" vaporized=""/>
    <tripinfo id="161160_421_0" depart="25225.00" departLane="241660957#0_0" departPos="4.40" departSpeed="0.00" departDelay="0.00" arrival="25271.00" arrivalLane="4999331#0_1" arrivalPos="373.64" arrivalSpeed="12.78" duration="46.00" routeLength="489.64" waitingTime="0.00" waitingCount="0" stopTime="0.00" timeLoss="10.33" rerouteNo="0" devices="tripinfo_161160_421_0" vType="pkw" speedFactor="1.01" vaporized=""/>
    <tripinfo id="132705_410_0" depart="25200.00" departLane="-5229966#3_0" departPos="4.40" departSpeed="0.00" departDelay="0.00" arrival="25274.00" arrivalLane="4045332#0_0" arrivalPos="114.41" arrivalSpeed="9.15" duration="74.00" routeLength="720.54" waitingTime="8.00" waitingCount="1" stopTime="0.00" timeLoss="22.91" rerouteNo="0" devices="tripinfo_132705_410_0" vType="pkw" speedFactor="1.15" vaporized=""/>
    <tripinfo id="131963_410_0" depart="25223.00" departLane="-31800061#0_0" departPos="4.40" departSpeed="0.00" departDelay="0.00" arrival="25274.00" arrivalLane="-4999334_0" arrivalPos="293.22" arrivalSpeed="12.79" duration="51.00" routeLength="492.72" waitingTime="0.00" waitingCount="0" stopTime="0.00" timeLoss="7.57" rerouteNo="0" devices="tripinfo_131963_410_0" vType="pkw" speedFactor="0.94" vaporized=""/>
    <tripinfo id="100929_396_0" depart="25233.00" departLane="-5229966#3_0" departPos="4.40" departSpeed="0.00" departDelay="0.00" arrival="25280.00" arrivalLane="4145590#0_0" arrivalPos="95.58" arrivalSpeed="13.70" duration="47.00" routeLength="453.70" waitingTime="2.00" waitingCount="1" stopTime="0.00" timeLoss="14.29" rerouteNo="0" devices="tripinfo_100929_396_0" vType="pkw" speedFactor="1.01" vaporized=""/>
    <tripinfo id="166826_424_0" depart="25240.00" departLane="41910184_0" departPos="4.40" departSpeed="0.00" departDelay="0.00" arrival="25280.00" arrivalLane="4145589#0_0" arrivalPos="149.75" arrivalSpeed="8.60" duration="40.00" routeLength="368.38" waitingTime="0.00" waitingCount="0" stopTime="0.00" timeLoss="7.16" rerouteNo="0" devices="tripinfo_166826_424_0" vType="pkw" speedFactor="1.04" vaporized=""/>
    <tripinfo id="149066_417_0" depart="25235.00" departLane="31864804_0" departPos="4.40" departSpeed="0.00" departDelay="0.00" arrival="25281.00" arrivalLane="4999331#0_0" arrivalPos="373.64" arrivalSpeed="13.48" duration="46.00" routeLength="492.92" waitingTime="0.00" waitingCount="0" stopTime="0.00" timeLoss="9.43" rerouteNo="0" devices="tripinfo_149066_417_0" vType="pkw" speedFactor="0.97" vaporized=""/>
    <tripinfo id="85241_390_0" depart="25243.00" departLane="41910184_0" departPos="4.40" departSpeed="0.00" departDelay="1.00" arrival="25283.00" arrivalLane="241660955#17_1" arrivalPos="110.13" arrivalSpeed="13.93" duration="40.00" routeLength="451.07" waitingTime="0.00" waitingCount="0" stopTime="0.00" timeLoss="7.04" rerouteNo="0" devices="tripinfo_85241_390_0" vType="pkw" speedFactor="1.01" vaporized=""/>
    <tripinfo id="141513_415_0" depart="25233.00" departLane="4999334_0" departPos="4.40" departSpeed="0.00" departDelay="0.00" arrival="25284.00" arrivalLane="4145590#0_1" arrivalPos="95.58" arrivalSpeed="16.68" duration="51.00" routeLength="615.60" waitingTime="1.00" waitingCount="1" stopTime="0.00" timeLoss="14.18" rerouteNo="0" devices="tripinfo_141513_415_0" vType="pkw" speedFactor="1.22" vaporized=""/>
    <tripinfo id="161841_421_0" depart="25244.00" departLane="31864804_0" departPos="4.40" departSpeed="0.00" departDelay="0.00" arrival="25285.00" arrivalLane="4999331#0_0" arrivalPos="373.64" arrivalSpeed="12.24" duration="41.00" routeLength="492.92" waitingTime="0.00" waitingCount="0" stopTime="0.00" timeLoss="4.34" rerouteNo="0" devices="tripinfo_161841_421_0" vType="pkw" speedFactor="0.97" vaporized=""/>
    <tripinfo id="158876_421_0" depart="25255.00" departLane="319261593#12_0" departPos="4.40" departSpeed="0.00" departDelay="0.00" arrival="25289.00" arrivalLane="-31864804_0" arrivalPos="70.23" arrivalSpeed="12.72" duration="34.00" routeLength="352.97" waitingTime="0.00" waitingCount="0" stopTime="0.00" timeLoss="6.06" rerouteNo="0" devices="tripinfo_158876_421_0" vType="pkw" speedFactor="0.92" vaporized=""/>
    <tripinfo id="111993_401_0" depart="25251.00" departLane="4045329#5_0" departPos="4.40" departSpeed="0.00" departDelay="0.00" arrival="25292.00" arrivalLane="41910185#0_0" arrivalPos="127.86" arrivalSpeed="7.58" duration="41.00" routeLength="267.37" waitingTime="7.00" waitingCount="1" stopTime="0.00" timeLoss="16.06" rerouteNo="0" devices="tripinfo_111993_401_0" vType="pkw" speedFactor="1.05" vaporized=""/>
    <tripinfo id="161578_421_0" depart="25266.00" departLane="-4999334_0" departPos="4.40" departSpeed="0.00" departDelay="3.00" arrival="25292.00" arrivalLane="-4999334_0" arrivalPos="293.22" arrivalSpeed="12.35" duration="26.00" routeLength="288.82" waitingTime="0.00" waitingCount="0" stopTime="0.00" timeLoss="3.67" rerouteNo="0" devices="tripinfo_161578_421_0" vType="pkw" speedFactor="0.96" vaporized=""/>
    <tripinfo id="100301_396_0" depart="25260.00" departLane="-241660955#17_0" departPos="4.40" departSpeed="0.00" departDelay="0.00" arrival="25293.00" arrivalLane="130160207#0_0" arrivalPos="135.18" arrivalSpeed="8.93" duration="33.00" routeLength="257.86" waitingTime="0.00" waitingCount="0" stopTime="0.00" timeLoss="9.07" rerouteNo="0" devices="tripinfo_100301_396_0" vType="pkw" speedFactor="1.08" vaporized=""/>
    <tripinfo id="160813_421_0" depart="25253.00" departLane="41910184_0" departPos="4.40" departSpeed="0.00" departDelay="0.00" arrival="25295.00" arrivalLane="4145589#0_0" arrivalPos="149.75" arrivalSpeed="7.78" duration="42.00" routeLength="368.38" waitingTime="0.00" waitingCount="0" stopTime="0.00" timeLoss="6.80" rerouteNo="0" devices="tripinfo_160813_421_0" vType="pkw" speedFactor="0.98" vaporized=""/>
    <tripinfo id="168647_425_0" depart="25268.00" departLane="-4999334_0" departPos="4.40" departSpeed="0.00" departDelay="2.00" arrival="25295.00" arrivalLane="-4999334_0" arrivalPos="293.22" arrivalSpeed="12.55" duration="27.00" routeLength="288.82" waitingTime="0.00" waitingCount="0" stopTime="0.00" timeLoss="4.81" rerouteNo="0" devices="tripinfo_168647_425_0" vType="pkw" speedFactor="0.95" vaporized=""/>
    <tripinfo id="163366_422_0" depart="25253.00" departLane="-130160207#0_0" departPos="4.40" departSpeed="0.00" departDelay="0.00" arrival="25296.00" arrivalLane="241660955#17_0" arrivalPos="110.13" arrivalSpeed="14.52" duration="43.00" routeLength="250.75" waitingTime="9.00" waitingCount="1" stopTime="0.00" timeLoss="20.57" rerouteNo="0" devices="tripinfo_163366_422_0" vType="pkw" speedFactor="1.12" vaporized=""/>
    <tripinfo id="83081_390_0" depart="25228.00" departLane="31864804_0" departPos="4.40" departSpeed="0.00" departDelay="0.00" arrival="25297.00" arrivalLane="-4999334_0" arrivalPos="293.22" arrivalSpeed="12.89" duration="69.00" routeLength="688.22" waitingTime="1.00" waitingCount="1" stopTime="0.00" timeLoss="16.06" rerouteNo="0" devices="tripinfo_83081_390_0" vType="pkw" speedFactor="0.95" vaporized=""/>
    <tripinfo id="155750_420_0" depart="25256.00" departLane="-130160207#0_0" departPos="4.40" departSpeed="0.00" departDelay="0.00" arrival="25298.00" arrivalLane="241660955#17_0" arrivalPos="110.13" arrivalSpeed="11.82" duration="42.00" routeLength="250.75" waitingTime="8.00" waitingCount="1" stopTime="0.00" timeLoss="15.87" rerouteNo="0" devices="tripinfo_155750_420_0" vType="pkw" speedFactor="0.93" vaporized=""/>
    <tripinfo id="174028_427_0" depart="25232.00" departLane="319261593#12_0" departPos="4.40" departSpeed="0.00" departDelay="0.00" arrival="25304.00" arrivalLane="4145590#0_0" arrivalPos="95.58" arrivalSpeed="13.18" duration="72.00" routeLength="408.95" waitingTime="27.00" waitingCount="1" stopTime="0.00" timeLoss="40.43" rerouteNo="0" devices="tripinfo_174028_427_0" vType="pkw" speedFactor="0.95" vaporized=""/>
    <tripinfo id="106913_399_0" depart="25201.00" departLane="31864804_0" departPos="4.40" departSpeed="0.00" departDelay="0.00" arrival="25306.00" arrivalLane="241660955#17_0" arrivalPos="110.13" arrivalSpeed="12.16" duration="105.00" routeLength="875.23" waitingTime="13.00" waitingCount="2" stopTime="0.00" timeLoss="34.64" rerouteNo="0" devices="tripinfo_106913_399_0" vType="pkw" speedFactor="0.91" vaporized=""/>
    <tripinfo id="118681_405_0" depart="25237.00" departLane="4999334_0" departPos="4.40" departSpeed="0.00" departDelay="0.00" arrival="25306.00" arrivalLane="-31864804_0" arrivalPos="70.23" arrivalSpeed="11.51" duration="69.00" routeLength="615.92" waitingTime="8.00" waitingCount="1" stopTime="0.00" timeLoss="17.42" rerouteNo="0" devices="tripinfo_118681_405_0" vType="pkw" speedFactor="0.87" vaporized=""/>
    <tripinfo id="79538_387_0" depart="25217.00" departLane="-5229966#3_0" departPos="4.40" departSpeed="0.00" departDelay="2.00" arrival="25307.00" arrivalLane="4999331#0_0" arrivalPos="373.64" arrivalSpeed="11.36" duration="90.00" routeLength="731.93" waitingTime="13.00" waitingCount="2" stopTime="0.00" timeLoss="27.81" rerouteNo="0" devices="tripinfo_79538_387_0" vType="pkw" speedFactor="0.86" vaporized=""/>
    <tripinfo id="137478_412_0" depart="25248.00" departLane="4045330_0" departPos="4.40" departSpeed="0.00" departDelay="0.00" arrival="25307.00" arrivalLane="241660955#17_1" arrivalPos="110.13" arrivalSpeed="10.66" duration="59.00" routeLength="473.04" waitingTime="2.00" waitingCount="1" stopTime="0.00" timeLoss="11.38" rerouteNo="0" devices="tripinfo_137478_412_0" vType="pkw" speedFactor="0.85" vaporized=""/>
    <tripinfo id="155359_420_0" depart="25288.00" departLane="31864804_0" departPos="4.40" departSpeed="0.00" departDelay="0.00" arrival="25307.00" arrivalLane="-31864804_1" arrivalPos="70.23" arrivalSpeed="12.34" duration="19.00" routeLength="140.71" waitingTime="0.00" waitingCount="0" stopTime="0.00" timeLoss="7.40" rerouteNo="0" devices="tripinfo_155359_420_0" vType="pkw" speedFactor="0.93" vaporized=""/>
    <tripinfo id="173797_427_0" depart="25226.00" departLane="-41910186_0" departPos="4.40" departSpeed="0.00" departDelay="0.00" arrival="25310.00" arrivalLane="4145590#0_1" arrivalPos="95.58" arrivalSpeed="11.23" duration="84.00" routeLength="894.77" waitingTime="0.00" waitingCount="0" stopTime="0.00" timeLoss="8.59" rerouteNo="0" devices="tripinfo_173797_427_0" vType="pkw" speedFactor="0.86" vaporized=""/>
    <tripinfo id="123109_406_0" depart="25260.00" departLane="241660957#0_0" departPos="4.40" departSpeed="0.00" departDelay="0.00" arrival="25312.00" arrivalLane="4999331#0_0" arrivalPos="373.64" arrivalSpeed="12.62" duration="52.00" routeLength="489.64" waitingTime="5.00" waitingCount="1" stopTime="0.00" timeLoss="14.94" rerouteNo="0" devices="tripinfo_123109_406_0" vType="pkw" speedFactor="0.96" vaporized=""/>
    <tripinfo id="126562_407_0" depart="25262.00" departLane="241660957#0_0" departPos="4.40" departSpeed="0.00" departDelay="0.00" arrival="25312.00" arrivalLane="4999331#0_1" arrivalPos="373.64" arrivalSpeed="12.40" duration="50.00" routeLength="489.64" waitingTime="3.00" waitingCount="1" stopTime="0.00" timeLoss="12.89" rerouteNo="0" devices="tripinfo_126562_407_0" vType="pkw" speedFactor="0.95" vaporized=""/>
    <tripinfo id="150954_418_0" depart="25249.00" departLane="-130160207#0_0" departPos="4.40" departSpeed="0.00" departDelay="0.00" arrival="25314.00" arrivalLane="-41910184_0" arrivalPos="185.90" arrivalSpeed="11.35" duration="65.00" routeLength="470.87" waitingTime="11.00" waitingCount="1" stopTime="0.00" timeLoss="19.36" rerouteNo="0" devices="tripinfo_150954_418_0" vType="pkw" speedFactor="0.90" vaporized=""/>
    <tripinfo id="149951_417_0" depart="25274.00" departLane="-130160207#0_0" departPos="4.40" departSpeed="0.00" departDelay="0.00" arrival="25315.00" arrivalLane="241660955#17_0" arrivalPos="110.13" arrivalSpeed="14.03" duration="41.00" routeLength="250.75" waitingTime="9.00" waitingCount="1" stopTime="0.00" timeLoss="17.39" rerouteNo="0" devices="tripinfo_149951_417_0" vType="pkw" speedFactor="1.03" vaporized=""/>
    <tripinfo id="169266_425_0" depart="25215.00" departLane="-31864804_0" departPos="4.40" departSpeed="0.00" departDelay="0.00" arrival="25316.00" arrivalLane="-41910184_0" arrivalPos="185.90" arrivalSpeed="16.90" duration="101.00" routeLength="1152.49" waitingTime="13.00" waitingCount="2" stopTime="0.00" timeLoss="33.55" rerouteNo="0" devices="tripinfo_169266_425_0" vType="pkw" speedFactor="1.24" vaporized=""/>
    <tripinfo id="76573_386_0" depart="25275.00" departLane="-241660955#17_0" departPos="4.40" departSpeed="0.00" departDelay="0.00" arrival="25317.00" arrivalLane="130160207#0_0" arrivalPos="135.18" arrivalSpeed="8.43" duration="42.00" routeLength="257.86" waitingTime="7.00" waitingCount="2" stopTime="0.00" timeLoss="17.19" rerouteNo="0" devices="tripinfo_76573_386_0" vType="pkw" speedFactor="1.04" vaporized=""/>
    <tripinfo id="71667_383_0" depart="25276.00" departLane="241660957#0_0" departPos="4.40" departSpeed="0.00" departDelay="0.00" arrival="25318.00" arrivalLane="4999331#0_0" arrivalPos="373.64" arrivalSpeed="15.35" duration="42.00" routeLength="489.64" waitingTime="0.00" waitingCount="0" stopTime="0.00" timeLoss="10.17" rerouteNo="0" devices="tripinfo_71667_383_0" vType="pkw" speedFactor="1.12" vaporized=""/>
    <tripinfo id="67548_381_0" depart="25289.00" departLane="-41910185#2_0" departPos="4.40" departSpeed="0.00" departDelay="1.00" arrival="25318.00" arrivalLane="241660955#10_0" arrivalPos="56.57" arrivalSpeed="10.06" duration="29.00" routeLength="191.84" waitingTime="0.00" waitingCount="0" stopTime="0.00" timeLoss="4.65" rerouteNo="0" devices="tripinfo_67548_381_0" vType="pkw" speedFactor="0.81" vaporized=""/>
    <tripinfo id="104671_398_0" depart="25286.00" departLane="-41910185#2_0" departPos="4.40" departSpeed="0.00" departDelay="0.00" arrival="25319.00" arrivalLane="241660955#11_0" arrivalPos="73.18" arrivalSpeed="13.23" duration="33.00" routeLength="279.28" waitingTime="0.00" waitingCount="0" stopTime="0.00" timeLoss="6.38" rerouteNo="0" devices="tripinfo_104671_398_0" vType="pkw" speedFactor="1.01" vaporized=""/>
    <tripinfo id="125978_406_0" depart="25249.00" departLane="-5229966#3_0" departPos="4.40" departSpeed="0.00" departDelay="0.00" arrival="25320.00" arrivalLane="4145590#0_0" arrivalPos="95.58" arrivalSpeed="13.40" duration="71.00" routeLength="453.70" waitingTime="22.00" waitingCount="2" stopTime="0.00" timeLoss="38.26" rerouteNo="0" devices="tripinfo_125978_406_0" vType="pkw" speedFactor="1.00" vaporized=""/>
    <tripinfo id="153005_419_0" depart="25270.00" departLane="41910184_0" departPos="4.40" departSpeed="0.00" departDelay="0.00" arrival="25323.00" arrivalLane="4145589#0_0" arrivalPos="149.75" arrivalSpeed="5.20" duration="53.00" routeLength="368.38" waitingTime="0.00" waitingCount="0" stopTime="0.00" timeLoss="8.12" rerouteNo="0" devices="tripinfo_153005_419_0" vType="pkw" speedFactor="0.76" vaporized=""/>
    <tripinfo id="163790_422_0" depart="25264.00" departLane="-130160207#0_0" departPos="4.40" departSpeed="0.00" departDelay="0.00" arrival="25324.00" arrivalLane="130160207#0_0" arrivalPos="135.18" arrivalSpeed="6.88" duration="60.00" routeLength="270.63" waitingTime="14.00" waitingCount="2" stopTime="0.00" timeLoss="23.80" rerouteNo="0" devices="tripinfo_163790_422_0" vType="pkw" speedFactor="0.92" vaporized=""/>
    <tripinfo id="97604_395_0" depart="25295.00" departLane="319261593#12_0" departPos="4.40" departSpeed="0.00" departDelay="0.00" arrival="25327.00" arrivalLane="-31864804_0" arrivalPos="70.23" arrivalSpeed="13.78" duration="32.00" routeLength="367.00" waitingTime="0.00" waitingCount="0" stopTime="0.00" timeLoss="5.23" rerouteNo="0" devices="tripinfo_97604_395_0" vType="pkw" speedFactor="1.02" vaporized=""/>
    <tripinfo id="148720_417_0" depart="25231.00" departLane="31864804_0" departPos="4.40" departSpeed="0.00" departDelay="2.00" arrival="25330.00" arrivalLane="-41910184_0" arrivalPos="185.90" arrivalSpeed="10.76" duration="99.00" routeLength="811.95" waitingTime="10.00" waitingCount="2" stopTime="0.00" timeLoss="25.72" rerouteNo="0" devices="tripinfo_148720_417_0" vType="pkw" speedFactor="0.80" vaporized=""/>
    <tripinfo id="147095_416_0" depart="25300.00" departLane="-130160207#0_0" departPos="4.40" departSpeed="0.00" departDelay="0.00" arrival="25330.00" arrivalLane="241660955#17_0" arrivalPos="110.13" arrivalSpeed="13.27" duration="30.00" routeLength="250.75" waitingTime="0.00" waitingCount="0" stopTime="0.00" timeLoss="4.19" rerouteNo="0" devices="tripinfo_147095_416_0" vType="pkw" speedFactor="0.97" vaporized=""/>
    <tripinfo id="134770_411_0" depart="25235.00" departLane="-31800061#0_0" departPos="4.40" departSpeed="0.00" departDelay="0.00" arrival="25331.00" arrivalLane="-41910184_0" arrivalPos="185.90" arrivalSpeed="13.44" duration="96.00" routeLength="682.81" waitingTime="19.00" waitingCount="2" stopTime="0.00" timeLoss="41.39" rerouteNo="0" devices="tripinfo_134770_411_0" vType="pkw" speedFactor="0.99" vaporized=""/>
    <tripinfo id="144088_416_0" depart="25303.00" departLane="241660955#6_0" departPos="4.40" departSpeed="0.00" departDelay="0.00" arrival="25332.00" arrivalLane="-4999334_0" arrivalPos="293.22" arrivalSpeed="14.88" duration="29.00" routeLength="357.51" waitingTime="0.00" waitingCount="0" stopTime="0.00" timeLoss="5.77" rerouteNo="0" devices="tripinfo_144088_416_0" vType="pkw" speedFactor="1.11" vaporized=""/>
    <tripinfo id="153704_420_0" depart="25240.00" departLane="-31800061#0_0" departPos="4.40" departSpeed="0.00" departDelay="0.00" arrival="25333.00" arrivalLane="-41910184_0" arrivalPos="185.90" arrivalSpeed="14.88" duration="93.00" routeLength="682.81" waitingTime="12.00" waitingCount="2" stopTime="0.00" timeLoss="42.48" rerouteNo="0" devices="tripinfo_153704_420_0" vType="pkw" speedFactor="1.08" vaporized=""/>
    <tripinfo id="143042_415_0" depart="25300.00" departLane="31864804_0" departPos="4.40" departSpeed="0.00" departDelay="0.00" arrival="25333.00" arrivalLane="4145590#0_0" arrivalPos="95.58" arrivalSpeed="15.51" duration="33.00" routeLength="195.56" waitingTime="9.00" waitingCount="1" stopTime="0.00" timeLoss="20.26" rerouteNo="0" devices="tripinfo_143042_415_0" vType="pkw" speedFactor="1.14" vaporized=""/>
    <tripinfo id="157767_421_0" depart="25269.00" departLane="31864804_0" departPos="4.40" departSpeed="0.00" departDelay="0.00" arrival="25334.00" arrivalLane="-41910186_0" arrivalPos="324.50" arrivalSpeed="12.79" duration="65.00" routeLength="571.64" waitingTime="10.00" waitingCount="1" stopTime="0.00" timeLoss="23.69" rerouteNo="0" devices="tripinfo_157767_421_0" vType="pkw" speedFactor="1.01" vaporized=""/>
    <tripinfo id="150860_418_0" depart="25276.00" departLane="31864804_0" departPos="4.40" departSpeed="0.00" departDelay="0.00" arrival="25334.00" arrivalLane="4999331#0_0" arrivalPos="373.64" arrivalSpeed="12.10" duration="58.00" routeLength="492.92" waitingTime="7.00" waitingCount="1" stopTime="0.00" timeLoss="17.58" rerouteNo="0" devices="tripinfo_150860_418_0" vType="pkw" speedFactor="0.88" vaporized=""/>
    <tripinfo id="172020_426_0" depart="25285.00" departLane="31864804_0" departPos="4.40" departSpeed="0.00" departDelay="0.00" arrival="25334.00" arrivalLane="4999331#0_1" arrivalPos="373.64" arrivalSpeed="12.97" duration="49.00" routeLength="492.92" waitingTime="0.00" waitingCount="0" stopTime="0.00" timeLoss="12.95" rerouteNo="0" devices="tripinfo_172020_426_0" vType="pkw" speedFactor="1.01" vaporized=""/>
    <tripinfo id="149148_417_0" depart="25279.00" departLane="-130160207#0_0" departPos="4.40" departSpeed="0.00" departDelay="0.00" arrival="25335.00" arrivalLane="-41910184_0" arrivalPos="185.90" arrivalSpeed="13.08" duration="56.00" routeLength="470.87" waitingTime="5.00" waitingCount="1" stopTime="0.00" timeLoss="13.74" rerouteNo="0" devices="tripinfo_149148_417_0" vType="pkw" speedFactor="0.96" vaporized=""/>