<?xml version="1.0" encoding="UTF-8"?>

<!-- generated on 2023-08-31 13:14:44 by Eclipse SUMO libsumo Version 1.18.0
<configuration xmlns:xsi="http://www.w3.org/2001/XMLSchema-instance" xsi:noNamespaceSchemaLocation="http://sumo.dlr.de/xsd/libsumoConfiguration.xsd">

    <input>
        <net-file value="/home/stefan/RESCO/./environments/cologne1/cologne1.net.xml"/>
        <route-files value="/home/stefan/RESCO/./environments/cologne1/cologne1.rou.xml"/>
    </input>

    <output>
        <tripinfo-output value="/home/stefan/results/RAINBOW-tr0-cologne1-0-drq_norm-wait_norm/tripinfo_29.xml"/>
        <tripinfo-output.write-unfinished value="true"/>
    </output>

    <time>
        <begin value="25200"/>
        <end value="28800"/>
    </time>

    <processing>
        <time-to-teleport value="-1"/>
    </processing>

    <report>
        <no-warnings value="True"/>
        <no-step-log value="True"/>
    </report>

    <random_number>
        <random value="true"/>
    </random_number>

</configuration>
-->

<tripinfos xmlns:xsi="http://www.w3.org/2001/XMLSchema-instance" xsi:noNamespaceSchemaLocation="http://sumo.dlr.de/xsd/tripinfo_file.xsd">
    <tripinfo id="124779_406_0" depart="25205.00" departLane="28198821#3_0" departPos="4.40" departSpeed="0.00" departDelay="0.00" arrival="25229.00" arrivalLane="32038051#0_1" arrivalPos="89.25" arrivalSpeed="20.87" duration="24.00" routeLength="170.57" waitingTime="4.00" waitingCount="1" stopTime="0.00" timeLoss="14.08" rerouteNo="0" devices="tripinfo_124779_406_0 routing_124779_406_0" vType="pkw" speedFactor="1.08" vaporized=""/>
    <tripinfo id="151372_418_0" depart="25207.00" departLane="130165204_0" departPos="4.40" departSpeed="0.00" departDelay="0.00" arrival="25238.00" arrivalLane="32038051#0_1" arrivalPos="89.25" arrivalSpeed="20.69" duration="31.00" routeLength="410.03" waitingTime="0.00" waitingCount="0" stopTime="0.00" timeLoss="6.85" rerouteNo="1" devices="tripinfo_151372_418_0 routing_151372_418_0" vType="pkw" speedFactor="1.09" vaporized=""/>
    <tripinfo id="98305_395_0" depart="25211.00" departLane="28198821#3_0" departPos="4.40" departSpeed="0.00" departDelay="0.00" arrival="25250.00" arrivalLane="32038051#0_1" arrivalPos="89.25" arrivalSpeed="19.62" duration="39.00" routeLength="170.57" waitingTime="17.00" waitingCount="1" stopTime="0.00" timeLoss="28.36" rerouteNo="0" devices="tripinfo_98305_395_0 routing_98305_395_0" vType="pkw" speedFactor="1.02" vaporized=""/>
    <tripinfo id="102535_396_0" depart="25218.00" departLane="28198821#3_0" departPos="4.40" departSpeed="0.00" departDelay="0.00" arrival="25251.00" arrivalLane="32038051#0_1" arrivalPos="89.25" arrivalSpeed="20.11" duration="33.00" routeLength="170.57" waitingTime="12.00" waitingCount="1" stopTime="0.00" timeLoss="23.20" rerouteNo="0" devices="tripinfo_102535_396_0 routing_102535_396_0" vType="pkw" speedFactor="1.06" vaporized=""/>
    <tripinfo id="147209_416_0" depart="25220.00" departLane="28198821#3_0" departPos="4.40" departSpeed="0.00" departDelay="0.00" arrival="25253.00" arrivalLane="32038051#0_1" arrivalPos="89.25" arrivalSpeed="18.33" duration="33.00" routeLength="170.57" waitingTime="10.00" waitingCount="1" stopTime="0.00" timeLoss="21.86" rerouteNo="0" devices="tripinfo_147209_416_0 routing_147209_416_0" vType="pkw" speedFactor="0.97" vaporized=""/>
    <tripinfo id="149029_417_0" depart="25236.00" departLane="27115123#2_0" departPos="4.40" departSpeed="0.00" departDelay="0.00" arrival="25259.00" arrivalLane="32038051#0_1" arrivalPos="89.25" arrivalSpeed="17.75" duration="23.00" routeLength="196.41" waitingTime="1.00" waitingCount="1" stopTime="0.00" timeLoss="11.78" rerouteNo="1" devices="tripinfo_149029_417_0 routing_149029_417_0" vType="pkw" speedFactor="0.95" vaporized=""/>
    <tripinfo id="91582_392_0" depart="25221.00" departLane="-32038056#3_0" departPos="4.40" departSpeed="0.00" departDelay="3.00" arrival="25266.00" arrivalLane="32324544#0_1" arrivalPos="90.48" arrivalSpeed="15.09" duration="45.00" routeLength="465.51" waitingTime="0.00" waitingCount="0" stopTime="0.00" timeLoss="4.59" rerouteNo="0" devices="tripinfo_91582_392_0 routing_91582_392_0" vType="pkw" speedFactor="0.79" vaporized=""/>
    <tripinfo id="121258_405_0" depart="25240.00" departLane="23429231#1_0" departPos="4.40" departSpeed="0.00" departDelay="0.00" arrival="25283.00" arrivalLane="32038051#0_0" arrivalPos="89.25" arrivalSpeed="18.02" duration="43.00" routeLength="203.79" waitingTime="20.00" waitingCount="1" stopTime="0.00" timeLoss="31.50" rerouteNo="0" devices="tripinfo_121258_405_0 routing_121258_405_0" vType="pkw" speedFactor="0.96" vaporized=""/>
    <tripinfo id="126742_407_0" depart="25243.00" departLane="23429231#1_0" departPos="4.40" departSpeed="0.00" departDelay="3.00" arrival="25283.00" arrivalLane="32038051#0_1" arrivalPos="89.25" arrivalSpeed="21.86" duration="40.00" routeLength="203.79" waitingTime="16.00" waitingCount="1" stopTime="0.00" timeLoss="30.42" rerouteNo="0" devices="tripinfo_126742_407_0 routing_126742_407_0" vType="pkw" speedFactor="1.18" vaporized=""/>
    <tripinfo id="102501_396_0" depart="25245.00" departLane="23429231#1_0" departPos="4.40" departSpeed="0.00" departDelay="1.00" arrival="25284.00" arrivalLane="32038051#0_0" arrivalPos="89.25" arrivalSpeed="19.41" duration="39.00" routeLength="203.79" waitingTime="14.00" waitingCount="1" stopTime="0.00" timeLoss="28.50" rerouteNo="0" devices="tripinfo_102501_396_0 routing_102501_396_0" vType="pkw" speedFactor="1.01" vaporized=""/>
    <tripinfo id="113509_402_0" depart="25251.00" departLane="23429231#1_0" departPos="4.40" departSpeed="0.00" departDelay="3.00" arrival="25285.00" arrivalLane="-28198821#4_1" arrivalPos="57.10" arrivalSpeed="11.03" duration="34.00" routeLength="179.90" waitingTime="9.00" waitingCount="1" stopTime="0.00" timeLoss="21.17" rerouteNo="0" devices="tripinfo_113509_402_0 routing_113509_402_0" vType="pkw" speedFactor="0.85" vaporized=""/>
    <tripinfo id="120663_405_0" depart="25248.00" departLane="23429231#1_0" departPos="4.40" departSpeed="0.00" departDelay="2.00" arrival="25286.00" arrivalLane="32038051#0_0" arrivalPos="89.25" arrivalSpeed="17.74" duration="38.00" routeLength="203.79" waitingTime="13.00" waitingCount="1" stopTime="0.00" timeLoss="27.97" rerouteNo="0" devices="tripinfo_120663_405_0 routing_120663_405_0" vType="pkw" speedFactor="1.08" vaporized=""/>
    <tripinfo id="130147_409_0" depart="25254.00" departLane="23429231#1_0" departPos="4.40" departSpeed="0.00" departDelay="3.00" arrival="25286.00" arrivalLane="32038051#0_1" arrivalPos="89.25" arrivalSpeed="17.48" duration="32.00" routeLength="203.79" waitingTime="8.00" waitingCount="1" stopTime="0.00" timeLoss="20.25" rerouteNo="0" devices="tripinfo_130147_409_0 routing_130147_409_0" vType="pkw" speedFactor="0.93" vaporized=""/>
    <tripinfo id="123965_406_0" depart="25218.00" departLane="-32038056#3_0" departPos="4.40" departSpeed="0.00" departDelay="0.00" arrival="25293.00" arrivalLane="-28198821#4_0" arrivalPos="57.10" arrivalSpeed="11.93" duration="75.00" routeLength="437.47" waitingTime="30.00" waitingCount="1" stopTime="0.00" timeLoss="40.04" rerouteNo="0" devices="tripinfo_123965_406_0 routing_123965_406_0" vType="pkw" speedFactor="0.91" vaporized=""/>
    <tripinfo id="160150_421_0" depart="25223.00" departLane="-32038056#3_0" departPos="4.40" departSpeed="0.00" departDelay="4.00" arrival="25294.00" arrivalLane="32038051#0_0" arrivalPos="89.25" arrivalSpeed="18.24" duration="71.00" routeLength="446.95" waitingTime="27.00" waitingCount="1" stopTime="0.00" timeLoss="39.03" rerouteNo="0" devices="tripinfo_160150_421_0 routing_160150_421_0" vType="pkw" speedFactor="0.97" vaporized=""/>
    <tripinfo id="162814_422_0" depart="25233.00" departLane="-32038056#3_0" departPos="4.40" departSpeed="0.00" departDelay="0.00" arrival="25296.00" arrivalLane="32038051#0_0" arrivalPos="89.25" arrivalSpeed="19.10" duration="63.00" routeLength="446.95" waitingTime="20.00" waitingCount="1" stopTime="0.00" timeLoss="32.19" rerouteNo="0" devices="tripinfo_162814_422_0 routing_162814_422_0" vType="pkw" speedFactor="1.01" vaporized=""/>
    <tripinfo id="130602_409_0" depart="25268.00" departLane="-32038056#3_0" departPos="4.40" departSpeed="0.00" departDelay="0.00" arrival="25319.00" arrivalLane="-28198821#4_0" arrivalPos="57.10" arrivalSpeed="11.64" duration="51.00" routeLength="437.47" waitingTime="4.00" waitingCount="1" stopTime="0.00" timeLoss="14.36" rerouteNo="0" devices="tripinfo_130602_409_0 routing_130602_409_0" vType="pkw" speedFactor="0.88" vaporized=""/>
    <tripinfo id="128446_408_0" depart="25273.00" departLane="-32038056#3_0" departPos="4.40" departSpeed="0.00" departDelay="0.00" arrival="25320.00" arrivalLane="32324544#0_1" arrivalPos="90.48" arrivalSpeed="16.96" duration="47.00" routeLength="465.51" waitingTime="2.00" waitingCount="1" stopTime="0.00" timeLoss="11.34" rerouteNo="0" devices="tripinfo_128446_408_0 routing_128446_408_0" vType="pkw" speedFactor="0.90" vaporized=""/>
    <tripinfo id="83516_390_0" depart="25275.00" departLane="-32038056#3_0" departPos="4.40" departSpeed="0.00" departDelay="0.00" arrival="25321.00" arrivalLane="32324544#0_1" arrivalPos="90.48" arrivalSpeed="17.92" duration="46.00" routeLength="465.51" waitingTime="0.00" waitingCount="0" stopTime="0.00" timeLoss="12.10" rerouteNo="0" devices="tripinfo_83516_390_0 routing_83516_390_0" vType="pkw" speedFactor="0.93" vaporized=""/>
    <tripinfo id="113303_402_0" depart="25283.00" departLane="-32038056#3_0" departPos="4.40" departSpeed="0.00" departDelay="0.00" arrival="25323.00" arrivalLane="32324544#0_1" arrivalPos="90.48" arrivalSpeed="19.33" duration="40.00" routeLength="465.51" waitingTime="0.00" waitingCount="0" stopTime="0.00" timeLoss="8.16" rerouteNo="0" devices="tripinfo_113303_402_0 routing_113303_402_0" vType="pkw" speedFactor="1.00" vaporized=""/>
    <tripinfo id="115444_403_0" depart="25294.00" departLane="28198821#3_0" departPos="4.40" departSpeed="0.00" departDelay="0.00" arrival="25323.00" arrivalLane="32038051#0_1" arrivalPos="89.25" arrivalSpeed="18.25" duration="29.00" routeLength="170.57" waitingTime="6.00" waitingCount="2" stopTime="0.00" timeLoss="18.62" rerouteNo="0" devices="tripinfo_115444_403_0 routing_115444_403_0" vType="pkw" speedFactor="0.98" vaporized=""/>
    <tripinfo id="103540_397_0" depart="25300.00" departLane="28198821#3_0" departPos="4.40" departSpeed="0.00" departDelay="0.00" arrival="25325.00" arrivalLane="32038051#0_1" arrivalPos="89.25" arrivalSpeed="18.94" duration="25.00" routeLength="170.57" waitingTime="0.00" waitingCount="0" stopTime="0.00" timeLoss="14.73" rerouteNo="0" devices="tripinfo_103540_397_0 routing_103540_397_0" vType="pkw" speedFactor="1.04" vaporized=""/>
    <tripinfo id="162096_421_0" depart="25306.00" departLane="130165204_0" departPos="4.40" departSpeed="0.00" departDelay="0.00" arrival="25340.00" arrivalLane="32038051#0_1" arrivalPos="89.25" arrivalSpeed="18.73" duration="34.00" routeLength="410.03" waitingTime="0.00" waitingCount="0" stopTime="0.00" timeLoss="7.05" rerouteNo="1" devices="tripinfo_162096_421_0 routing_162096_421_0" vType="pkw" speedFactor="1.00" vaporized=""/>
    <tripinfo id="136082_411_0" depart="25278.00" departLane="-32038056#3_0" departPos="4.40" departSpeed="0.00" departDelay="1.00" arrival="25348.00" arrivalLane="32038051#0_0" arrivalPos="89.25" arrivalSpeed="20.52" duration="70.00" routeLength="446.95" waitingTime="30.00" waitingCount="2" stopTime="0.00" timeLoss="45.20" rerouteNo="0" devices="tripinfo_136082_411_0 routing_136082_411_0" vType="pkw" speedFactor="1.24" vaporized=""/>
    <tripinfo id="137244_412_0" depart="25298.00" departLane="-32038056#3_0" departPos="4.40" departSpeed="0.00" departDelay="4.00" arrival="25349.00" arrivalLane="-28198821#4_1" arrivalPos="57.10" arrivalSpeed="10.34" duration="51.00" routeLength="437.47" waitingTime="2.00" waitingCount="1" stopTime="0.00" timeLoss="10.95" rerouteNo="0" devices="tripinfo_137244_412_0 routing_137244_412_0" vType="pkw" speedFactor="0.79" vaporized=""/>
    <tripinfo id="175147_428_0" depart="25324.00" departLane="130165204_0" departPos="4.40" departSpeed="0.00" departDelay="0.00" arrival="25369.00" arrivalLane="32038051#0_1" arrivalPos="89.25" arrivalSpeed="17.64" duration="45.00" routeLength="410.03" waitingTime="5.00" waitingCount="1" stopTime="0.00" timeLoss="17.15" rerouteNo="1" devices="tripinfo_175147_428_0 routing_175147_428_0" vType="pkw" speedFactor="0.97" vaporized=""/>
    <tripinfo id="161721_421_0" depart="25337.00" departLane="130165204_0" departPos="4.40" departSpeed="0.00" departDelay="0.00" arrival="25373.00" arrivalLane="32038051#0_1" arrivalPos="89.25" arrivalSpeed="17.29" duration="36.00" routeLength="410.03" waitingTime="0.00" waitingCount="0" stopTime="0.00" timeLoss="6.46" rerouteNo="1" devices="tripinfo_161721_421_0 routing_161721_421_0" vType="pkw" speedFactor="0.91" vaporized=""/>
    <tripinfo id="85818_390_0" depart="25281.00" departLane="-32038056#3_0" departPos="4.40" departSpeed="0.00" departDelay="1.00" arrival="25378.00" arrivalLane="32038051#0_0" arrivalPos="89.25" arrivalSpeed="16.14" duration="97.00" routeLength="446.95" waitingTime="49.00" waitingCount="2" stopTime="0.00" timeLoss="62.57" rerouteNo="0" devices="tripinfo_85818_390_0 routing_85818_390_0" vType="pkw" speedFactor="0.88" vaporized=""/>
    <tripinfo id="142412_415_0" depart="25307.00" departLane="-32038056#3_0" departPos="4.40" departSpeed="0.00" departDelay="0.00" arrival="25378.00" arrivalLane="-28198821#4_0" arrivalPos="57.10" arrivalSpeed="12.89" duration="71.00" routeLength="437.47" waitingTime="26.00" waitingCount="2" stopTime="0.00" timeLoss="39.63" rerouteNo="0" devices="tripinfo_142412_415_0 routing_142412_415_0" vType="pkw" speedFactor="1.01" vaporized=""/>
    <tripinfo id="102630_396_0" depart="25256.00" departLane="23429231#1_0" departPos="4.40" departSpeed="0.00" departDelay="4.00" arrival="25403.00" arrivalLane="32038051#0_0" arrivalPos="89.25" arrivalSpeed="17.05" duration="147.00" routeLength="203.79" waitingTime="118.00" waitingCount="2" stopTime="0.00" timeLoss="136.65" rerouteNo="0" devices="tripinfo_102630_396_0 routing_102630_396_0" vType="pkw" speedFactor="1.05" vaporized=""/>
    <tripinfo id="122376_406_0" depart="25259.00" departLane="23429231#1_0" departPos="4.40" departSpeed="0.00" departDelay="5.00" arrival="25403.00" arrivalLane="32038051#0_1" arrivalPos="89.25" arrivalSpeed="17.89" duration="144.00" routeLength="203.79" waitingTime="114.00" waitingCount="2" stopTime="0.00" timeLoss="132.25" rerouteNo="0" devices="tripinfo_122376_406_0 routing_122376_406_0" vType="pkw" speedFactor="0.94" vaporized=""/>
    <tripinfo id="148629_417_0" depart="25284.00" departLane="27115123#2_0" departPos="4.40" departSpeed="0.00" departDelay="0.00" arrival="25404.00" arrivalLane="32324544#0_0" arrivalPos="90.48" arrivalSpeed="16.84" duration="120.00" routeLength="198.06" waitingTime="95.00" waitingCount="1" stopTime="0.00" timeLoss="107.36" rerouteNo="1" devices="tripinfo_148629_417_0 routing_148629_417_0" vType="pkw" speedFactor="0.87" vaporized=""/>
    <tripinfo id="122194_406_0" depart="25262.00" departLane="23429231#1_0" departPos="4.40" departSpeed="0.00" departDelay="7.00" arrival="25405.00" arrivalLane="32038051#0_0" arrivalPos="89.25" arrivalSpeed="17.30" duration="143.00" routeLength="203.79" waitingTime="113.00" waitingCount="2" stopTime="0.00" timeLoss="130.52" rerouteNo="0" devices="tripinfo_122194_406_0 routing_122194_406_0" vType="pkw" speedFactor="0.90" vaporized=""/>
    <tripinfo id="135103_411_0" depart="25265.00" departLane="23429231#1_0" departPos="4.40" departSpeed="0.00" departDelay="9.00" arrival="25405.00" arrivalLane="32038051#0_1" arrivalPos="89.25" arrivalSpeed="20.37" duration="140.00" routeLength="203.79" waitingTime="109.00" waitingCount="1" stopTime="0.00" timeLoss="129.63" rerouteNo="0" devices="tripinfo_135103_411_0 routing_135103_411_0" vType="pkw" speedFactor="1.07" vaporized=""/>
    <tripinfo id="152958_419_0" depart="25268.00" departLane="23429231#1_0" departPos="4.40" departSpeed="0.00" departDelay="11.00" arrival="25407.00" arrivalLane="32038051#0_0" arrivalPos="89.25" arrivalSpeed="13.39" duration="139.00" routeLength="203.79" waitingTime="108.00" waitingCount="1" stopTime="0.00" timeLoss="124.40" rerouteNo="0" devices="tripinfo_152958_419_0 routing_152958_419_0" vType="pkw" speedFactor="0.74" vaporized=""/>
    <tripinfo id="125613_406_0" depart="25270.00" departLane="23429231#1_0" departPos="4.40" departSpeed="0.00" departDelay="12.00" arrival="25407.00" arrivalLane="32038051#0_1" arrivalPos="89.25" arrivalSpeed="17.89" duration="137.00" routeLength="203.79" waitingTime="108.00" waitingCount="1" stopTime="0.00" timeLoss="124.85" rerouteNo="0" devices="tripinfo_125613_406_0 routing_125613_406_0" vType="pkw" speedFactor="0.93" vaporized=""/>
    <tripinfo id="86583_391_0" depart="25289.00" departLane="-32038056#3_0" departPos="4.40" departSpeed="0.00" departDelay="0.00" arrival="25442.00" arrivalLane="32038051#0_0" arrivalPos="89.25" arrivalSpeed="20.21" duration="153.00" routeLength="446.95" waitingTime="106.00" waitingCount="3" stopTime="0.00" timeLoss="125.62" rerouteNo="0" devices="tripinfo_86583_391_0 routing_86583_391_0" vType="pkw" speedFactor="1.13" vaporized=""/>
    <tripinfo id="138220_412_0" depart="25309.00" departLane="-32038056#3_0" departPos="4.40" departSpeed="0.00" departDelay="0.00" arrival="25442.00" arrivalLane="-28198821#4_1" arrivalPos="57.10" arrivalSpeed="14.17" duration="133.00" routeLength="437.47" waitingTime="83.00" waitingCount="3" stopTime="0.00" timeLoss="104.09" rerouteNo="0" devices="tripinfo_138220_412_0 routing_138220_412_0" vType="pkw" speedFactor="1.10" vaporized=""/>
    <tripinfo id="120878_405_0" depart="25291.00" departLane="-32038056#3_0" departPos="4.40" departSpeed="0.00" departDelay="0.00" arrival="25444.00" arrivalLane="32038051#0_0" arrivalPos="89.25" arrivalSpeed="16.70" duration="153.00" routeLength="446.95" waitingTime="99.00" waitingCount="4" stopTime="0.00" timeLoss="118.62" rerouteNo="0" devices="tripinfo_120878_405_0 routing_120878_405_0" vType="pkw" speedFactor="0.89" vaporized=""/>
    <tripinfo id="130372_409_0" depart="25330.00" departLane="-32038056#3_0" departPos="4.40" departSpeed="0.00" departDelay="3.00" arrival="25444.00" arrivalLane="32324544#0_1" arrivalPos="90.48" arrivalSpeed="21.50" duration="114.00" routeLength="465.51" waitingTime="70.00" waitingCount="2" stopTime="0.00" timeLoss="86.27" rerouteNo="0" devices="tripinfo_130372_409_0 routing_130372_409_0" vType="pkw" speedFactor="1.14" vaporized=""/>
    <tripinfo id="85922_391_0" depart="25295.00" departLane="-32038056#3_0" departPos="4.40" departSpeed="0.00" departDelay="2.00" arrival="25446.00" arrivalLane="32038051#0_0" arrivalPos="89.25" arrivalSpeed="17.73" duration="151.00" routeLength="446.95" waitingTime="96.00" waitingCount="3" stopTime="0.00" timeLoss="119.46" rerouteNo="0" devices="tripinfo_85922_391_0 routing_85922_391_0" vType="pkw" speedFactor="0.98" vaporized=""/>
    <tripinfo id="167799_425_0" depart="25327.00" departLane="-32038056#3_0" departPos="4.40" departSpeed="0.00" departDelay="0.00" arrival="25446.00" arrivalLane="-28198821#4_1" arrivalPos="57.10" arrivalSpeed="12.69" duration="119.00" routeLength="437.47" waitingTime="69.00" waitingCount="2" stopTime="0.00" timeLoss="85.51" rerouteNo="0" devices="tripinfo_167799_425_0 routing_167799_425_0" vType="pkw" speedFactor="0.97" vaporized=""/>
    <tripinfo id="104806_398_0" depart="25333.00" departLane="-32038056#3_0" departPos="4.40" departSpeed="0.00" departDelay="4.00" arrival="25448.00" arrivalLane="32324544#0_1" arrivalPos="90.48" arrivalSpeed="19.19" duration="115.00" routeLength="465.51" waitingTime="67.00" waitingCount="2" stopTime="0.00" timeLoss="84.02" rerouteNo="0" devices="tripinfo_104806_398_0 routing_104806_398_0" vType="pkw" speedFactor="1.03" vaporized=""/>
    <tripinfo id="122154_406_0" depart="25337.00" departLane="-32038056#3_0" departPos="4.40" departSpeed="0.00" departDelay="0.00" arrival="25462.00" arrivalLane="-28198821#4_0" arrivalPos="57.10" arrivalSpeed="14.35" duration="125.00" routeLength="437.47" waitingTime="73.00" waitingCount="3" stopTime="0.00" timeLoss="94.87" rerouteNo="0" devices="tripinfo_122154_406_0 routing_122154_406_0" vType="pkw" speedFactor="1.07" vaporized=""/>
    <tripinfo id="118963_405_0" depart="25304.00" departLane="-32038056#3_0" departPos="4.40" departSpeed="0.00" departDelay="0.00" arrival="25463.00" arrivalLane="32038051#0_0" arrivalPos="89.25" arrivalSpeed="15.48" duration="159.00" routeLength="446.95" waitingTime="93.00" waitingCount="4" stopTime="0.00" timeLoss="121.56" rerouteNo="0" devices="tripinfo_118963_405_0 routing_118963_405_0" vType="pkw" speedFactor="0.82" vaporized=""/>
    <tripinfo id="136152_411_0" depart="25313.00" departLane="-32038056#3_0" departPos="4.40" departSpeed="0.00" departDelay="0.00" arrival="25464.00" arrivalLane="32038051#0_0" arrivalPos="89.25" arrivalSpeed="17.66" duration="151.00" routeLength="446.95" waitingTime="92.00" waitingCount="5" stopTime="0.00" timeLoss="124.93" rerouteNo="0" devices="tripinfo_136152_411_0 routing_136152_411_0" vType="pkw" speedFactor="1.16" vaporized=""/>
    <tripinfo id="135138_411_0" depart="25350.00" departLane="-32038056#3_0" departPos="4.40" departSpeed="0.00" departDelay="1.00" arrival="25464.00" arrivalLane="-28198821#4_1" arrivalPos="57.10" arrivalSpeed="13.76" duration="114.00" routeLength="437.47" waitingTime="62.00" waitingCount="2" stopTime="0.00" timeLoss="82.52" rerouteNo="0" devices="tripinfo_135138_411_0 routing_135138_411_0" vType="pkw" speedFactor="1.02" vaporized=""/>
    <tripinfo id="121091_405_0" depart="25345.00" departLane="-32038056#3_0" departPos="4.40" departSpeed="0.00" departDelay="0.00" arrival="25466.00" arrivalLane="32038051#0_0" arrivalPos="89.25" arrivalSpeed="19.46" duration="121.00" routeLength="446.95" waitingTime="66.00" waitingCount="3" stopTime="0.00" timeLoss="91.75" rerouteNo="0" devices="tripinfo_121091_405_0 routing_121091_405_0" vType="pkw" speedFactor="1.05" vaporized=""/>
    <tripinfo id="150753_418_0" depart="25353.00" departLane="-32038056#3_0" departPos="4.40" departSpeed="0.00" departDelay="2.00" arrival="25468.00" arrivalLane="32324544#0_1" arrivalPos="90.48" arrivalSpeed="15.99" duration="115.00" routeLength="465.51" waitingTime="57.00" waitingCount="2" stopTime="0.00" timeLoss="77.54" rerouteNo="0" devices="tripinfo_150753_418_0 routing_150753_418_0" vType="pkw" speedFactor="0.84" vaporized=""/>
    <tripinfo id="148536_417_0" depart="25362.00" departLane="-32038056#3_0" departPos="4.40" departSpeed="0.00" departDelay="1.00" arrival="25470.00" arrivalLane="32324544#0_1" arrivalPos="90.48" arrivalSpeed="19.67" duration="108.00" routeLength="465.51" waitingTime="54.00" waitingCount="2" stopTime="0.00" timeLoss="76.55" rerouteNo="0" devices="tripinfo_148536_417_0 routing_148536_417_0" vType="pkw" speedFactor="1.02" vaporized=""/>
    <tripinfo id="165043_423_0" depart="25370.00" departLane="-32038056#3_0" departPos="4.40" departSpeed="0.00" departDelay="4.00" arrival="25471.00" arrivalLane="32324544#0_1" arrivalPos="90.48" arrivalSpeed="19.47" duration="101.00" routeLength="465.51" waitingTime="47.00" waitingCount="2" stopTime="0.00" timeLoss="71.10" rerouteNo="0" devices="tripinfo_165043_423_0 routing_165043_423_0" vType="pkw" speedFactor="1.05" vaporized=""/>
    <tripinfo id="95948_394_0" depart="25386.00" departLane="-32038056#3_0" departPos="4.40" departSpeed="0.00" departDelay="10.00" arrival="25487.00" arrivalLane="-28198821#4_0" arrivalPos="57.10" arrivalSpeed="16.63" duration="101.00" routeLength="437.47" waitingTime="44.00" waitingCount="3" stopTime="0.00" timeLoss="74.77" rerouteNo="0" devices="tripinfo_95948_394_0 routing_95948_394_0" vType="pkw" speedFactor="1.22" vaporized=""/>
    <tripinfo id="169772_426_0" depart="25347.00" departLane="-32038056#3_0" departPos="4.40" departSpeed="0.00" departDelay="0.00" arrival="25488.00" arrivalLane="32038051#0_0" arrivalPos="89.25" arrivalSpeed="16.93" duration="141.00" routeLength="446.95" waitingTime="80.00" waitingCount="3" stopTime="0.00" timeLoss="108.57" rerouteNo="0" devices="tripinfo_169772_426_0 routing_169772_426_0" vType="pkw" speedFactor="0.93" vaporized=""/>
    <tripinfo id="114183_402_0" depart="25359.00" departLane="-32038056#3_0" departPos="4.40" departSpeed="0.00" departDelay="0.00" arrival="25508.00" arrivalLane="32038051#0_0" arrivalPos="89.25" arrivalSpeed="20.69" duration="149.00" routeLength="446.95" waitingTime="94.00" waitingCount="4" stopTime="0.00" timeLoss="122.86" rerouteNo="0" devices="tripinfo_114183_402_0 routing_114183_402_0" vType="pkw" speedFactor="1.19" vaporized=""/>
    <tripinfo id="115620_403_0" depart="25389.00" departLane="-32038056#3_0" departPos="4.40" departSpeed="0.00" departDelay="12.00" arrival="25508.00" arrivalLane="-28198821#4_1" arrivalPos="57.10" arrivalSpeed="11.73" duration="119.00" routeLength="437.47" waitingTime="52.00" waitingCount="4" stopTime="0.00" timeLoss="83.93" rerouteNo="0" devices="tripinfo_115620_403_0 routing_115620_403_0" vType="pkw" speedFactor="0.90" vaporized=""/>
    <tripinfo id="133955_411_0" depart="25273.00" departLane="23429231#1_0" departPos="4.40" departSpeed="0.00" departDelay="14.00" arrival="25542.00" arrivalLane="32038051#0_0" arrivalPos="89.25" arrivalSpeed="20.02" duration="269.00" routeLength="203.79" waitingTime="239.00" waitingCount="2" stopTime="0.00" timeLoss="259.73" rerouteNo="0" devices="tripinfo_133955_411_0 routing_133955_411_0" vType="pkw" speedFactor="1.14" vaporized=""/>
    <tripinfo id="129253_408_0" depart="25275.00" departLane="23429231#1_0" departPos="4.40" departSpeed="0.00" departDelay="15.00" arrival="25543.00" arrivalLane="32038051#0_1" arrivalPos="89.25" arrivalSpeed="15.81" duration="268.00" routeLength="203.79" waitingTime="238.00" waitingCount="2" stopTime="0.00" timeLoss="255.89" rerouteNo="0" devices="tripinfo_129253_408_0 routing_129253_408_0" vType="pkw" speedFactor="0.87" vaporized=""/>
    <tripinfo id="154290_420_0" depart="25431.00" departLane="27115123#2_0" departPos="4.40" departSpeed="0.00" departDelay="0.00" arrival="25543.00" arrivalLane="32324544#0_0" arrivalPos="90.48" arrivalSpeed="16.85" duration="112.00" routeLength="198.06" waitingTime="89.00" waitingCount="1" stopTime="0.00" timeLoss="99.77" rerouteNo="1" devices="tripinfo_154290_420_0 routing_154290_420_0" vType="pkw" speedFactor="0.87" vaporized=""/>
    <tripinfo id="129330_408_0" depart="25433.00" departLane="27115123#2_0" departPos="4.40" departSpeed="0.00" departDelay="1.00" arrival="25543.00" arrivalLane="32324544#0_1" arrivalPos="90.48" arrivalSpeed="17.14" duration="110.00" routeLength="198.06" waitingTime="85.00" waitingCount="1" stopTime="0.00" timeLoss="98.73" rerouteNo="1" devices="tripinfo_129330_408_0 routing_129330_408_0" vType="pkw" speedFactor="0.92" vaporized=""/>
    <tripinfo id="135201_411_0" depart="25284.00" departLane="23429231#1_0" departPos="4.40" departSpeed="0.00" departDelay="20.00" arrival="25544.00" arrivalLane="32038051#0_0" arrivalPos="89.25" arrivalSpeed="16.21" duration="260.00" routeLength="203.79" waitingTime="231.00" waitingCount="2" stopTime="0.00" timeLoss="248.18" rerouteNo="0" devices="tripinfo_135201_411_0 routing_135201_411_0" vType="pkw" speedFactor="0.89" vaporized=""/>
    <tripinfo id="120275_405_0" depart="25278.00" departLane="23429231#1_0" departPos="4.40" departSpeed="0.00" departDelay="17.00" arrival="25545.00" arrivalLane="32038051#0_1" arrivalPos="89.25" arrivalSpeed="20.46" duration="267.00" routeLength="203.79" waitingTime="232.00" waitingCount="2" stopTime="0.00" timeLoss="257.15" rerouteNo="0" devices="tripinfo_120275_405_0 routing_120275_405_0" vType="pkw" speedFactor="1.15" vaporized=""/>
    <tripinfo id="153635_420_0" depart="25460.00" departLane="27115123#2_0" departPos="4.40" departSpeed="0.00" departDelay="0.00" arrival="25545.00" arrivalLane="32324544#0_0" arrivalPos="90.48" arrivalSpeed="15.70" duration="85.00" routeLength="198.06" waitingTime="62.00" waitingCount="1" stopTime="0.00" timeLoss="72.37" rerouteNo="1" devices="tripinfo_153635_420_0 routing_153635_420_0" vType="pkw" speedFactor="0.82" vaporized=""/>
    <tripinfo id="86189_391_0" depart="25287.00" departLane="23429231#1_0" departPos="4.40" departSpeed="0.00" departDelay="22.00" arrival="25546.00" arrivalLane="32038051#0_0" arrivalPos="89.25" arrivalSpeed="19.82" duration="259.00" routeLength="203.79" waitingTime="228.00" waitingCount="2" stopTime="0.00" timeLoss="248.58" rerouteNo="0" devices="tripinfo_86189_391_0 routing_86189_391_0" vType="pkw" speedFactor="1.03" vaporized=""/>
    <tripinfo id="161689_421_0" depart="25467.00" departLane="130165204_0" departPos="4.40" departSpeed="0.00" departDelay="0.00" arrival="25547.00" arrivalLane="32324544#0_1" arrivalPos="90.48" arrivalSpeed="15.22" duration="80.00" routeLength="411.68" waitingTime="34.00" waitingCount="1" stopTime="0.00" timeLoss="47.13" rerouteNo="1" devices="tripinfo_161689_421_0 routing_161689_421_0" vType="pkw" speedFactor="0.82" vaporized=""/>
    <tripinfo id="145855_416_0" depart="25469.00" departLane="27115123#2_0" departPos="4.40" departSpeed="0.00" departDelay="0.00" arrival="25547.00" arrivalLane="32324544#0_0" arrivalPos="90.48" arrivalSpeed="15.59" duration="78.00" routeLength="198.06" waitingTime="53.00" waitingCount="1" stopTime="0.00" timeLoss="65.98" rerouteNo="1" devices="tripinfo_145855_416_0 routing_145855_416_0" vType="pkw" speedFactor="0.89" vaporized=""/>