<?xml version="1.0" encoding="UTF-8"?>

<!-- generated on 2023-08-31 13:16:32 by Eclipse SUMO libsumo Version 1.18.0
<configuration xmlns:xsi="http://www.w3.org/2001/XMLSchema-instance" xsi:noNamespaceSchemaLocation="http://sumo.dlr.de/xsd/libsumoConfiguration.xsd">

    <input>
        <net-file value="/home/stefan/RESCO/./environments/cologne1/cologne1.net.xml"/>
        <route-files value="/home/stefan/RESCO/./environments/cologne1/cologne1.rou.xml"/>
    </input>

    <output>
        <tripinfo-output value="/home/stefan/results/RAINBOW-tr0-cologne1-0-drq_norm-wait_norm/tripinfo_50.xml"/>
        <tripinfo-output.write-unfinished value="true"/>
    </output>

    <time>
        <begin value="25200"/>
        <end value="28800"/>
    </time>

    <processing>
        <time-to-teleport value="-1"/>
    </processing>

    <report>
        <no-warnings value="True"/>
        <no-step-log value="True"/>
    </report>

    <random_number>
        <random value="true"/>
    </random_number>

</configuration>
-->

<tripinfos xmlns:xsi="http://www.w3.org/2001/XMLSchema-instance" xsi:noNamespaceSchemaLocation="http://sumo.dlr.de/xsd/tripinfo_file.xsd">
    <tripinfo id="124779_406_0" depart="25205.00" departLane="28198821#3_0" departPos="4.40" departSpeed="0.00" departDelay="0.00" arrival="25222.00" arrivalLane="32038051#0_1" arrivalPos="89.25" arrivalSpeed="18.01" duration="17.00" routeLength="170.57" waitingTime="0.00" waitingCount="0" stopTime="0.00" timeLoss="6.76" rerouteNo="0" devices="tripinfo_124779_406_0 routing_124779_406_0" vType="pkw" speedFactor="0.99" vaporized=""/>
    <tripinfo id="98305_395_0" depart="25211.00" departLane="28198821#3_0" departPos="4.40" departSpeed="0.00" departDelay="0.00" arrival="25227.00" arrivalLane="32038051#0_1" arrivalPos="89.25" arrivalSpeed="22.05" duration="16.00" routeLength="170.57" waitingTime="0.00" waitingCount="0" stopTime="0.00" timeLoss="7.53" rerouteNo="0" devices="tripinfo_98305_395_0 routing_98305_395_0" vType="pkw" speedFactor="1.24" vaporized=""/>
    <tripinfo id="102535_396_0" depart="25218.00" departLane="28198821#3_0" departPos="4.40" departSpeed="0.00" departDelay="0.00" arrival="25232.00" arrivalLane="32038051#0_1" arrivalPos="89.25" arrivalSpeed="17.52" duration="14.00" routeLength="170.57" waitingTime="0.00" waitingCount="0" stopTime="0.00" timeLoss="3.34" rerouteNo="0" devices="tripinfo_102535_396_0 routing_102535_396_0" vType="pkw" speedFactor="0.95" vaporized=""/>
    <tripinfo id="147209_416_0" depart="25220.00" departLane="28198821#3_0" departPos="4.40" departSpeed="0.00" departDelay="0.00" arrival="25234.00" arrivalLane="32038051#0_1" arrivalPos="89.25" arrivalSpeed="19.65" duration="14.00" routeLength="170.57" waitingTime="0.00" waitingCount="0" stopTime="0.00" timeLoss="3.96" rerouteNo="0" devices="tripinfo_147209_416_0 routing_147209_416_0" vType="pkw" speedFactor="1.06" vaporized=""/>
    <tripinfo id="151372_418_0" depart="25207.00" departLane="130165204_0" departPos="4.40" departSpeed="0.00" departDelay="0.00" arrival="25248.00" arrivalLane="32038051#0_1" arrivalPos="89.25" arrivalSpeed="17.72" duration="41.00" routeLength="410.03" waitingTime="3.00" waitingCount="1" stopTime="0.00" timeLoss="13.68" rerouteNo="1" devices="tripinfo_151372_418_0 routing_151372_418_0" vType="pkw" speedFactor="0.98" vaporized=""/>
    <tripinfo id="123965_406_0" depart="25218.00" departLane="-32038056#3_0" departPos="4.40" departSpeed="0.00" departDelay="0.00" arrival="25250.00" arrivalLane="-28198821#4_0" arrivalPos="57.10" arrivalSpeed="15.71" duration="32.00" routeLength="437.47" waitingTime="0.00" waitingCount="0" stopTime="0.00" timeLoss="4.22" rerouteNo="0" devices="tripinfo_123965_406_0 routing_123965_406_0" vType="pkw" speedFactor="1.14" vaporized=""/>
    <tripinfo id="91582_392_0" depart="25220.00" departLane="-32038056#3_0" departPos="4.40" departSpeed="0.00" departDelay="2.00" arrival="25257.00" arrivalLane="32324544#0_1" arrivalPos="90.48" arrivalSpeed="19.97" duration="37.00" routeLength="465.51" waitingTime="0.00" waitingCount="0" stopTime="0.00" timeLoss="7.84" rerouteNo="0" devices="tripinfo_91582_392_0 routing_91582_392_0" vType="pkw" speedFactor="1.09" vaporized=""/>
    <tripinfo id="149029_417_0" depart="25236.00" departLane="27115123#2_0" departPos="4.40" departSpeed="0.00" departDelay="0.00" arrival="25269.00" arrivalLane="32038051#0_1" arrivalPos="89.25" arrivalSpeed="20.56" duration="33.00" routeLength="196.41" waitingTime="12.00" waitingCount="1" stopTime="0.00" timeLoss="23.78" rerouteNo="1" devices="tripinfo_149029_417_0 routing_149029_417_0" vType="pkw" speedFactor="1.17" vaporized=""/>
    <tripinfo id="115444_403_0" depart="25294.00" departLane="28198821#3_0" departPos="4.40" departSpeed="0.00" departDelay="0.00" arrival="25312.00" arrivalLane="32038051#0_1" arrivalPos="89.25" arrivalSpeed="15.54" duration="18.00" routeLength="170.57" waitingTime="0.00" waitingCount="0" stopTime="0.00" timeLoss="5.13" rerouteNo="0" devices="tripinfo_115444_403_0 routing_115444_403_0" vType="pkw" speedFactor="0.82" vaporized=""/>
    <tripinfo id="103540_397_0" depart="25300.00" departLane="28198821#3_0" departPos="4.40" departSpeed="0.00" departDelay="0.00" arrival="25314.00" arrivalLane="32038051#0_1" arrivalPos="89.25" arrivalSpeed="20.62" duration="14.00" routeLength="170.57" waitingTime="0.00" waitingCount="0" stopTime="0.00" timeLoss="4.21" rerouteNo="0" devices="tripinfo_103540_397_0 routing_103540_397_0" vType="pkw" speedFactor="1.11" vaporized=""/>
    <tripinfo id="162096_421_0" depart="25306.00" departLane="130165204_0" departPos="4.40" departSpeed="0.00" departDelay="0.00" arrival="25340.00" arrivalLane="32038051#0_1" arrivalPos="89.25" arrivalSpeed="20.00" duration="34.00" routeLength="410.03" waitingTime="0.00" waitingCount="0" stopTime="0.00" timeLoss="9.48" rerouteNo="1" devices="tripinfo_162096_421_0 routing_162096_421_0" vType="pkw" speedFactor="1.09" vaporized=""/>
    <tripinfo id="160150_421_0" depart="25223.00" departLane="-32038056#3_0" departPos="4.40" departSpeed="0.00" departDelay="4.00" arrival="25351.00" arrivalLane="32038051#0_0" arrivalPos="89.25" arrivalSpeed="19.44" duration="128.00" routeLength="446.95" waitingTime="87.00" waitingCount="1" stopTime="0.00" timeLoss="97.97" rerouteNo="0" devices="tripinfo_160150_421_0 routing_160150_421_0" vType="pkw" speedFactor="1.01" vaporized=""/>
    <tripinfo id="130602_409_0" depart="25268.00" departLane="-32038056#3_0" departPos="4.40" departSpeed="0.00" departDelay="0.00" arrival="25351.00" arrivalLane="-28198821#4_1" arrivalPos="57.10" arrivalSpeed="15.09" duration="83.00" routeLength="437.47" waitingTime="44.00" waitingCount="1" stopTime="0.00" timeLoss="54.11" rerouteNo="0" devices="tripinfo_130602_409_0 routing_130602_409_0" vType="pkw" speedFactor="1.09" vaporized=""/>
    <tripinfo id="162814_422_0" depart="25233.00" departLane="-32038056#3_0" departPos="4.40" departSpeed="0.00" departDelay="0.00" arrival="25354.00" arrivalLane="32038051#0_0" arrivalPos="89.25" arrivalSpeed="16.54" duration="121.00" routeLength="446.95" waitingTime="78.00" waitingCount="1" stopTime="0.00" timeLoss="87.76" rerouteNo="0" devices="tripinfo_162814_422_0 routing_162814_422_0" vType="pkw" speedFactor="0.92" vaporized=""/>
    <tripinfo id="128446_408_0" depart="25273.00" departLane="-32038056#3_0" departPos="4.40" departSpeed="0.00" departDelay="0.00" arrival="25355.00" arrivalLane="32324544#0_1" arrivalPos="90.48" arrivalSpeed="13.61" duration="82.00" routeLength="465.51" waitingTime="32.00" waitingCount="1" stopTime="0.00" timeLoss="40.83" rerouteNo="0" devices="tripinfo_128446_408_0 routing_128446_408_0" vType="pkw" speedFactor="0.77" vaporized=""/>
    <tripinfo id="136082_411_0" depart="25278.00" departLane="-32038056#3_0" departPos="4.40" departSpeed="0.00" departDelay="1.00" arrival="25356.00" arrivalLane="32038051#0_0" arrivalPos="89.25" arrivalSpeed="17.93" duration="78.00" routeLength="446.95" waitingTime="33.00" waitingCount="1" stopTime="0.00" timeLoss="45.74" rerouteNo="0" devices="tripinfo_136082_411_0 routing_136082_411_0" vType="pkw" speedFactor="0.95" vaporized=""/>
    <tripinfo id="83516_390_0" depart="25276.00" departLane="-32038056#3_0" departPos="4.40" departSpeed="0.00" departDelay="1.00" arrival="25357.00" arrivalLane="32324544#0_1" arrivalPos="90.48" arrivalSpeed="18.49" duration="81.00" routeLength="465.51" waitingTime="32.00" waitingCount="1" stopTime="0.00" timeLoss="48.86" rerouteNo="0" devices="tripinfo_83516_390_0 routing_83516_390_0" vType="pkw" speedFactor="1.00" vaporized=""/>
    <tripinfo id="113303_402_0" depart="25284.00" departLane="-32038056#3_0" departPos="4.40" departSpeed="0.00" departDelay="1.00" arrival="25358.00" arrivalLane="32324544#0_1" arrivalPos="90.48" arrivalSpeed="19.90" duration="74.00" routeLength="465.51" waitingTime="31.00" waitingCount="1" stopTime="0.00" timeLoss="43.46" rerouteNo="0" devices="tripinfo_113303_402_0 routing_113303_402_0" vType="pkw" speedFactor="1.03" vaporized=""/>
    <tripinfo id="175147_428_0" depart="25324.00" departLane="130165204_0" departPos="4.40" departSpeed="0.00" departDelay="0.00" arrival="25368.00" arrivalLane="32038051#0_1" arrivalPos="89.25" arrivalSpeed="21.07" duration="44.00" routeLength="410.03" waitingTime="5.00" waitingCount="1" stopTime="0.00" timeLoss="21.86" rerouteNo="1" devices="tripinfo_175147_428_0 routing_175147_428_0" vType="pkw" speedFactor="1.20" vaporized=""/>
    <tripinfo id="161721_421_0" depart="25337.00" departLane="130165204_0" departPos="4.40" departSpeed="0.00" departDelay="0.00" arrival="25379.00" arrivalLane="32038051#0_1" arrivalPos="89.25" arrivalSpeed="20.61" duration="42.00" routeLength="410.03" waitingTime="4.00" waitingCount="1" stopTime="0.00" timeLoss="17.96" rerouteNo="1" devices="tripinfo_161721_421_0 routing_161721_421_0" vType="pkw" speedFactor="1.11" vaporized=""/>
    <tripinfo id="85818_390_0" depart="25281.00" departLane="-32038056#3_0" departPos="4.40" departSpeed="0.00" departDelay="1.00" arrival="25428.00" arrivalLane="32038051#0_0" arrivalPos="89.25" arrivalSpeed="16.04" duration="147.00" routeLength="446.95" waitingTime="97.00" waitingCount="2" stopTime="0.00" timeLoss="111.64" rerouteNo="0" devices="tripinfo_85818_390_0 routing_85818_390_0" vType="pkw" speedFactor="0.87" vaporized=""/>
    <tripinfo id="137244_412_0" depart="25297.00" departLane="-32038056#3_0" departPos="4.40" departSpeed="0.00" departDelay="3.00" arrival="25428.00" arrivalLane="-28198821#4_0" arrivalPos="57.10" arrivalSpeed="14.65" duration="131.00" routeLength="437.47" waitingTime="84.00" waitingCount="2" stopTime="0.00" timeLoss="101.27" rerouteNo="0" devices="tripinfo_137244_412_0 routing_137244_412_0" vType="pkw" speedFactor="1.08" vaporized=""/>
    <tripinfo id="137320_412_0" depart="25414.00" departLane="130165204_0" departPos="4.40" departSpeed="0.00" departDelay="0.00" arrival="25449.00" arrivalLane="32038051#0_1" arrivalPos="89.25" arrivalSpeed="17.49" duration="35.00" routeLength="410.03" waitingTime="0.00" waitingCount="0" stopTime="0.00" timeLoss="14.38" rerouteNo="1" devices="tripinfo_137320_412_0 routing_137320_412_0" vType="pkw" speedFactor="1.28" vaporized=""/>
    <tripinfo id="86583_391_0" depart="25289.00" departLane="-32038056#3_0" departPos="4.40" departSpeed="0.00" departDelay="0.00" arrival="25503.00" arrivalLane="32038051#0_0" arrivalPos="89.25" arrivalSpeed="15.98" duration="214.00" routeLength="446.95" waitingTime="159.00" waitingCount="3" stopTime="0.00" timeLoss="179.08" rerouteNo="0" devices="tripinfo_86583_391_0 routing_86583_391_0" vType="pkw" speedFactor="0.89" vaporized=""/>
    <tripinfo id="142412_415_0" depart="25307.00" departLane="-32038056#3_0" departPos="4.40" departSpeed="0.00" departDelay="0.00" arrival="25503.00" arrivalLane="-28198821#4_1" arrivalPos="57.10" arrivalSpeed="10.99" duration="196.00" routeLength="437.47" waitingTime="139.00" waitingCount="3" stopTime="0.00" timeLoss="157.88" rerouteNo="0" devices="tripinfo_142412_415_0 routing_142412_415_0" vType="pkw" speedFactor="0.84" vaporized=""/>
    <tripinfo id="120878_405_0" depart="25292.00" departLane="-32038056#3_0" departPos="4.40" departSpeed="0.00" departDelay="1.00" arrival="25504.00" arrivalLane="32038051#0_0" arrivalPos="89.25" arrivalSpeed="17.40" duration="212.00" routeLength="446.95" waitingTime="157.00" waitingCount="3" stopTime="0.00" timeLoss="178.15" rerouteNo="0" devices="tripinfo_120878_405_0 routing_120878_405_0" vType="pkw" speedFactor="0.90" vaporized=""/>
    <tripinfo id="85922_391_0" depart="25294.00" departLane="-32038056#3_0" departPos="4.40" departSpeed="0.00" departDelay="1.00" arrival="25505.00" arrivalLane="32038051#0_0" arrivalPos="89.25" arrivalSpeed="19.08" duration="211.00" routeLength="446.95" waitingTime="155.00" waitingCount="3" stopTime="0.00" timeLoss="183.07" rerouteNo="0" devices="tripinfo_85922_391_0 routing_85922_391_0" vType="pkw" speedFactor="1.08" vaporized=""/>
    <tripinfo id="138220_412_0" depart="25309.00" departLane="-32038056#3_0" departPos="4.40" departSpeed="0.00" departDelay="0.00" arrival="25505.00" arrivalLane="-28198821#4_1" arrivalPos="57.10" arrivalSpeed="10.02" duration="196.00" routeLength="437.47" waitingTime="137.00" waitingCount="3" stopTime="0.00" timeLoss="157.01" rerouteNo="0" devices="tripinfo_138220_412_0 routing_138220_412_0" vType="pkw" speedFactor="0.81" vaporized=""/>
    <tripinfo id="167799_425_0" depart="25327.00" departLane="-32038056#3_0" departPos="4.40" departSpeed="0.00" departDelay="0.00" arrival="25507.00" arrivalLane="-28198821#4_1" arrivalPos="57.10" arrivalSpeed="14.61" duration="180.00" routeLength="437.47" waitingTime="130.00" waitingCount="2" stopTime="0.00" timeLoss="152.77" rerouteNo="0" devices="tripinfo_167799_425_0 routing_167799_425_0" vType="pkw" speedFactor="1.19" vaporized=""/>
    <tripinfo id="130372_409_0" depart="25330.00" departLane="-32038056#3_0" departPos="4.40" departSpeed="0.00" departDelay="3.00" arrival="25510.00" arrivalLane="32324544#0_1" arrivalPos="90.48" arrivalSpeed="17.21" duration="180.00" routeLength="465.51" waitingTime="128.00" waitingCount="2" stopTime="0.00" timeLoss="146.47" rerouteNo="0" devices="tripinfo_130372_409_0 routing_130372_409_0" vType="pkw" speedFactor="0.95" vaporized=""/>
    <tripinfo id="104806_398_0" depart="25332.00" departLane="-32038056#3_0" departPos="4.40" departSpeed="0.00" departDelay="3.00" arrival="25511.00" arrivalLane="32324544#0_1" arrivalPos="90.48" arrivalSpeed="19.01" duration="179.00" routeLength="465.51" waitingTime="126.00" waitingCount="2" stopTime="0.00" timeLoss="148.80" rerouteNo="0" devices="tripinfo_104806_398_0 routing_104806_398_0" vType="pkw" speedFactor="1.04" vaporized=""/>
    <tripinfo id="135138_411_0" depart="25350.00" departLane="-32038056#3_0" departPos="4.40" departSpeed="0.00" departDelay="1.00" arrival="25522.00" arrivalLane="-28198821#4_1" arrivalPos="57.10" arrivalSpeed="13.71" duration="172.00" routeLength="437.47" waitingTime="115.00" waitingCount="3" stopTime="0.00" timeLoss="140.21" rerouteNo="0" devices="tripinfo_135138_411_0 routing_135138_411_0" vType="pkw" speedFactor="1.00" vaporized=""/>
    <tripinfo id="118963_405_0" depart="25304.00" departLane="-32038056#3_0" departPos="4.40" departSpeed="0.00" departDelay="0.00" arrival="25523.00" arrivalLane="32038051#0_0" arrivalPos="89.25" arrivalSpeed="18.12" duration="219.00" routeLength="446.95" waitingTime="158.00" waitingCount="4" stopTime="0.00" timeLoss="187.64" rerouteNo="0" devices="tripinfo_118963_405_0 routing_118963_405_0" vType="pkw" speedFactor="0.98" vaporized=""/>
    <tripinfo id="136152_411_0" depart="25313.00" departLane="-32038056#3_0" departPos="4.40" departSpeed="0.00" departDelay="0.00" arrival="25525.00" arrivalLane="32038051#0_0" arrivalPos="89.25" arrivalSpeed="17.72" duration="212.00" routeLength="446.95" waitingTime="144.00" waitingCount="4" stopTime="0.00" timeLoss="178.93" rerouteNo="0" devices="tripinfo_136152_411_0 routing_136152_411_0" vType="pkw" speedFactor="0.93" vaporized=""/>
    <tripinfo id="122154_406_0" depart="25337.00" departLane="-32038056#3_0" departPos="4.40" departSpeed="0.00" departDelay="0.00" arrival="25526.00" arrivalLane="-28198821#4_0" arrivalPos="57.10" arrivalSpeed="14.80" duration="189.00" routeLength="437.47" waitingTime="133.00" waitingCount="3" stopTime="0.00" timeLoss="158.98" rerouteNo="0" devices="tripinfo_122154_406_0 routing_122154_406_0" vType="pkw" speedFactor="1.07" vaporized=""/>
    <tripinfo id="150753_418_0" depart="25352.00" departLane="-32038056#3_0" departPos="4.40" departSpeed="0.00" departDelay="1.00" arrival="25527.00" arrivalLane="32324544#0_1" arrivalPos="90.48" arrivalSpeed="13.80" duration="175.00" routeLength="465.51" waitingTime="106.00" waitingCount="3" stopTime="0.00" timeLoss="130.61" rerouteNo="0" devices="tripinfo_150753_418_0 routing_150753_418_0" vType="pkw" speedFactor="0.71" vaporized=""/>
    <tripinfo id="148536_417_0" depart="25361.00" departLane="-32038056#3_0" departPos="4.40" departSpeed="0.00" departDelay="0.00" arrival="25529.00" arrivalLane="32324544#0_1" arrivalPos="90.48" arrivalSpeed="17.30" duration="168.00" routeLength="465.51" waitingTime="101.00" waitingCount="3" stopTime="0.00" timeLoss="135.72" rerouteNo="0" devices="tripinfo_148536_417_0 routing_148536_417_0" vType="pkw" speedFactor="0.99" vaporized=""/>
    <tripinfo id="121091_405_0" depart="25345.00" departLane="-32038056#3_0" departPos="4.40" departSpeed="0.00" departDelay="0.00" arrival="25558.00" arrivalLane="32038051#0_0" arrivalPos="89.25" arrivalSpeed="17.16" duration="213.00" routeLength="446.95" waitingTime="152.00" waitingCount="4" stopTime="0.00" timeLoss="180.99" rerouteNo="0" devices="tripinfo_121091_405_0 routing_121091_405_0" vType="pkw" speedFactor="0.94" vaporized=""/>
    <tripinfo id="167170_425_0" depart="25368.00" departLane="-32038056#3_0" departPos="4.40" departSpeed="0.00" departDelay="4.00" arrival="25558.00" arrivalLane="-28198821#4_1" arrivalPos="57.10" arrivalSpeed="12.22" duration="190.00" routeLength="437.47" waitingTime="125.00" waitingCount="4" stopTime="0.00" timeLoss="157.48" rerouteNo="0" devices="tripinfo_167170_425_0 routing_167170_425_0" vType="pkw" speedFactor="0.97" vaporized=""/>
    <tripinfo id="165043_423_0" depart="25370.00" departLane="-32038056#3_0" departPos="4.40" departSpeed="0.00" departDelay="4.00" arrival="25561.00" arrivalLane="32324544#0_1" arrivalPos="90.48" arrivalSpeed="18.11" duration="191.00" routeLength="465.51" waitingTime="122.00" waitingCount="5" stopTime="0.00" timeLoss="157.99" rerouteNo="0" devices="tripinfo_165043_423_0 routing_165043_423_0" vType="pkw" speedFactor="0.95" vaporized=""/>
    <tripinfo id="136669_411_0" depart="25566.00" departLane="28198821#3_0" departPos="4.40" departSpeed="0.00" departDelay="0.00" arrival="25580.00" arrivalLane="32038051#0_1" arrivalPos="89.25" arrivalSpeed="21.27" duration="14.00" routeLength="170.57" waitingTime="0.00" waitingCount="0" stopTime="0.00" timeLoss="4.71" rerouteNo="0" devices="tripinfo_136669_411_0 routing_136669_411_0" vType="pkw" speedFactor="1.15" vaporized=""/>
    <tripinfo id="121258_405_0" depart="25240.00" departLane="23429231#1_0" departPos="4.40" departSpeed="0.00" departDelay="0.00" arrival="25622.00" arrivalLane="32038051#0_0" arrivalPos="89.25" arrivalSpeed="17.73" duration="382.00" routeLength="203.79" waitingTime="361.00" waitingCount="1" stopTime="0.00" timeLoss="371.01" rerouteNo="0" devices="tripinfo_121258_405_0 routing_121258_405_0" vType="pkw" speedFactor="0.97" vaporized=""/>
    <tripinfo id="154290_420_0" depart="25431.00" departLane="27115123#2_0" departPos="4.40" departSpeed="0.00" departDelay="0.00" arrival="25622.00" arrivalLane="32324544#0_1" arrivalPos="90.48" arrivalSpeed="18.57" duration="191.00" routeLength="198.06" waitingTime="168.00" waitingCount="1" stopTime="0.00" timeLoss="180.40" rerouteNo="1" devices="tripinfo_154290_420_0 routing_154290_420_0" vType="pkw" speedFactor="0.97" vaporized=""/>
    <tripinfo id="126742_407_0" depart="25242.00" departLane="23429231#1_0" departPos="4.40" departSpeed="0.00" departDelay="2.00" arrival="25623.00" arrivalLane="32038051#0_0" arrivalPos="89.25" arrivalSpeed="18.66" duration="381.00" routeLength="203.79" waitingTime="358.00" waitingCount="1" stopTime="0.00" timeLoss="369.36" rerouteNo="0" devices="tripinfo_126742_407_0 routing_126742_407_0" vType="pkw" speedFactor="0.98" vaporized=""/>
    <tripinfo id="148629_417_0" depart="25284.00" departLane="27115123#2_0" departPos="4.40" departSpeed="0.00" departDelay="0.00" arrival="25623.00" arrivalLane="32324544#0_0" arrivalPos="90.48" arrivalSpeed="20.00" duration="339.00" routeLength="198.06" waitingTime="318.00" waitingCount="1" stopTime="0.00" timeLoss="328.97" rerouteNo="1" devices="tripinfo_148629_417_0 routing_148629_417_0" vType="pkw" speedFactor="1.11" vaporized=""/>
    <tripinfo id="153635_420_0" depart="25460.00" departLane="27115123#2_0" departPos="4.40" departSpeed="0.00" departDelay="0.00" arrival="25624.00" arrivalLane="32324544#0_1" arrivalPos="90.48" arrivalSpeed="18.86" duration="164.00" routeLength="198.06" waitingTime="141.00" waitingCount="1" stopTime="0.00" timeLoss="154.01" rerouteNo="1" devices="tripinfo_153635_420_0 routing_153635_420_0" vType="pkw" speedFactor="1.02" vaporized=""/>
    <tripinfo id="102501_396_0" depart="25245.00" departLane="23429231#1_0" departPos="4.40" departSpeed="0.00" departDelay="1.00" arrival="25625.00" arrivalLane="32038051#0_0" arrivalPos="89.25" arrivalSpeed="17.79" duration="380.00" routeLength="203.79" waitingTime="357.00" waitingCount="1" stopTime="0.00" timeLoss="368.16" rerouteNo="0" devices="tripinfo_102501_396_0 routing_102501_396_0" vType="pkw" speedFactor="0.92" vaporized=""/>
    <tripinfo id="120663_405_0" depart="25247.00" departLane="23429231#1_0" departPos="4.40" departSpeed="0.00" departDelay="1.00" arrival="25625.00" arrivalLane="32038051#0_1" arrivalPos="89.25" arrivalSpeed="21.24" duration="378.00" routeLength="203.79" waitingTime="354.00" waitingCount="1" stopTime="0.00" timeLoss="367.64" rerouteNo="0" devices="tripinfo_120663_405_0 routing_120663_405_0" vType="pkw" speedFactor="1.09" vaporized=""/>
    <tripinfo id="129330_408_0" depart="25434.00" departLane="27115123#2_0" departPos="4.40" departSpeed="0.00" departDelay="2.00" arrival="25625.00" arrivalLane="32324544#0_0" arrivalPos="90.48" arrivalSpeed="16.69" duration="191.00" routeLength="198.06" waitingTime="168.00" waitingCount="1" stopTime="0.00" timeLoss="179.72" rerouteNo="1" devices="tripinfo_129330_408_0 routing_129330_408_0" vType="pkw" speedFactor="0.92" vaporized=""/>
    <tripinfo id="130147_409_0" depart="25252.00" departLane="23429231#1_0" departPos="4.40" departSpeed="0.00" departDelay="1.00" arrival="25626.00" arrivalLane="32038051#0_0" arrivalPos="89.25" arrivalSpeed="19.14" duration="374.00" routeLength="203.79" waitingTime="350.00" waitingCount="1" stopTime="0.00" timeLoss="364.23" rerouteNo="0" devices="tripinfo_130147_409_0 routing_130147_409_0" vType="pkw" speedFactor="1.09" vaporized=""/>
    <tripinfo id="161689_421_0" depart="25467.00" departLane="130165204_0" departPos="4.40" departSpeed="0.00" departDelay="0.00" arrival="25626.00" arrivalLane="32324544#0_1" arrivalPos="90.48" arrivalSpeed="17.56" duration="159.00" routeLength="411.68" waitingTime="116.00" waitingCount="1" stopTime="0.00" timeLoss="131.37" rerouteNo="1" devices="tripinfo_161689_421_0 routing_161689_421_0" vType="pkw" speedFactor="0.96" vaporized=""/>
    <tripinfo id="113509_402_0" depart="25249.00" departLane="23429231#1_0" departPos="4.40" departSpeed="0.00" departDelay="1.00" arrival="25627.00" arrivalLane="-28198821#4_1" arrivalPos="57.10" arrivalSpeed="15.21" duration="378.00" routeLength="179.90" waitingTime="353.00" waitingCount="1" stopTime="0.00" timeLoss="368.71" rerouteNo="0" devices="tripinfo_113509_402_0 routing_113509_402_0" vType="pkw" speedFactor="1.18" vaporized=""/>
    <tripinfo id="145855_416_0" depart="25469.00" departLane="27115123#2_0" departPos="4.40" departSpeed="0.00" departDelay="0.00" arrival="25627.00" arrivalLane="32324544#0_0" arrivalPos="90.48" arrivalSpeed="20.03" duration="158.00" routeLength="198.06" waitingTime="133.00" waitingCount="1" stopTime="0.00" timeLoss="148.52" rerouteNo="1" devices="tripinfo_145855_416_0 routing_145855_416_0" vType="pkw" speedFactor="1.15" vaporized=""/>
    <tripinfo id="100928_396_0" depart="25472.00" departLane="130165204_0" departPos="4.40" departSpeed="0.00" departDelay="0.00" arrival="25628.00" arrivalLane="32324544#0_1" arrivalPos="90.48" arrivalSpeed="20.41" duration="156.00" routeLength="411.68" waitingTime="114.00" waitingCount="2" stopTime="0.00" timeLoss="130.65" rerouteNo="1" devices="tripinfo_100928_396_0 routing_100928_396_0" vType="pkw" speedFactor="1.07" vaporized=""/>
    <tripinfo id="169772_426_0" depart="25347.00" departLane="-32038056#3_0" departPos="4.40" departSpeed="0.00" departDelay="0.00" arrival="25662.00" arrivalLane="32038051#0_0" arrivalPos="89.25" arrivalSpeed="16.55" duration="315.00" routeLength="446.95" waitingTime="244.00" waitingCount="5" stopTime="0.00" timeLoss="279.32" rerouteNo="0" devices="tripinfo_169772_426_0 routing_169772_426_0" vType="pkw" speedFactor="0.87" vaporized=""/>
    <tripinfo id="163503_422_0" depart="25385.00" departLane="-32038056#3_0" departPos="4.40" departSpeed="0.00" departDelay="10.00" arrival="25662.00" arrivalLane="-28198821#4_0" arrivalPos="57.10" arrivalSpeed="12.12" duration="277.00" routeLength="437.47" waitingTime="202.00" waitingCount="6" stopTime="0.00" timeLoss="244.34" rerouteNo="0" devices="tripinfo_163503_422_0 routing_163503_422_0" vType="pkw" speedFactor="0.97" vaporized=""/>
    <tripinfo id="125917_406_0" depart="25547.00" departLane="28198821#3_0" departPos="4.40" departSpeed="0.00" departDelay="0.00" arrival="25662.00" arrivalLane="32324544#0_0" arrivalPos="90.48" arrivalSpeed="18.21" duration="115.00" routeLength="155.13" waitingTime="96.00" waitingCount="1" stopTime="0.00" timeLoss="104.99" rerouteNo="0" devices="tripinfo_125917_406_0 routing_125917_406_0" vType="pkw" speedFactor="0.94" vaporized=""/>
    <tripinfo id="114183_402_0" depart="25359.00" departLane="-32038056#3_0" departPos="4.40" departSpeed="0.00" departDelay="0.00" arrival="25664.00" arrivalLane="32038051#0_0" arrivalPos="89.25" arrivalSpeed="17.18" duration="305.00" routeLength="446.95" waitingTime="232.00" waitingCount="5" stopTime="0.00" timeLoss="270.62" rerouteNo="0" devices="tripinfo_114183_402_0 routing_114183_402_0" vType="pkw" speedFactor="0.90" vaporized=""/>
    <tripinfo id="184119_431_0" depart="25582.00" departLane="28198821#3_0" departPos="4.40" departSpeed="0.00" departDelay="0.00" arrival="25664.00" arrivalLane="32324544#0_0" arrivalPos="90.48" arrivalSpeed="17.76" duration="82.00" routeLength="155.13" waitingTime="60.00" waitingCount="1" stopTime="0.00" timeLoss="72.30" rerouteNo="0" devices="tripinfo_184119_431_0 routing_184119_431_0" vType="pkw" speedFactor="0.98" vaporized=""/>
    <tripinfo id="120618_405_0" depart="25365.00" departLane="-32038056#3_0" departPos="4.40" departSpeed="0.00" departDelay="2.00" arrival="25665.00" arrivalLane="32038051#0_0" arrivalPos="89.25" arrivalSpeed="18.69" duration="300.00" routeLength="446.95" waitingTime="223.00" waitingCount="5" stopTime="0.00" timeLoss="268.36" rerouteNo="0" devices="tripinfo_120618_405_0 routing_120618_405_0" vType="pkw" speedFactor="0.97" vaporized=""/>
    <tripinfo id="115620_403_0" depart="25391.00" departLane="-32038056#3_0" departPos="4.40" departSpeed="0.00" departDelay="14.00" arrival="25665.00" arrivalLane="-28198821#4_1" arrivalPos="57.10" arrivalSpeed="12.90" duration="274.00" routeLength="437.47" waitingTime="201.00" waitingCount="5" stopTime="0.00" timeLoss="244.23" rerouteNo="0" devices="tripinfo_115620_403_0 routing_115620_403_0" vType="pkw" speedFactor="1.08" vaporized=""/>
    <tripinfo id="137508_412_0" depart="25374.00" departLane="-32038056#3_0" departPos="4.40" departSpeed="0.00" departDelay="7.00" arrival="25666.00" arrivalLane="32038051#0_0" arrivalPos="89.25" arrivalSpeed="18.45" duration="292.00" routeLength="446.95" waitingTime="217.00" waitingCount="7" stopTime="0.00" timeLoss="261.59" rerouteNo="0" devices="tripinfo_137508_412_0 routing_137508_412_0" vType="pkw" speedFactor="0.99" vaporized=""/>
    <tripinfo id="95948_394_0" depart="25388.00" departLane="-32038056#3_0" departPos="4.40" departSpeed="0.00" departDelay="12.00" arrival="25666.00" arrivalLane="-28198821#4_1" arrivalPos="57.10" arrivalSpeed="12.10" duration="278.00" routeLength="437.47" waitingTime="199.00" waitingCount="5" stopTime="0.00" timeLoss="245.18" rerouteNo="0" devices="tripinfo_95948_394_0 routing_95948_394_0" vType="pkw" speedFactor="0.96" vaporized=""/>
    <tripinfo id="136800_411_0" depart="25618.00" departLane="28198821#3_0" departPos="4.40" departSpeed="0.00" departDelay="0.00" arrival="25666.00" arrivalLane="32324544#0_0" arrivalPos="90.48" arrivalSpeed="16.89" duration="48.00" routeLength="155.13" waitingTime="28.00" waitingCount="1" stopTime="0.00" timeLoss="37.36" rerouteNo="0" devices="tripinfo_136800_411_0 routing_136800_411_0" vType="pkw" speedFactor="0.90" vaporized=""/>
    <tripinfo id="129962_409_0" depart="25622.00" departLane="28198821#3_0" departPos="4.40" departSpeed="0.00" departDelay="0.00" arrival="25672.00" arrivalLane="32038051#0_1" arrivalPos="89.25" arrivalSpeed="17.04" duration="50.00" routeLength="170.57" waitingTime="26.00" waitingCount="2" stopTime="0.00" timeLoss="39.02" rerouteNo="0" devices="tripinfo_129962_409_0 routing_129962_409_0" vType="pkw" speedFactor="0.93" vaporized=""/>