<?xml version="1.0" encoding="UTF-8"?>

<!-- generated on 2023-08-31 13:18:49 by Eclipse SUMO libsumo Version 1.18.0
<configuration xmlns:xsi="http://www.w3.org/2001/XMLSchema-instance" xsi:noNamespaceSchemaLocation="http://sumo.dlr.de/xsd/libsumoConfiguration.xsd">

    <input>
        <net-file value="/home/stefan/RESCO/./environments/cologne1/cologne1.net.xml"/>
        <route-files value="/home/stefan/RESCO/./environments/cologne1/cologne1.rou.xml"/>
    </input>

    <output>
        <tripinfo-output value="/home/stefan/results/RAINBOW-tr0-cologne1-0-drq_norm-wait_norm/tripinfo_74.xml"/>
        <tripinfo-output.write-unfinished value="true"/>
    </output>

    <time>
        <begin value="25200"/>
        <end value="28800"/>
    </time>

    <processing>
        <time-to-teleport value="-1"/>
    </processing>

    <report>
        <no-warnings value="True"/>
        <no-step-log value="True"/>
    </report>

    <random_number>
        <random value="true"/>
    </random_number>

</configuration>
-->

<tripinfos xmlns:xsi="http://www.w3.org/2001/XMLSchema-instance" xsi:noNamespaceSchemaLocation="http://sumo.dlr.de/xsd/tripinfo_file.xsd">
    <tripinfo id="124779_406_0" depart="25205.00" departLane="28198821#3_0" departPos="4.40" departSpeed="0.00" departDelay="0.00" arrival="25222.00" arrivalLane="32038051#0_1" arrivalPos="89.25" arrivalSpeed="14.74" duration="17.00" routeLength="170.57" waitingTime="0.00" waitingCount="0" stopTime="0.00" timeLoss="3.86" rerouteNo="0" devices="tripinfo_124779_406_0 routing_124779_406_0" vType="pkw" speedFactor="0.81" vaporized=""/>
    <tripinfo id="98305_395_0" depart="25211.00" departLane="28198821#3_0" departPos="4.40" departSpeed="0.00" departDelay="0.00" arrival="25228.00" arrivalLane="32038051#0_1" arrivalPos="89.25" arrivalSpeed="21.68" duration="17.00" routeLength="170.57" waitingTime="0.00" waitingCount="0" stopTime="0.00" timeLoss="7.70" rerouteNo="0" devices="tripinfo_98305_395_0 routing_98305_395_0" vType="pkw" speedFactor="1.17" vaporized=""/>
    <tripinfo id="102535_396_0" depart="25218.00" departLane="28198821#3_0" departPos="4.40" departSpeed="0.00" departDelay="0.00" arrival="25233.00" arrivalLane="32038051#0_1" arrivalPos="89.25" arrivalSpeed="16.33" duration="15.00" routeLength="170.57" waitingTime="0.00" waitingCount="0" stopTime="0.00" timeLoss="3.65" rerouteNo="0" devices="tripinfo_102535_396_0 routing_102535_396_0" vType="pkw" speedFactor="0.88" vaporized=""/>
    <tripinfo id="147209_416_0" depart="25220.00" departLane="28198821#3_0" departPos="4.40" departSpeed="0.00" departDelay="0.00" arrival="25235.00" arrivalLane="32038051#0_1" arrivalPos="89.25" arrivalSpeed="19.48" duration="15.00" routeLength="170.57" waitingTime="0.00" waitingCount="0" stopTime="0.00" timeLoss="4.85" rerouteNo="0" devices="tripinfo_147209_416_0 routing_147209_416_0" vType="pkw" speedFactor="1.04" vaporized=""/>
    <tripinfo id="151372_418_0" depart="25207.00" departLane="130165204_0" departPos="4.40" departSpeed="0.00" departDelay="0.00" arrival="25249.00" arrivalLane="32038051#0_1" arrivalPos="89.25" arrivalSpeed="20.73" duration="42.00" routeLength="410.03" waitingTime="4.00" waitingCount="1" stopTime="0.00" timeLoss="17.02" rerouteNo="1" devices="tripinfo_151372_418_0 routing_151372_418_0" vType="pkw" speedFactor="1.09" vaporized=""/>
    <tripinfo id="149029_417_0" depart="25236.00" departLane="27115123#2_0" departPos="4.40" departSpeed="0.00" departDelay="0.00" arrival="25259.00" arrivalLane="32038051#0_1" arrivalPos="89.25" arrivalSpeed="18.33" duration="23.00" routeLength="196.41" waitingTime="1.00" waitingCount="1" stopTime="0.00" timeLoss="11.99" rerouteNo="1" devices="tripinfo_149029_417_0 routing_149029_417_0" vType="pkw" speedFactor="0.97" vaporized=""/>
    <tripinfo id="91582_392_0" depart="25220.00" departLane="-32038056#3_0" departPos="4.40" departSpeed="0.00" departDelay="2.00" arrival="25261.00" arrivalLane="32324544#0_1" arrivalPos="90.48" arrivalSpeed="17.80" duration="41.00" routeLength="465.51" waitingTime="0.00" waitingCount="0" stopTime="0.00" timeLoss="8.39" rerouteNo="0" devices="tripinfo_91582_392_0 routing_91582_392_0" vType="pkw" speedFactor="0.96" vaporized=""/>
    <tripinfo id="123965_406_0" depart="25218.00" departLane="-32038056#3_0" departPos="4.40" departSpeed="0.00" departDelay="0.00" arrival="25282.00" arrivalLane="-28198821#4_0" arrivalPos="57.10" arrivalSpeed="15.76" duration="64.00" routeLength="437.47" waitingTime="24.00" waitingCount="1" stopTime="0.00" timeLoss="36.31" rerouteNo="0" devices="tripinfo_123965_406_0 routing_123965_406_0" vType="pkw" speedFactor="1.16" vaporized=""/>
    <tripinfo id="160150_421_0" depart="25223.00" departLane="-32038056#3_0" departPos="4.40" departSpeed="0.00" departDelay="4.00" arrival="25284.00" arrivalLane="32038051#0_0" arrivalPos="89.25" arrivalSpeed="19.40" duration="61.00" routeLength="446.95" waitingTime="18.00" waitingCount="1" stopTime="0.00" timeLoss="31.13" rerouteNo="0" devices="tripinfo_160150_421_0 routing_160150_421_0" vType="pkw" speedFactor="1.04" vaporized=""/>
    <tripinfo id="162814_422_0" depart="25233.00" departLane="-32038056#3_0" departPos="4.40" departSpeed="0.00" departDelay="0.00" arrival="25286.00" arrivalLane="32038051#0_0" arrivalPos="89.25" arrivalSpeed="17.50" duration="53.00" routeLength="446.95" waitingTime="9.00" waitingCount="1" stopTime="0.00" timeLoss="19.26" rerouteNo="0" devices="tripinfo_162814_422_0 routing_162814_422_0" vType="pkw" speedFactor="0.91" vaporized=""/>
    <tripinfo id="130602_409_0" depart="25268.00" departLane="-32038056#3_0" departPos="4.40" departSpeed="0.00" departDelay="0.00" arrival="25312.00" arrivalLane="-28198821#4_0" arrivalPos="57.10" arrivalSpeed="12.91" duration="44.00" routeLength="437.47" waitingTime="2.00" waitingCount="1" stopTime="0.00" timeLoss="11.89" rerouteNo="0" devices="tripinfo_130602_409_0 routing_130602_409_0" vType="pkw" speedFactor="0.98" vaporized=""/>
    <tripinfo id="128446_408_0" depart="25273.00" departLane="-32038056#3_0" departPos="4.40" departSpeed="0.00" departDelay="0.00" arrival="25313.00" arrivalLane="32324544#0_1" arrivalPos="90.48" arrivalSpeed="19.64" duration="40.00" routeLength="465.51" waitingTime="0.00" waitingCount="0" stopTime="0.00" timeLoss="9.88" rerouteNo="0" devices="tripinfo_128446_408_0 routing_128446_408_0" vType="pkw" speedFactor="1.04" vaporized=""/>
    <tripinfo id="136082_411_0" depart="25278.00" departLane="-32038056#3_0" departPos="4.40" departSpeed="0.00" departDelay="1.00" arrival="25316.00" arrivalLane="32038051#0_0" arrivalPos="89.25" arrivalSpeed="17.93" duration="38.00" routeLength="446.95" waitingTime="1.00" waitingCount="1" stopTime="0.00" timeLoss="5.70" rerouteNo="0" devices="tripinfo_136082_411_0 routing_136082_411_0" vType="pkw" speedFactor="0.95" vaporized=""/>
    <tripinfo id="115444_403_0" depart="25294.00" departLane="28198821#3_0" departPos="4.40" departSpeed="0.00" departDelay="0.00" arrival="25318.00" arrivalLane="32038051#0_1" arrivalPos="89.25" arrivalSpeed="21.11" duration="24.00" routeLength="170.57" waitingTime="0.00" waitingCount="0" stopTime="0.00" timeLoss="14.83" rerouteNo="0" devices="tripinfo_115444_403_0 routing_115444_403_0" vType="pkw" speedFactor="1.20" vaporized=""/>
    <tripinfo id="83516_390_0" depart="25276.00" departLane="-32038056#3_0" departPos="4.40" departSpeed="0.00" departDelay="1.00" arrival="25320.00" arrivalLane="32324544#0_1" arrivalPos="90.48" arrivalSpeed="16.03" duration="44.00" routeLength="465.51" waitingTime="0.00" waitingCount="0" stopTime="0.00" timeLoss="7.23" rerouteNo="0" devices="tripinfo_83516_390_0 routing_83516_390_0" vType="pkw" speedFactor="0.85" vaporized=""/>
    <tripinfo id="103540_397_0" depart="25300.00" departLane="28198821#3_0" departPos="4.40" departSpeed="0.00" departDelay="0.00" arrival="25320.00" arrivalLane="32038051#0_1" arrivalPos="89.25" arrivalSpeed="18.83" duration="20.00" routeLength="170.57" waitingTime="0.00" waitingCount="0" stopTime="0.00" timeLoss="9.14" rerouteNo="0" devices="tripinfo_103540_397_0 routing_103540_397_0" vType="pkw" speedFactor="1.00" vaporized=""/>
    <tripinfo id="113303_402_0" depart="25284.00" departLane="-32038056#3_0" departPos="4.40" departSpeed="0.00" departDelay="1.00" arrival="25323.00" arrivalLane="32324544#0_1" arrivalPos="90.48" arrivalSpeed="17.42" duration="39.00" routeLength="465.51" waitingTime="0.00" waitingCount="0" stopTime="0.00" timeLoss="5.19" rerouteNo="0" devices="tripinfo_113303_402_0 routing_113303_402_0" vType="pkw" speedFactor="0.93" vaporized=""/>
    <tripinfo id="162096_421_0" depart="25306.00" departLane="130165204_0" departPos="4.40" departSpeed="0.00" departDelay="0.00" arrival="25342.00" arrivalLane="32038051#0_1" arrivalPos="89.25" arrivalSpeed="18.16" duration="36.00" routeLength="410.03" waitingTime="0.00" waitingCount="0" stopTime="0.00" timeLoss="11.17" rerouteNo="1" devices="tripinfo_162096_421_0 routing_162096_421_0" vType="pkw" speedFactor="1.07" vaporized=""/>
    <tripinfo id="175147_428_0" depart="25324.00" departLane="130165204_0" departPos="4.40" departSpeed="0.00" departDelay="0.00" arrival="25369.00" arrivalLane="32038051#0_1" arrivalPos="89.25" arrivalSpeed="18.58" duration="45.00" routeLength="410.03" waitingTime="4.00" waitingCount="1" stopTime="0.00" timeLoss="18.73" rerouteNo="1" devices="tripinfo_175147_428_0 routing_175147_428_0" vType="pkw" speedFactor="1.02" vaporized=""/>
    <tripinfo id="161721_421_0" depart="25337.00" departLane="130165204_0" departPos="4.40" departSpeed="0.00" departDelay="0.00" arrival="25378.00" arrivalLane="32038051#0_1" arrivalPos="89.25" arrivalSpeed="18.14" duration="41.00" routeLength="410.03" waitingTime="1.00" waitingCount="1" stopTime="0.00" timeLoss="12.88" rerouteNo="1" devices="tripinfo_161721_421_0 routing_161721_421_0" vType="pkw" speedFactor="0.94" vaporized=""/>
    <tripinfo id="121258_405_0" depart="25240.00" departLane="23429231#1_0" departPos="4.40" departSpeed="0.00" departDelay="0.00" arrival="25403.00" arrivalLane="32038051#0_0" arrivalPos="89.25" arrivalSpeed="16.06" duration="163.00" routeLength="203.79" waitingTime="139.00" waitingCount="1" stopTime="0.00" timeLoss="150.10" rerouteNo="0" devices="tripinfo_121258_405_0 routing_121258_405_0" vType="pkw" speedFactor="0.85" vaporized=""/>
    <tripinfo id="126742_407_0" depart="25242.00" departLane="23429231#1_0" departPos="4.40" departSpeed="0.00" departDelay="2.00" arrival="25403.00" arrivalLane="32038051#0_1" arrivalPos="89.25" arrivalSpeed="21.16" duration="161.00" routeLength="203.79" waitingTime="137.00" waitingCount="1" stopTime="0.00" timeLoss="150.86" rerouteNo="0" devices="tripinfo_126742_407_0 routing_126742_407_0" vType="pkw" speedFactor="1.12" vaporized=""/>
    <tripinfo id="148629_417_0" depart="25284.00" departLane="27115123#2_0" departPos="4.40" departSpeed="0.00" departDelay="0.00" arrival="25403.00" arrivalLane="32324544#0_0" arrivalPos="90.48" arrivalSpeed="20.76" duration="119.00" routeLength="198.06" waitingTime="96.00" waitingCount="1" stopTime="0.00" timeLoss="109.04" rerouteNo="1" devices="tripinfo_148629_417_0 routing_148629_417_0" vType="pkw" speedFactor="1.12" vaporized=""/>
    <tripinfo id="102501_396_0" depart="25245.00" departLane="23429231#1_0" departPos="4.40" departSpeed="0.00" departDelay="1.00" arrival="25404.00" arrivalLane="32038051#0_0" arrivalPos="89.25" arrivalSpeed="18.22" duration="159.00" routeLength="203.79" waitingTime="134.00" waitingCount="1" stopTime="0.00" timeLoss="148.29" rerouteNo="0" devices="tripinfo_102501_396_0 routing_102501_396_0" vType="pkw" speedFactor="0.99" vaporized=""/>
    <tripinfo id="120663_405_0" depart="25248.00" departLane="23429231#1_0" departPos="4.40" departSpeed="0.00" departDelay="2.00" arrival="25405.00" arrivalLane="32038051#0_1" arrivalPos="89.25" arrivalSpeed="18.52" duration="157.00" routeLength="203.79" waitingTime="131.00" waitingCount="1" stopTime="0.00" timeLoss="146.16" rerouteNo="0" devices="tripinfo_120663_405_0 routing_120663_405_0" vType="pkw" speedFactor="1.02" vaporized=""/>
    <tripinfo id="113509_402_0" depart="25251.00" departLane="23429231#1_0" departPos="4.40" departSpeed="0.00" departDelay="3.00" arrival="25406.00" arrivalLane="-28198821#4_1" arrivalPos="57.10" arrivalSpeed="13.85" duration="155.00" routeLength="179.90" waitingTime="131.00" waitingCount="1" stopTime="0.00" timeLoss="143.86" rerouteNo="0" devices="tripinfo_113509_402_0 routing_113509_402_0" vType="pkw" speedFactor="1.03" vaporized=""/>
    <tripinfo id="130147_409_0" depart="25253.00" departLane="23429231#1_0" departPos="4.40" departSpeed="0.00" departDelay="2.00" arrival="25406.00" arrivalLane="32038051#0_0" arrivalPos="89.25" arrivalSpeed="16.81" duration="153.00" routeLength="203.79" waitingTime="129.00" waitingCount="1" stopTime="0.00" timeLoss="141.01" rerouteNo="0" devices="tripinfo_130147_409_0 routing_130147_409_0" vType="pkw" speedFactor="0.91" vaporized=""/>
    <tripinfo id="102630_396_0" depart="25256.00" departLane="23429231#1_0" departPos="4.40" departSpeed="0.00" departDelay="4.00" arrival="25407.00" arrivalLane="32038051#0_0" arrivalPos="89.25" arrivalSpeed="18.64" duration="151.00" routeLength="203.79" waitingTime="126.00" waitingCount="1" stopTime="0.00" timeLoss="140.64" rerouteNo="0" devices="tripinfo_102630_396_0 routing_102630_396_0" vType="pkw" speedFactor="1.02" vaporized=""/>
    <tripinfo id="137320_412_0" depart="25414.00" departLane="130165204_0" departPos="4.40" departSpeed="0.00" departDelay="0.00" arrival="25459.00" arrivalLane="32038051#0_1" arrivalPos="89.25" arrivalSpeed="16.18" duration="45.00" routeLength="410.03" waitingTime="1.00" waitingCount="1" stopTime="0.00" timeLoss="14.49" rerouteNo="1" devices="tripinfo_137320_412_0 routing_137320_412_0" vType="pkw" speedFactor="0.86" vaporized=""/>
    <tripinfo id="137244_412_0" depart="25296.00" departLane="-32038056#3_0" departPos="4.40" departSpeed="0.00" departDelay="2.00" arrival="25468.00" arrivalLane="-28198821#4_0" arrivalPos="57.10" arrivalSpeed="12.28" duration="172.00" routeLength="437.47" waitingTime="127.00" waitingCount="1" stopTime="0.00" timeLoss="139.25" rerouteNo="0" devices="tripinfo_137244_412_0 routing_137244_412_0" vType="pkw" speedFactor="0.96" vaporized=""/>
    <tripinfo id="85818_390_0" depart="25281.00" departLane="-32038056#3_0" departPos="4.40" departSpeed="0.00" departDelay="1.00" arrival="25469.00" arrivalLane="32038051#0_0" arrivalPos="89.25" arrivalSpeed="17.59" duration="188.00" routeLength="446.95" waitingTime="145.00" waitingCount="2" stopTime="0.00" timeLoss="155.96" rerouteNo="0" devices="tripinfo_85818_390_0 routing_85818_390_0" vType="pkw" speedFactor="0.95" vaporized=""/>
    <tripinfo id="136669_411_0" depart="25566.00" departLane="28198821#3_0" departPos="4.40" departSpeed="0.00" departDelay="0.00" arrival="25580.00" arrivalLane="32038051#0_1" arrivalPos="89.25" arrivalSpeed="19.57" duration="14.00" routeLength="170.57" waitingTime="0.00" waitingCount="0" stopTime="0.00" timeLoss="3.97" rerouteNo="0" devices="tripinfo_136669_411_0 routing_136669_411_0" vType="pkw" speedFactor="1.03" vaporized=""/>
    <tripinfo id="122376_406_0" depart="25259.00" departLane="23429231#1_0" departPos="4.40" departSpeed="0.00" departDelay="5.00" arrival="25753.00" arrivalLane="32038051#0_1" arrivalPos="89.25" arrivalSpeed="18.04" duration="494.00" routeLength="203.79" waitingTime="465.00" waitingCount="2" stopTime="0.00" timeLoss="482.80" rerouteNo="0" devices="tripinfo_122376_406_0 routing_122376_406_0" vType="pkw" speedFactor="0.98" vaporized=""/>
    <tripinfo id="122194_406_0" depart="25262.00" departLane="23429231#1_0" departPos="4.40" departSpeed="0.00" departDelay="7.00" arrival="25753.00" arrivalLane="32038051#0_0" arrivalPos="89.25" arrivalSpeed="18.85" duration="491.00" routeLength="203.79" waitingTime="462.00" waitingCount="2" stopTime="0.00" timeLoss="480.43" rerouteNo="0" devices="tripinfo_122194_406_0 routing_122194_406_0" vType="pkw" speedFactor="1.03" vaporized=""/>
    <tripinfo id="154290_420_0" depart="25431.00" departLane="27115123#2_0" departPos="4.40" departSpeed="0.00" departDelay="0.00" arrival="25753.00" arrivalLane="32324544#0_0" arrivalPos="90.48" arrivalSpeed="17.04" duration="322.00" routeLength="198.06" waitingTime="297.00" waitingCount="1" stopTime="0.00" timeLoss="311.72" rerouteNo="1" devices="tripinfo_154290_420_0 routing_154290_420_0" vType="pkw" speedFactor="1.01" vaporized=""/>
    <tripinfo id="129330_408_0" depart="25434.00" departLane="27115123#2_0" departPos="4.40" departSpeed="0.00" departDelay="2.00" arrival="25753.00" arrivalLane="32324544#0_1" arrivalPos="90.48" arrivalSpeed="17.44" duration="319.00" routeLength="198.06" waitingTime="292.00" waitingCount="2" stopTime="0.00" timeLoss="307.04" rerouteNo="1" devices="tripinfo_129330_408_0 routing_129330_408_0" vType="pkw" speedFactor="0.90" vaporized=""/>
    <tripinfo id="135103_411_0" depart="25265.00" departLane="23429231#1_0" departPos="4.40" departSpeed="0.00" departDelay="9.00" arrival="25755.00" arrivalLane="32038051#0_1" arrivalPos="89.25" arrivalSpeed="19.70" duration="490.00" routeLength="203.79" waitingTime="460.00" waitingCount="2" stopTime="0.00" timeLoss="481.18" rerouteNo="0" devices="tripinfo_135103_411_0 routing_135103_411_0" vType="pkw" speedFactor="1.22" vaporized=""/>
    <tripinfo id="125613_406_0" depart="25270.00" departLane="23429231#1_0" departPos="4.40" departSpeed="0.00" departDelay="12.00" arrival="25755.00" arrivalLane="32038051#0_0" arrivalPos="89.25" arrivalSpeed="19.91" duration="485.00" routeLength="203.79" waitingTime="455.00" waitingCount="2" stopTime="0.00" timeLoss="474.25" rerouteNo="0" devices="tripinfo_125613_406_0 routing_125613_406_0" vType="pkw" speedFactor="1.07" vaporized=""/>
    <tripinfo id="153635_420_0" depart="25460.00" departLane="27115123#2_0" departPos="4.40" departSpeed="0.00" departDelay="0.00" arrival="25755.00" arrivalLane="32324544#0_0" arrivalPos="90.48" arrivalSpeed="19.29" duration="295.00" routeLength="198.06" waitingTime="272.00" waitingCount="1" stopTime="0.00" timeLoss="284.04" rerouteNo="1" devices="tripinfo_153635_420_0 routing_153635_420_0" vType="pkw" speedFactor="1.00" vaporized=""/>
    <tripinfo id="145855_416_0" depart="25469.00" departLane="27115123#2_0" departPos="4.40" departSpeed="0.00" departDelay="0.00" arrival="25755.00" arrivalLane="32324544#0_1" arrivalPos="90.48" arrivalSpeed="22.64" duration="286.00" routeLength="198.06" waitingTime="261.00" waitingCount="1" stopTime="0.00" timeLoss="276.37" rerouteNo="1" devices="tripinfo_145855_416_0 routing_145855_416_0" vType="pkw" speedFactor="1.18" vaporized=""/>
    <tripinfo id="133955_411_0" depart="25273.00" departLane="23429231#1_0" departPos="4.40" departSpeed="0.00" departDelay="14.00" arrival="25756.00" arrivalLane="32038051#0_0" arrivalPos="89.25" arrivalSpeed="19.03" duration="483.00" routeLength="203.79" waitingTime="453.00" waitingCount="2" stopTime="0.00" timeLoss="472.17" rerouteNo="0" devices="tripinfo_133955_411_0 routing_133955_411_0" vType="pkw" speedFactor="1.01" vaporized=""/>
    <tripinfo id="164382_422_0" depart="25469.00" departLane="130165204_0" departPos="4.40" departSpeed="0.00" departDelay="0.00" arrival="25756.00" arrivalLane="32324544#0_1" arrivalPos="90.48" arrivalSpeed="19.63" duration="287.00" routeLength="411.68" waitingTime="245.00" waitingCount="1" stopTime="0.00" timeLoss="260.83" rerouteNo="1" devices="tripinfo_164382_422_0 routing_164382_422_0" vType="pkw" speedFactor="1.03" vaporized=""/>
    <tripinfo id="152958_419_0" depart="25268.00" departLane="23429231#1_0" departPos="4.40" departSpeed="0.00" departDelay="11.00" arrival="25757.00" arrivalLane="32038051#0_1" arrivalPos="89.25" arrivalSpeed="20.19" duration="489.00" routeLength="203.79" waitingTime="457.00" waitingCount="2" stopTime="0.00" timeLoss="478.74" rerouteNo="0" devices="tripinfo_152958_419_0 routing_152958_419_0" vType="pkw" speedFactor="1.10" vaporized=""/>
    <tripinfo id="161689_421_0" depart="25467.00" departLane="130165204_0" departPos="4.40" departSpeed="0.00" departDelay="0.00" arrival="25757.00" arrivalLane="32324544#0_0" arrivalPos="90.48" arrivalSpeed="16.67" duration="290.00" routeLength="411.68" waitingTime="245.00" waitingCount="1" stopTime="0.00" timeLoss="258.74" rerouteNo="1" devices="tripinfo_161689_421_0 routing_161689_421_0" vType="pkw" speedFactor="0.86" vaporized=""/>
    <tripinfo id="159287_421_0" depart="25503.00" departLane="27115123#2_0" departPos="4.40" departSpeed="0.00" departDelay="0.00" arrival="25758.00" arrivalLane="32324544#0_1" arrivalPos="90.48" arrivalSpeed="20.24" duration="255.00" routeLength="198.06" waitingTime="230.00" waitingCount="1" stopTime="0.00" timeLoss="244.43" rerouteNo="1" devices="tripinfo_159287_421_0 routing_159287_421_0" vType="pkw" speedFactor="1.05" vaporized=""/>
    <tripinfo id="125917_406_0" depart="25547.00" departLane="28198821#3_0" departPos="4.40" departSpeed="0.00" departDelay="0.00" arrival="25772.00" arrivalLane="32324544#0_0" arrivalPos="90.48" arrivalSpeed="18.62" duration="225.00" routeLength="155.13" waitingTime="206.00" waitingCount="1" stopTime="0.00" timeLoss="214.86" rerouteNo="0" devices="tripinfo_125917_406_0 routing_125917_406_0" vType="pkw" speedFactor="0.96" vaporized=""/>
    <tripinfo id="86583_391_0" depart="25289.00" departLane="-32038056#3_0" departPos="4.40" departSpeed="0.00" departDelay="0.00" arrival="25773.00" arrivalLane="32038051#0_0" arrivalPos="89.25" arrivalSpeed="18.68" duration="484.00" routeLength="446.95" waitingTime="438.00" waitingCount="2" stopTime="0.00" timeLoss="451.81" rerouteNo="0" devices="tripinfo_86583_391_0 routing_86583_391_0" vType="pkw" speedFactor="0.96" vaporized=""/>
    <tripinfo id="142412_415_0" depart="25307.00" departLane="-32038056#3_0" departPos="4.40" departSpeed="0.00" departDelay="0.00" arrival="25773.00" arrivalLane="-28198821#4_0" arrivalPos="57.10" arrivalSpeed="11.93" duration="466.00" routeLength="437.47" waitingTime="418.00" waitingCount="2" stopTime="0.00" timeLoss="430.74" rerouteNo="0" devices="tripinfo_142412_415_0 routing_142412_415_0" vType="pkw" speedFactor="0.91" vaporized=""/>
    <tripinfo id="120878_405_0" depart="25291.00" departLane="-32038056#3_0" departPos="4.40" departSpeed="0.00" departDelay="0.00" arrival="25774.00" arrivalLane="32038051#0_0" arrivalPos="89.25" arrivalSpeed="18.79" duration="483.00" routeLength="446.95" waitingTime="436.00" waitingCount="2" stopTime="0.00" timeLoss="453.42" rerouteNo="0" devices="tripinfo_120878_405_0 routing_120878_405_0" vType="pkw" speedFactor="1.03" vaporized=""/>
    <tripinfo id="184119_431_0" depart="25582.00" departLane="28198821#3_0" departPos="4.40" departSpeed="0.00" departDelay="0.00" arrival="25774.00" arrivalLane="32324544#0_0" arrivalPos="90.48" arrivalSpeed="18.74" duration="192.00" routeLength="155.13" waitingTime="172.00" waitingCount="1" stopTime="0.00" timeLoss="182.26" rerouteNo="0" devices="tripinfo_184119_431_0 routing_184119_431_0" vType="pkw" speedFactor="0.97" vaporized=""/>
    <tripinfo id="138220_412_0" depart="25309.00" departLane="-32038056#3_0" departPos="4.40" departSpeed="0.00" departDelay="0.00" arrival="25775.00" arrivalLane="-28198821#4_1" arrivalPos="57.10" arrivalSpeed="11.72" duration="466.00" routeLength="437.47" waitingTime="416.00" waitingCount="2" stopTime="0.00" timeLoss="432.50" rerouteNo="0" devices="tripinfo_138220_412_0 routing_138220_412_0" vType="pkw" speedFactor="0.95" vaporized=""/>
    <tripinfo id="85922_391_0" depart="25294.00" departLane="-32038056#3_0" departPos="4.40" departSpeed="0.00" departDelay="1.00" arrival="25776.00" arrivalLane="32038051#0_0" arrivalPos="89.25" arrivalSpeed="19.14" duration="482.00" routeLength="446.95" waitingTime="433.00" waitingCount="2" stopTime="0.00" timeLoss="451.61" rerouteNo="0" devices="tripinfo_85922_391_0 routing_85922_391_0" vType="pkw" speedFactor="1.02" vaporized=""/>
    <tripinfo id="136800_411_0" depart="25618.00" departLane="28198821#3_0" departPos="4.40" departSpeed="0.00" departDelay="0.00" arrival="25776.00" arrivalLane="32324544#0_0" arrivalPos="90.48" arrivalSpeed="19.28" duration="158.00" routeLength="155.13" waitingTime="137.00" waitingCount="1" stopTime="0.00" timeLoss="149.23" rerouteNo="0" devices="tripinfo_136800_411_0 routing_136800_411_0" vType="pkw" speedFactor="1.07" vaporized=""/>
    <tripinfo id="167799_425_0" depart="25327.00" departLane="-32038056#3_0" departPos="4.40" departSpeed="0.00" departDelay="0.00" arrival="25777.00" arrivalLane="-28198821#4_1" arrivalPos="57.10" arrivalSpeed="13.19" duration="450.00" routeLength="437.47" waitingTime="403.00" waitingCount="2" stopTime="0.00" timeLoss="422.08" rerouteNo="0" devices="tripinfo_167799_425_0 routing_167799_425_0" vType="pkw" speedFactor="1.15" vaporized=""/>
    <tripinfo id="130372_409_0" depart="25330.00" departLane="-32038056#3_0" departPos="4.40" departSpeed="0.00" departDelay="3.00" arrival="25780.00" arrivalLane="32324544#0_1" arrivalPos="90.48" arrivalSpeed="19.27" duration="450.00" routeLength="465.51" waitingTime="400.00" waitingCount="2" stopTime="0.00" timeLoss="419.78" rerouteNo="0" devices="tripinfo_130372_409_0 routing_130372_409_0" vType="pkw" speedFactor="1.05" vaporized=""/>
    <tripinfo id="104806_398_0" depart="25333.00" departLane="-32038056#3_0" departPos="4.40" departSpeed="0.00" departDelay="4.00" arrival="25782.00" arrivalLane="32324544#0_1" arrivalPos="90.48" arrivalSpeed="17.43" duration="449.00" routeLength="465.51" waitingTime="395.00" waitingCount="2" stopTime="0.00" timeLoss="413.94" rerouteNo="0" devices="tripinfo_104806_398_0 routing_104806_398_0" vType="pkw" speedFactor="0.91" vaporized=""/>
    <tripinfo id="150753_418_0" depart="25352.00" departLane="-32038056#3_0" departPos="4.40" departSpeed="0.00" departDelay="1.00" arrival="25783.00" arrivalLane="32324544#0_1" arrivalPos="90.48" arrivalSpeed="17.97" duration="431.00" routeLength="465.51" waitingTime="378.00" waitingCount="2" stopTime="0.00" timeLoss="400.79" rerouteNo="0" devices="tripinfo_150753_418_0 routing_150753_418_0" vType="pkw" speedFactor="1.04" vaporized=""/>
    <tripinfo id="129962_409_0" depart="25622.00" departLane="28198821#3_0" departPos="4.40" departSpeed="0.00" departDelay="0.00" arrival="25783.00" arrivalLane="32038051#0_1" arrivalPos="89.25" arrivalSpeed="15.92" duration="161.00" routeLength="170.57" waitingTime="133.00" waitingCount="2" stopTime="0.00" timeLoss="148.84" rerouteNo="0" devices="tripinfo_129962_409_0 routing_129962_409_0" vType="pkw" speedFactor="0.84" vaporized=""/>
    <tripinfo id="153000_419_0" depart="25635.00" departLane="28198821#3_0" departPos="4.40" departSpeed="0.00" departDelay="0.00" arrival="25785.00" arrivalLane="32038051#0_1" arrivalPos="89.25" arrivalSpeed="17.59" duration="150.00" routeLength="170.57" waitingTime="121.00" waitingCount="1" stopTime="0.00" timeLoss="138.43" rerouteNo="0" devices="tripinfo_153000_419_0 routing_153000_419_0" vType="pkw" speedFactor="0.94" vaporized=""/>
    <tripinfo id="183244_431_0" depart="25637.00" departLane="28198821#3_0" departPos="4.40" departSpeed="0.00" departDelay="0.00" arrival="25786.00" arrivalLane="32038051#0_1" arrivalPos="89.25" arrivalSpeed="17.70" duration="149.00" routeLength="170.57" waitingTime="120.00" waitingCount="2" stopTime="0.00" timeLoss="137.77" rerouteNo="0" devices="tripinfo_183244_431_0 routing_183244_431_0" vType="pkw" speedFactor="0.93" vaporized=""/>
    <tripinfo id="147215_416_0" depart="25603.00" departLane="28198821#3_0" departPos="4.40" departSpeed="0.00" departDelay="0.00" arrival="25791.00" arrivalLane="32038056#0_0" arrivalPos="352.87" arrivalSpeed="15.80" duration="188.00" routeLength="439.14" waitingTime="149.00" waitingCount="1" stopTime="0.00" timeLoss="160.04" rerouteNo="0" devices="tripinfo_147215_416_0 routing_147215_416_0" vType="pkw" speedFactor="1.17" vaporized=""/>
    <tripinfo id="183534_431_0" depart="25639.00" departLane="28198821#3_0" departPos="4.40" departSpeed="0.00" departDelay="0.00" arrival="25793.00" arrivalLane="32038051#0_1" arrivalPos="89.25" arrivalSpeed="16.97" duration="154.00" routeLength="170.57" waitingTime="123.00" waitingCount="3" stopTime="0.00" timeLoss="142.29" rerouteNo="0" devices="tripinfo_183534_431_0 routing_183534_431_0" vType="pkw" speedFactor="0.90" vaporized=""/>
    <tripinfo id="115533_403_0" depart="25644.00" departLane="28198821#3_0" departPos="4.40" departSpeed="0.00" departDelay="2.00" arrival="25795.00" arrivalLane="32038051#0_1" arrivalPos="89.25" arrivalSpeed="17.59" duration="151.00" routeLength="170.57" waitingTime="120.00" waitingCount="2" stopTime="0.00" timeLoss="139.77" rerouteNo="0" devices="tripinfo_115533_403_0 routing_115533_403_0" vType="pkw" speedFactor="0.93" vaporized=""/>
    <tripinfo id="121463_406_0" depart="25610.00" departLane="28198821#3_0" departPos="4.40" departSpeed="0.00" departDelay="0.00" arrival="25796.00" arrivalLane="32038056#0_0" arrivalPos="352.87" arrivalSpeed="13.66" duration="186.00" routeLength="439.14" waitingTime="144.00" waitingCount="1" stopTime="0.00" timeLoss="154.11" rerouteNo="0" devices="tripinfo_121463_406_0 routing_121463_406_0" vType="pkw" speedFactor="1.02" vaporized=""/>
    <tripinfo id="135138_411_0" depart="25350.00" departLane="-32038056#3_0" departPos="4.40" departSpeed="0.00" departDelay="1.00" arrival="25968.00" arrivalLane="-28198821#4_1" arrivalPos="57.10" arrivalSpeed="12.56" duration="618.00" routeLength="437.47" waitingTime="557.00" waitingCount="3" stopTime="0.00" timeLoss="584.28" rerouteNo="0" devices="tripinfo_135138_411_0 routing_135138_411_0" vType="pkw" speedFactor="0.94" vaporized=""/>