<?xml version="1.0" encoding="UTF-8"?>

<!-- generated on 2023-08-31 13:18:38 by Eclipse SUMO libsumo Version 1.18.0
<configuration xmlns:xsi="http://www.w3.org/2001/XMLSchema-instance" xsi:noNamespaceSchemaLocation="http://sumo.dlr.de/xsd/libsumoConfiguration.xsd">

    <input>
        <net-file value="/home/stefan/RESCO/./environments/cologne1/cologne1.net.xml"/>
        <route-files value="/home/stefan/RESCO/./environments/cologne1/cologne1.rou.xml"/>
    </input>

    <output>
        <tripinfo-output value="/home/stefan/results/RAINBOW-tr0-cologne1-0-drq_norm-wait_norm/tripinfo_72.xml"/>
        <tripinfo-output.write-unfinished value="true"/>
    </output>

    <time>
        <begin value="25200"/>
        <end value="28800"/>
    </time>

    <processing>
        <time-to-teleport value="-1"/>
    </processing>

    <report>
        <no-warnings value="True"/>
        <no-step-log value="True"/>
    </report>

    <random_number>
        <random value="true"/>
    </random_number>

</configuration>
-->

<tripinfos xmlns:xsi="http://www.w3.org/2001/XMLSchema-instance" xsi:noNamespaceSchemaLocation="http://sumo.dlr.de/xsd/tripinfo_file.xsd">
    <tripinfo id="124779_406_0" depart="25205.00" departLane="28198821#3_0" departPos="4.40" departSpeed="0.00" departDelay="0.00" arrival="25221.00" arrivalLane="32038051#0_1" arrivalPos="89.25" arrivalSpeed="19.14" duration="16.00" routeLength="170.57" waitingTime="0.00" waitingCount="0" stopTime="0.00" timeLoss="5.68" rerouteNo="0" devices="tripinfo_124779_406_0 routing_124779_406_0" vType="pkw" speedFactor="1.04" vaporized=""/>
    <tripinfo id="98305_395_0" depart="25211.00" departLane="28198821#3_0" departPos="4.40" departSpeed="0.00" departDelay="0.00" arrival="25233.00" arrivalLane="32038051#0_1" arrivalPos="89.25" arrivalSpeed="19.44" duration="22.00" routeLength="170.57" waitingTime="4.00" waitingCount="1" stopTime="0.00" timeLoss="12.01" rerouteNo="0" devices="tripinfo_98305_395_0 routing_98305_395_0" vType="pkw" speedFactor="1.05" vaporized=""/>
    <tripinfo id="102535_396_0" depart="25218.00" departLane="28198821#3_0" departPos="4.40" departSpeed="0.00" departDelay="0.00" arrival="25235.00" arrivalLane="32038051#0_1" arrivalPos="89.25" arrivalSpeed="16.03" duration="17.00" routeLength="170.57" waitingTime="0.00" waitingCount="0" stopTime="0.00" timeLoss="5.06" rerouteNo="0" devices="tripinfo_102535_396_0 routing_102535_396_0" vType="pkw" speedFactor="0.84" vaporized=""/>
    <tripinfo id="147209_416_0" depart="25220.00" departLane="28198821#3_0" departPos="4.40" departSpeed="0.00" departDelay="0.00" arrival="25238.00" arrivalLane="32038051#0_1" arrivalPos="89.25" arrivalSpeed="16.77" duration="18.00" routeLength="170.57" waitingTime="0.00" waitingCount="0" stopTime="0.00" timeLoss="6.71" rerouteNo="0" devices="tripinfo_147209_416_0 routing_147209_416_0" vType="pkw" speedFactor="0.93" vaporized=""/>
    <tripinfo id="151372_418_0" depart="25207.00" departLane="130165204_0" departPos="4.40" departSpeed="0.00" departDelay="0.00" arrival="25249.00" arrivalLane="32038051#0_1" arrivalPos="89.25" arrivalSpeed="18.32" duration="42.00" routeLength="410.03" waitingTime="0.00" waitingCount="0" stopTime="0.00" timeLoss="14.01" rerouteNo="1" devices="tripinfo_151372_418_0 routing_151372_418_0" vType="pkw" speedFactor="0.95" vaporized=""/>
    <tripinfo id="149029_417_0" depart="25236.00" departLane="27115123#2_0" departPos="4.40" departSpeed="0.00" departDelay="0.00" arrival="25254.00" arrivalLane="32038051#0_1" arrivalPos="89.25" arrivalSpeed="16.61" duration="18.00" routeLength="196.41" waitingTime="0.00" waitingCount="0" stopTime="0.00" timeLoss="6.36" rerouteNo="1" devices="tripinfo_149029_417_0 routing_149029_417_0" vType="pkw" speedFactor="0.90" vaporized=""/>
    <tripinfo id="121258_405_0" depart="25240.00" departLane="23429231#1_0" departPos="4.40" departSpeed="0.00" departDelay="0.00" arrival="25257.00" arrivalLane="32038051#0_0" arrivalPos="89.25" arrivalSpeed="15.56" duration="17.00" routeLength="203.79" waitingTime="0.00" waitingCount="0" stopTime="0.00" timeLoss="4.58" rerouteNo="0" devices="tripinfo_121258_405_0 routing_121258_405_0" vType="pkw" speedFactor="0.86" vaporized=""/>
    <tripinfo id="91582_392_0" depart="25221.00" departLane="-32038056#3_0" departPos="4.40" departSpeed="0.00" departDelay="3.00" arrival="25264.00" arrivalLane="32324544#0_1" arrivalPos="90.48" arrivalSpeed="19.57" duration="43.00" routeLength="465.51" waitingTime="0.00" waitingCount="0" stopTime="0.00" timeLoss="13.16" rerouteNo="0" devices="tripinfo_91582_392_0 routing_91582_392_0" vType="pkw" speedFactor="1.07" vaporized=""/>
    <tripinfo id="115444_403_0" depart="25294.00" departLane="28198821#3_0" departPos="4.40" departSpeed="0.00" departDelay="0.00" arrival="25312.00" arrivalLane="32038051#0_1" arrivalPos="89.25" arrivalSpeed="19.44" duration="18.00" routeLength="170.57" waitingTime="0.00" waitingCount="0" stopTime="0.00" timeLoss="7.90" rerouteNo="0" devices="tripinfo_115444_403_0 routing_115444_403_0" vType="pkw" speedFactor="1.06" vaporized=""/>
    <tripinfo id="103540_397_0" depart="25300.00" departLane="28198821#3_0" departPos="4.40" departSpeed="0.00" departDelay="0.00" arrival="25314.00" arrivalLane="32038051#0_1" arrivalPos="89.25" arrivalSpeed="18.11" duration="14.00" routeLength="170.57" waitingTime="0.00" waitingCount="0" stopTime="0.00" timeLoss="3.10" rerouteNo="0" devices="tripinfo_103540_397_0 routing_103540_397_0" vType="pkw" speedFactor="0.99" vaporized=""/>
    <tripinfo id="162096_421_0" depart="25306.00" departLane="130165204_0" departPos="4.40" departSpeed="0.00" departDelay="0.00" arrival="25337.00" arrivalLane="32038051#0_1" arrivalPos="89.25" arrivalSpeed="22.80" duration="31.00" routeLength="410.03" waitingTime="0.00" waitingCount="0" stopTime="0.00" timeLoss="8.96" rerouteNo="1" devices="tripinfo_162096_421_0 routing_162096_421_0" vType="pkw" speedFactor="1.22" vaporized=""/>
    <tripinfo id="175147_428_0" depart="25324.00" departLane="130165204_0" departPos="4.40" departSpeed="0.00" departDelay="0.00" arrival="25369.00" arrivalLane="32038051#0_1" arrivalPos="89.25" arrivalSpeed="15.48" duration="45.00" routeLength="410.03" waitingTime="0.00" waitingCount="0" stopTime="0.00" timeLoss="13.49" rerouteNo="1" devices="tripinfo_175147_428_0 routing_175147_428_0" vType="pkw" speedFactor="0.84" vaporized=""/>
    <tripinfo id="102501_396_0" depart="25246.00" departLane="23429231#1_0" departPos="4.40" departSpeed="0.00" departDelay="2.00" arrival="25373.00" arrivalLane="32038051#0_0" arrivalPos="89.25" arrivalSpeed="21.95" duration="127.00" routeLength="203.79" waitingTime="102.00" waitingCount="1" stopTime="0.00" timeLoss="117.18" rerouteNo="0" devices="tripinfo_102501_396_0 routing_102501_396_0" vType="pkw" speedFactor="1.18" vaporized=""/>
    <tripinfo id="148629_417_0" depart="25284.00" departLane="27115123#2_0" departPos="4.40" departSpeed="0.00" departDelay="0.00" arrival="25373.00" arrivalLane="32324544#0_0" arrivalPos="90.48" arrivalSpeed="18.07" duration="89.00" routeLength="198.06" waitingTime="66.00" waitingCount="1" stopTime="0.00" timeLoss="78.71" rerouteNo="1" devices="tripinfo_148629_417_0 routing_148629_417_0" vType="pkw" speedFactor="1.00" vaporized=""/>
    <tripinfo id="126742_407_0" depart="25243.00" departLane="23429231#1_0" departPos="4.40" departSpeed="0.00" departDelay="3.00" arrival="25374.00" arrivalLane="32038051#0_0" arrivalPos="89.25" arrivalSpeed="19.90" duration="131.00" routeLength="203.79" waitingTime="105.00" waitingCount="1" stopTime="0.00" timeLoss="121.33" rerouteNo="0" devices="tripinfo_126742_407_0 routing_126742_407_0" vType="pkw" speedFactor="1.15" vaporized=""/>
    <tripinfo id="113509_402_0" depart="25251.00" departLane="23429231#1_0" departPos="4.40" departSpeed="0.00" departDelay="3.00" arrival="25375.00" arrivalLane="-28198821#4_1" arrivalPos="57.10" arrivalSpeed="10.89" duration="124.00" routeLength="179.90" waitingTime="98.00" waitingCount="1" stopTime="0.00" timeLoss="111.40" rerouteNo="0" devices="tripinfo_113509_402_0 routing_113509_402_0" vType="pkw" speedFactor="0.86" vaporized=""/>
    <tripinfo id="120663_405_0" depart="25249.00" departLane="23429231#1_0" departPos="4.40" departSpeed="0.00" departDelay="3.00" arrival="25376.00" arrivalLane="32038051#0_0" arrivalPos="89.25" arrivalSpeed="15.69" duration="127.00" routeLength="203.79" waitingTime="102.00" waitingCount="1" stopTime="0.00" timeLoss="114.01" rerouteNo="0" devices="tripinfo_120663_405_0 routing_120663_405_0" vType="pkw" speedFactor="0.86" vaporized=""/>
    <tripinfo id="102630_396_0" depart="25256.00" departLane="23429231#1_0" departPos="4.40" departSpeed="0.00" departDelay="4.00" arrival="25376.00" arrivalLane="32038051#0_1" arrivalPos="89.25" arrivalSpeed="19.07" duration="120.00" routeLength="203.79" waitingTime="96.00" waitingCount="1" stopTime="0.00" timeLoss="109.39" rerouteNo="0" devices="tripinfo_102630_396_0 routing_102630_396_0" vType="pkw" speedFactor="1.04" vaporized=""/>
    <tripinfo id="130147_409_0" depart="25254.00" departLane="23429231#1_0" departPos="4.40" departSpeed="0.00" departDelay="3.00" arrival="25377.00" arrivalLane="32038051#0_0" arrivalPos="89.25" arrivalSpeed="16.55" duration="123.00" routeLength="203.79" waitingTime="99.00" waitingCount="1" stopTime="0.00" timeLoss="111.38" rerouteNo="0" devices="tripinfo_130147_409_0 routing_130147_409_0" vType="pkw" speedFactor="0.90" vaporized=""/>
    <tripinfo id="161721_421_0" depart="25337.00" departLane="130165204_0" departPos="4.40" departSpeed="0.00" departDelay="0.00" arrival="25381.00" arrivalLane="32038051#0_1" arrivalPos="89.25" arrivalSpeed="18.13" duration="44.00" routeLength="410.03" waitingTime="1.00" waitingCount="1" stopTime="0.00" timeLoss="16.58" rerouteNo="1" devices="tripinfo_161721_421_0 routing_161721_421_0" vType="pkw" speedFactor="0.97" vaporized=""/>
    <tripinfo id="130602_409_0" depart="25268.00" departLane="-32038056#3_0" departPos="4.40" departSpeed="0.00" departDelay="0.00" arrival="25412.00" arrivalLane="-28198821#4_1" arrivalPos="57.10" arrivalSpeed="15.32" duration="144.00" routeLength="437.47" waitingTime="104.00" waitingCount="1" stopTime="0.00" timeLoss="115.25" rerouteNo="0" devices="tripinfo_130602_409_0 routing_130602_409_0" vType="pkw" speedFactor="1.11" vaporized=""/>
    <tripinfo id="123965_406_0" depart="25218.00" departLane="-32038056#3_0" departPos="4.40" departSpeed="0.00" departDelay="0.00" arrival="25413.00" arrivalLane="-28198821#4_0" arrivalPos="57.10" arrivalSpeed="11.67" duration="195.00" routeLength="437.47" waitingTime="150.00" waitingCount="1" stopTime="0.00" timeLoss="160.23" rerouteNo="0" devices="tripinfo_123965_406_0 routing_123965_406_0" vType="pkw" speedFactor="0.92" vaporized=""/>
    <tripinfo id="160150_421_0" depart="25224.00" departLane="-32038056#3_0" departPos="4.40" departSpeed="0.00" departDelay="5.00" arrival="25414.00" arrivalLane="32038051#0_0" arrivalPos="89.25" arrivalSpeed="18.53" duration="190.00" routeLength="446.95" waitingTime="147.00" waitingCount="1" stopTime="0.00" timeLoss="157.96" rerouteNo="0" devices="tripinfo_160150_421_0 routing_160150_421_0" vType="pkw" speedFactor="0.97" vaporized=""/>
    <tripinfo id="162814_422_0" depart="25233.00" departLane="-32038056#3_0" departPos="4.40" departSpeed="0.00" departDelay="0.00" arrival="25415.00" arrivalLane="32038051#0_0" arrivalPos="89.25" arrivalSpeed="16.63" duration="182.00" routeLength="446.95" waitingTime="138.00" waitingCount="1" stopTime="0.00" timeLoss="148.80" rerouteNo="0" devices="tripinfo_162814_422_0 routing_162814_422_0" vType="pkw" speedFactor="0.92" vaporized=""/>
    <tripinfo id="128446_408_0" depart="25273.00" departLane="-32038056#3_0" departPos="4.40" departSpeed="0.00" departDelay="0.00" arrival="25415.00" arrivalLane="32324544#0_1" arrivalPos="90.48" arrivalSpeed="16.56" duration="142.00" routeLength="465.51" waitingTime="95.00" waitingCount="1" stopTime="0.00" timeLoss="107.02" rerouteNo="0" devices="tripinfo_128446_408_0 routing_128446_408_0" vType="pkw" speedFactor="0.90" vaporized=""/>
    <tripinfo id="83516_390_0" depart="25275.00" departLane="-32038056#3_0" departPos="4.40" departSpeed="0.00" departDelay="0.00" arrival="25417.00" arrivalLane="32324544#0_1" arrivalPos="90.48" arrivalSpeed="17.76" duration="142.00" routeLength="465.51" waitingTime="95.00" waitingCount="1" stopTime="0.00" timeLoss="108.50" rerouteNo="0" devices="tripinfo_83516_390_0 routing_83516_390_0" vType="pkw" speedFactor="0.95" vaporized=""/>
    <tripinfo id="136082_411_0" depart="25277.00" departLane="-32038056#3_0" departPos="4.40" departSpeed="0.00" departDelay="0.00" arrival="25417.00" arrivalLane="32038051#0_0" arrivalPos="89.25" arrivalSpeed="17.19" duration="140.00" routeLength="446.95" waitingTime="96.00" waitingCount="1" stopTime="0.00" timeLoss="107.40" rerouteNo="0" devices="tripinfo_136082_411_0 routing_136082_411_0" vType="pkw" speedFactor="0.94" vaporized=""/>
    <tripinfo id="113303_402_0" depart="25283.00" departLane="-32038056#3_0" departPos="4.40" departSpeed="0.00" departDelay="0.00" arrival="25420.00" arrivalLane="32324544#0_1" arrivalPos="90.48" arrivalSpeed="19.71" duration="137.00" routeLength="465.51" waitingTime="92.00" waitingCount="1" stopTime="0.00" timeLoss="107.36" rerouteNo="0" devices="tripinfo_113303_402_0 routing_113303_402_0" vType="pkw" speedFactor="1.07" vaporized=""/>
    <tripinfo id="85818_390_0" depart="25280.00" departLane="-32038056#3_0" departPos="4.40" departSpeed="0.00" departDelay="0.00" arrival="25548.00" arrivalLane="32038051#0_0" arrivalPos="89.25" arrivalSpeed="17.82" duration="268.00" routeLength="446.95" waitingTime="220.00" waitingCount="2" stopTime="0.00" timeLoss="235.36" rerouteNo="0" devices="tripinfo_85818_390_0 routing_85818_390_0" vType="pkw" speedFactor="0.94" vaporized=""/>
    <tripinfo id="137244_412_0" depart="25296.00" departLane="-32038056#3_0" departPos="4.40" departSpeed="0.00" departDelay="2.00" arrival="25549.00" arrivalLane="-28198821#4_0" arrivalPos="57.10" arrivalSpeed="14.93" duration="253.00" routeLength="437.47" waitingTime="206.00" waitingCount="2" stopTime="0.00" timeLoss="223.14" rerouteNo="0" devices="tripinfo_137244_412_0 routing_137244_412_0" vType="pkw" speedFactor="1.08" vaporized=""/>
    <tripinfo id="136669_411_0" depart="25566.00" departLane="28198821#3_0" departPos="4.40" departSpeed="0.00" departDelay="0.00" arrival="25581.00" arrivalLane="32038051#0_1" arrivalPos="89.25" arrivalSpeed="17.68" duration="15.00" routeLength="170.57" waitingTime="0.00" waitingCount="0" stopTime="0.00" timeLoss="3.40" rerouteNo="0" devices="tripinfo_136669_411_0 routing_136669_411_0" vType="pkw" speedFactor="0.92" vaporized=""/>
    <tripinfo id="138220_412_0" depart="25309.00" departLane="-32038056#3_0" departPos="4.40" departSpeed="0.00" departDelay="0.00" arrival="25668.00" arrivalLane="-28198821#4_0" arrivalPos="57.10" arrivalSpeed="16.06" duration="359.00" routeLength="437.47" waitingTime="310.00" waitingCount="3" stopTime="0.00" timeLoss="331.77" rerouteNo="0" devices="tripinfo_138220_412_0 routing_138220_412_0" vType="pkw" speedFactor="1.19" vaporized=""/>
    <tripinfo id="86583_391_0" depart="25289.00" departLane="-32038056#3_0" departPos="4.40" departSpeed="0.00" departDelay="0.00" arrival="25669.00" arrivalLane="32038051#0_0" arrivalPos="89.25" arrivalSpeed="19.11" duration="380.00" routeLength="446.95" waitingTime="329.00" waitingCount="3" stopTime="0.00" timeLoss="349.41" rerouteNo="0" devices="tripinfo_86583_391_0 routing_86583_391_0" vType="pkw" speedFactor="1.02" vaporized=""/>
    <tripinfo id="125917_406_0" depart="25547.00" departLane="28198821#3_0" departPos="4.40" departSpeed="0.00" departDelay="0.00" arrival="25669.00" arrivalLane="32324544#0_0" arrivalPos="90.48" arrivalSpeed="20.49" duration="122.00" routeLength="155.13" waitingTime="101.00" waitingCount="1" stopTime="0.00" timeLoss="112.72" rerouteNo="0" devices="tripinfo_125917_406_0 routing_125917_406_0" vType="pkw" speedFactor="1.08" vaporized=""/>
    <tripinfo id="147215_416_0" depart="25603.00" departLane="28198821#3_0" departPos="4.40" departSpeed="0.00" departDelay="0.00" arrival="25690.00" arrivalLane="32038056#0_0" arrivalPos="352.87" arrivalSpeed="13.04" duration="87.00" routeLength="439.14" waitingTime="45.00" waitingCount="1" stopTime="0.00" timeLoss="56.06" rerouteNo="0" devices="tripinfo_147215_416_0 routing_147215_416_0" vType="pkw" speedFactor="1.03" vaporized=""/>
    <tripinfo id="122194_406_0" depart="25262.00" departLane="23429231#1_0" departPos="4.40" departSpeed="0.00" departDelay="7.00" arrival="25763.00" arrivalLane="32038051#0_1" arrivalPos="89.25" arrivalSpeed="17.51" duration="501.00" routeLength="203.79" waitingTime="472.00" waitingCount="2" stopTime="0.00" timeLoss="488.98" rerouteNo="0" devices="tripinfo_122194_406_0 routing_122194_406_0" vType="pkw" speedFactor="0.92" vaporized=""/>
    <tripinfo id="129330_408_0" depart="25434.00" departLane="27115123#2_0" departPos="4.40" departSpeed="0.00" departDelay="2.00" arrival="25763.00" arrivalLane="32324544#0_1" arrivalPos="90.48" arrivalSpeed="17.63" duration="329.00" routeLength="198.06" waitingTime="304.00" waitingCount="1" stopTime="0.00" timeLoss="318.04" rerouteNo="1" devices="tripinfo_129330_408_0 routing_129330_408_0" vType="pkw" speedFactor="0.93" vaporized=""/>
    <tripinfo id="122376_406_0" depart="25259.00" departLane="23429231#1_0" departPos="4.40" departSpeed="0.00" departDelay="5.00" arrival="25764.00" arrivalLane="32038051#0_0" arrivalPos="89.25" arrivalSpeed="18.61" duration="505.00" routeLength="203.79" waitingTime="474.00" waitingCount="2" stopTime="0.00" timeLoss="494.00" rerouteNo="0" devices="tripinfo_122376_406_0 routing_122376_406_0" vType="pkw" speedFactor="1.04" vaporized=""/>
    <tripinfo id="154290_420_0" depart="25431.00" departLane="27115123#2_0" departPos="4.40" departSpeed="0.00" departDelay="0.00" arrival="25764.00" arrivalLane="32324544#0_0" arrivalPos="90.48" arrivalSpeed="18.62" duration="333.00" routeLength="198.06" waitingTime="309.00" waitingCount="1" stopTime="0.00" timeLoss="322.28" rerouteNo="1" devices="tripinfo_154290_420_0 routing_154290_420_0" vType="pkw" speedFactor="1.01" vaporized=""/>
    <tripinfo id="135103_411_0" depart="25264.00" departLane="23429231#1_0" departPos="4.40" departSpeed="0.00" departDelay="8.00" arrival="25765.00" arrivalLane="32038051#0_0" arrivalPos="89.25" arrivalSpeed="17.41" duration="501.00" routeLength="203.79" waitingTime="469.00" waitingCount="2" stopTime="0.00" timeLoss="489.77" rerouteNo="0" devices="tripinfo_135103_411_0 routing_135103_411_0" vType="pkw" speedFactor="0.95" vaporized=""/>
    <tripinfo id="152958_419_0" depart="25267.00" departLane="23429231#1_0" departPos="4.40" departSpeed="0.00" departDelay="10.00" arrival="25765.00" arrivalLane="32038051#0_1" arrivalPos="89.25" arrivalSpeed="18.13" duration="498.00" routeLength="203.79" waitingTime="468.00" waitingCount="2" stopTime="0.00" timeLoss="486.86" rerouteNo="0" devices="tripinfo_152958_419_0 routing_152958_419_0" vType="pkw" speedFactor="0.99" vaporized=""/>
    <tripinfo id="153635_420_0" depart="25460.00" departLane="27115123#2_0" departPos="4.40" departSpeed="0.00" departDelay="0.00" arrival="25765.00" arrivalLane="32324544#0_0" arrivalPos="90.48" arrivalSpeed="18.43" duration="305.00" routeLength="198.06" waitingTime="281.00" waitingCount="1" stopTime="0.00" timeLoss="294.17" rerouteNo="1" devices="tripinfo_153635_420_0 routing_153635_420_0" vType="pkw" speedFactor="0.96" vaporized=""/>
    <tripinfo id="125613_406_0" depart="25270.00" departLane="23429231#1_0" departPos="4.40" departSpeed="0.00" departDelay="12.00" arrival="25767.00" arrivalLane="32038051#0_0" arrivalPos="89.25" arrivalSpeed="21.21" duration="497.00" routeLength="203.79" waitingTime="466.00" waitingCount="2" stopTime="0.00" timeLoss="487.38" rerouteNo="0" devices="tripinfo_125613_406_0 routing_125613_406_0" vType="pkw" speedFactor="1.18" vaporized=""/>
    <tripinfo id="133955_411_0" depart="25273.00" departLane="23429231#1_0" departPos="4.40" departSpeed="0.00" departDelay="14.00" arrival="25767.00" arrivalLane="32038051#0_1" arrivalPos="89.25" arrivalSpeed="18.83" duration="494.00" routeLength="203.79" waitingTime="464.00" waitingCount="2" stopTime="0.00" timeLoss="482.97" rerouteNo="0" devices="tripinfo_133955_411_0 routing_133955_411_0" vType="pkw" speedFactor="1.00" vaporized=""/>
    <tripinfo id="161689_421_0" depart="25467.00" departLane="130165204_0" departPos="4.40" departSpeed="0.00" departDelay="0.00" arrival="25767.00" arrivalLane="32324544#0_1" arrivalPos="90.48" arrivalSpeed="20.51" duration="300.00" routeLength="411.68" waitingTime="259.00" waitingCount="1" stopTime="0.00" timeLoss="275.24" rerouteNo="1" devices="tripinfo_161689_421_0 routing_161689_421_0" vType="pkw" speedFactor="1.08" vaporized=""/>
    <tripinfo id="145855_416_0" depart="25469.00" departLane="27115123#2_0" departPos="4.40" departSpeed="0.00" departDelay="0.00" arrival="25768.00" arrivalLane="32324544#0_0" arrivalPos="90.48" arrivalSpeed="13.78" duration="299.00" routeLength="198.06" waitingTime="274.00" waitingCount="1" stopTime="0.00" timeLoss="284.71" rerouteNo="1" devices="tripinfo_145855_416_0 routing_145855_416_0" vType="pkw" speedFactor="0.76" vaporized=""/>
    <tripinfo id="137320_412_0" depart="25414.00" departLane="130165204_0" departPos="4.40" departSpeed="0.00" departDelay="0.00" arrival="25771.00" arrivalLane="32038051#0_1" arrivalPos="89.25" arrivalSpeed="18.43" duration="357.00" routeLength="410.03" waitingTime="305.00" waitingCount="3" stopTime="0.00" timeLoss="329.65" rerouteNo="1" devices="tripinfo_137320_412_0 routing_137320_412_0" vType="pkw" speedFactor="0.96" vaporized=""/>
    <tripinfo id="120878_405_0" depart="25291.00" departLane="-32038056#3_0" departPos="4.40" departSpeed="0.00" departDelay="0.00" arrival="25902.00" arrivalLane="32038051#0_0" arrivalPos="89.25" arrivalSpeed="16.45" duration="611.00" routeLength="446.95" waitingTime="554.00" waitingCount="4" stopTime="0.00" timeLoss="577.43" rerouteNo="0" devices="tripinfo_120878_405_0 routing_120878_405_0" vType="pkw" speedFactor="0.91" vaporized=""/>
    <tripinfo id="184119_431_0" depart="25582.00" departLane="28198821#3_0" departPos="4.40" departSpeed="0.00" departDelay="0.00" arrival="25902.00" arrivalLane="32324544#0_0" arrivalPos="90.48" arrivalSpeed="18.73" duration="320.00" routeLength="155.13" waitingTime="297.00" waitingCount="2" stopTime="0.00" timeLoss="311.18" rerouteNo="0" devices="tripinfo_184119_431_0 routing_184119_431_0" vType="pkw" speedFactor="1.04" vaporized=""/>
    <tripinfo id="85922_391_0" depart="25294.00" departLane="-32038056#3_0" departPos="4.40" departSpeed="0.00" departDelay="1.00" arrival="25904.00" arrivalLane="32038051#0_0" arrivalPos="89.25" arrivalSpeed="17.85" duration="610.00" routeLength="446.95" waitingTime="548.00" waitingCount="4" stopTime="0.00" timeLoss="576.97" rerouteNo="0" devices="tripinfo_85922_391_0 routing_85922_391_0" vType="pkw" speedFactor="0.93" vaporized=""/>
    <tripinfo id="142412_415_0" depart="25307.00" departLane="-32038056#3_0" departPos="4.40" departSpeed="0.00" departDelay="0.00" arrival="25904.00" arrivalLane="-28198821#4_1" arrivalPos="57.10" arrivalSpeed="9.39" duration="597.00" routeLength="437.47" waitingTime="529.00" waitingCount="4" stopTime="0.00" timeLoss="554.67" rerouteNo="0" devices="tripinfo_142412_415_0 routing_142412_415_0" vType="pkw" speedFactor="0.74" vaporized=""/>
    <tripinfo id="136800_411_0" depart="25618.00" departLane="28198821#3_0" departPos="4.40" departSpeed="0.00" departDelay="0.00" arrival="25904.00" arrivalLane="32324544#0_0" arrivalPos="90.48" arrivalSpeed="21.56" duration="286.00" routeLength="155.13" waitingTime="263.00" waitingCount="2" stopTime="0.00" timeLoss="277.60" rerouteNo="0" devices="tripinfo_136800_411_0 routing_136800_411_0" vType="pkw" speedFactor="1.19" vaporized=""/>
    <tripinfo id="118963_405_0" depart="25304.00" departLane="-32038056#3_0" departPos="4.40" departSpeed="0.00" departDelay="0.00" arrival="25906.00" arrivalLane="32038051#0_0" arrivalPos="89.25" arrivalSpeed="18.94" duration="602.00" routeLength="446.95" waitingTime="541.00" waitingCount="4" stopTime="0.00" timeLoss="571.15" rerouteNo="0" devices="tripinfo_118963_405_0 routing_118963_405_0" vType="pkw" speedFactor="1.01" vaporized=""/>
    <tripinfo id="130372_409_0" depart="25329.00" departLane="-32038056#3_0" departPos="4.40" departSpeed="0.00" departDelay="2.00" arrival="25912.00" arrivalLane="32324544#0_1" arrivalPos="90.48" arrivalSpeed="19.63" duration="583.00" routeLength="465.51" waitingTime="519.00" waitingCount="6" stopTime="0.00" timeLoss="553.07" rerouteNo="0" devices="tripinfo_130372_409_0 routing_130372_409_0" vType="pkw" speedFactor="1.07" vaporized=""/>
    <tripinfo id="129962_409_0" depart="25622.00" departLane="28198821#3_0" departPos="4.40" departSpeed="0.00" departDelay="0.00" arrival="25913.00" arrivalLane="32038051#0_1" arrivalPos="89.25" arrivalSpeed="20.99" duration="291.00" routeLength="170.57" waitingTime="258.00" waitingCount="3" stopTime="0.00" timeLoss="281.41" rerouteNo="0" devices="tripinfo_129962_409_0 routing_129962_409_0" vType="pkw" speedFactor="1.15" vaporized=""/>
    <tripinfo id="153000_419_0" depart="25635.00" departLane="28198821#3_0" departPos="4.40" departSpeed="0.00" departDelay="0.00" arrival="25914.00" arrivalLane="32038051#0_1" arrivalPos="89.25" arrivalSpeed="16.28" duration="279.00" routeLength="170.57" waitingTime="244.00" waitingCount="2" stopTime="0.00" timeLoss="267.55" rerouteNo="0" devices="tripinfo_153000_419_0 routing_153000_419_0" vType="pkw" speedFactor="0.89" vaporized=""/>
    <tripinfo id="183244_431_0" depart="25637.00" departLane="28198821#3_0" departPos="4.40" departSpeed="0.00" departDelay="0.00" arrival="25916.00" arrivalLane="32038051#0_1" arrivalPos="89.25" arrivalSpeed="20.33" duration="279.00" routeLength="170.57" waitingTime="243.00" waitingCount="2" stopTime="0.00" timeLoss="270.20" rerouteNo="0" devices="tripinfo_183244_431_0 routing_183244_431_0" vType="pkw" speedFactor="1.24" vaporized=""/>
    <tripinfo id="183534_431_0" depart="25639.00" departLane="28198821#3_0" departPos="4.40" departSpeed="0.00" departDelay="0.00" arrival="25918.00" arrivalLane="32038051#0_1" arrivalPos="89.25" arrivalSpeed="18.19" duration="279.00" routeLength="170.57" waitingTime="242.00" waitingCount="3" stopTime="0.00" timeLoss="267.96" rerouteNo="0" devices="tripinfo_183534_431_0 routing_183534_431_0" vType="pkw" speedFactor="0.96" vaporized=""/>
    <tripinfo id="167799_425_0" depart="25327.00" departLane="-32038056#3_0" departPos="4.40" departSpeed="0.00" departDelay="0.00" arrival="25922.00" arrivalLane="-28198821#4_0" arrivalPos="57.10" arrivalSpeed="11.57" duration="595.00" routeLength="437.47" waitingTime="518.00" waitingCount="6" stopTime="0.00" timeLoss="560.52" rerouteNo="0" devices="tripinfo_167799_425_0 routing_167799_425_0" vType="pkw" speedFactor="0.92" vaporized=""/>
    <tripinfo id="104806_398_0" depart="25332.00" departLane="-32038056#3_0" departPos="4.40" departSpeed="0.00" departDelay="3.00" arrival="25923.00" arrivalLane="32324544#0_1" arrivalPos="90.48" arrivalSpeed="16.69" duration="591.00" routeLength="465.51" waitingTime="511.00" waitingCount="6" stopTime="0.00" timeLoss="556.89" rerouteNo="0" devices="tripinfo_104806_398_0 routing_104806_398_0" vType="pkw" speedFactor="0.92" vaporized=""/>
    <tripinfo id="150753_418_0" depart="25353.00" departLane="-32038056#3_0" departPos="4.40" departSpeed="0.00" departDelay="2.00" arrival="25925.00" arrivalLane="32324544#0_1" arrivalPos="90.48" arrivalSpeed="18.34" duration="572.00" routeLength="465.51" waitingTime="491.00" waitingCount="5" stopTime="0.00" timeLoss="538.74" rerouteNo="0" devices="tripinfo_150753_418_0 routing_150753_418_0" vType="pkw" speedFactor="0.96" vaporized=""/>
    <tripinfo id="121463_406_0" depart="25610.00" departLane="28198821#3_0" departPos="4.40" departSpeed="0.00" departDelay="0.00" arrival="25928.00" arrivalLane="32038056#0_0" arrivalPos="352.87" arrivalSpeed="12.57" duration="318.00" routeLength="439.14" waitingTime="269.00" waitingCount="2" stopTime="0.00" timeLoss="282.64" rerouteNo="0" devices="tripinfo_121463_406_0 routing_121463_406_0" vType="pkw" speedFactor="0.91" vaporized=""/>
    <tripinfo id="153446_420_0" depart="25624.00" departLane="28198821#3_0" departPos="4.40" departSpeed="0.00" departDelay="0.00" arrival="25931.00" arrivalLane="32038056#0_0" arrivalPos="352.87" arrivalSpeed="12.05" duration="307.00" routeLength="439.14" waitingTime="256.00" waitingCount="2" stopTime="0.00" timeLoss="271.78" rerouteNo="0" devices="tripinfo_153446_420_0 routing_153446_420_0" vType="pkw" speedFactor="0.92" vaporized=""/>
    <tripinfo id="129253_408_0" depart="25276.00" departLane="23429231#1_0" departPos="4.40" departSpeed="0.00" departDelay="16.00" arrival="26103.00" arrivalLane="32038051#0_0" arrivalPos="89.25" arrivalSpeed="19.40" duration="827.00" routeLength="203.79" waitingTime="790.00" waitingCount="3" stopTime="0.00" timeLoss="816.10" rerouteNo="0" devices="tripinfo_129253_408_0 routing_129253_408_0" vType="pkw" speedFactor="1.03" vaporized=""/>
    <tripinfo id="120275_405_0" depart="25278.00" departLane="23429231#1_0" departPos="4.40" departSpeed="0.00" departDelay="17.00" arrival="26103.00" arrivalLane="32038051#0_1" arrivalPos="89.25" arrivalSpeed="19.84" duration="825.00" routeLength="203.79" waitingTime="787.00" waitingCount="3" stopTime="0.00" timeLoss="815.07" rerouteNo="0" devices="tripinfo_120275_405_0 routing_120275_405_0" vType="pkw" speedFactor="1.06" vaporized=""/>