<?xml version="1.0" encoding="UTF-8"?>

<!-- generated on 2023-08-31 13:14:54 by Eclipse SUMO libsumo Version 1.18.0
<configuration xmlns:xsi="http://www.w3.org/2001/XMLSchema-instance" xsi:noNamespaceSchemaLocation="http://sumo.dlr.de/xsd/libsumoConfiguration.xsd">

    <input>
        <net-file value="/home/stefan/RESCO/./environments/cologne1/cologne1.net.xml"/>
        <route-files value="/home/stefan/RESCO/./environments/cologne1/cologne1.rou.xml"/>
    </input>

    <output>
        <tripinfo-output value="/home/stefan/results/RAINBOW-tr0-cologne1-0-drq_norm-wait_norm/tripinfo_31.xml"/>
        <tripinfo-output.write-unfinished value="true"/>
    </output>

    <time>
        <begin value="25200"/>
        <end value="28800"/>
    </time>

    <processing>
        <time-to-teleport value="-1"/>
    </processing>

    <report>
        <no-warnings value="True"/>
        <no-step-log value="True"/>
    </report>

    <random_number>
        <random value="true"/>
    </random_number>

</configuration>
-->

<tripinfos xmlns:xsi="http://www.w3.org/2001/XMLSchema-instance" xsi:noNamespaceSchemaLocation="http://sumo.dlr.de/xsd/tripinfo_file.xsd">
    <tripinfo id="124779_406_0" depart="25205.00" departLane="28198821#3_0" departPos="4.40" departSpeed="0.00" departDelay="0.00" arrival="25219.00" arrivalLane="32038051#0_1" arrivalPos="89.25" arrivalSpeed="20.58" duration="14.00" routeLength="170.57" waitingTime="0.00" waitingCount="0" stopTime="0.00" timeLoss="4.28" rerouteNo="0" devices="tripinfo_124779_406_0 routing_124779_406_0" vType="pkw" speedFactor="1.06" vaporized=""/>
    <tripinfo id="98305_395_0" depart="25211.00" departLane="28198821#3_0" departPos="4.40" departSpeed="0.00" departDelay="0.00" arrival="25225.00" arrivalLane="32038051#0_1" arrivalPos="89.25" arrivalSpeed="17.87" duration="14.00" routeLength="170.57" waitingTime="0.00" waitingCount="0" stopTime="0.00" timeLoss="3.06" rerouteNo="0" devices="tripinfo_98305_395_0 routing_98305_395_0" vType="pkw" speedFactor="0.94" vaporized=""/>
    <tripinfo id="102535_396_0" depart="25218.00" departLane="28198821#3_0" departPos="4.40" departSpeed="0.00" departDelay="0.00" arrival="25231.00" arrivalLane="32038051#0_1" arrivalPos="89.25" arrivalSpeed="20.44" duration="13.00" routeLength="170.57" waitingTime="0.00" waitingCount="0" stopTime="0.00" timeLoss="3.09" rerouteNo="0" devices="tripinfo_102535_396_0 routing_102535_396_0" vType="pkw" speedFactor="1.06" vaporized=""/>
    <tripinfo id="147209_416_0" depart="25220.00" departLane="28198821#3_0" departPos="4.40" departSpeed="0.00" departDelay="0.00" arrival="25233.00" arrivalLane="32038051#0_1" arrivalPos="89.25" arrivalSpeed="20.48" duration="13.00" routeLength="170.57" waitingTime="0.00" waitingCount="0" stopTime="0.00" timeLoss="3.77" rerouteNo="0" devices="tripinfo_147209_416_0 routing_147209_416_0" vType="pkw" speedFactor="1.08" vaporized=""/>
    <tripinfo id="151372_418_0" depart="25207.00" departLane="130165204_0" departPos="4.40" departSpeed="0.00" departDelay="0.00" arrival="25243.00" arrivalLane="32038051#0_1" arrivalPos="89.25" arrivalSpeed="18.73" duration="36.00" routeLength="410.03" waitingTime="0.00" waitingCount="0" stopTime="0.00" timeLoss="9.30" rerouteNo="1" devices="tripinfo_151372_418_0 routing_151372_418_0" vType="pkw" speedFactor="1.00" vaporized=""/>
    <tripinfo id="123965_406_0" depart="25218.00" departLane="-32038056#3_0" departPos="4.40" departSpeed="0.00" departDelay="0.00" arrival="25255.00" arrivalLane="-28198821#4_0" arrivalPos="57.10" arrivalSpeed="13.64" duration="37.00" routeLength="437.47" waitingTime="0.00" waitingCount="0" stopTime="0.00" timeLoss="4.05" rerouteNo="0" devices="tripinfo_123965_406_0 routing_123965_406_0" vType="pkw" speedFactor="0.98" vaporized=""/>
    <tripinfo id="149029_417_0" depart="25236.00" departLane="27115123#2_0" departPos="4.40" departSpeed="0.00" departDelay="0.00" arrival="25262.00" arrivalLane="32038051#0_1" arrivalPos="89.25" arrivalSpeed="20.26" duration="26.00" routeLength="196.41" waitingTime="6.00" waitingCount="1" stopTime="0.00" timeLoss="16.32" rerouteNo="1" devices="tripinfo_149029_417_0 routing_149029_417_0" vType="pkw" speedFactor="1.07" vaporized=""/>
    <tripinfo id="160150_421_0" depart="25223.00" departLane="-32038056#3_0" departPos="4.40" departSpeed="0.00" departDelay="4.00" arrival="25268.00" arrivalLane="32038051#0_0" arrivalPos="89.25" arrivalSpeed="18.67" duration="45.00" routeLength="446.95" waitingTime="2.00" waitingCount="1" stopTime="0.00" timeLoss="13.85" rerouteNo="0" devices="tripinfo_160150_421_0 routing_160150_421_0" vType="pkw" speedFactor="0.98" vaporized=""/>
    <tripinfo id="91582_392_0" depart="25220.00" departLane="-32038056#3_0" departPos="4.40" departSpeed="0.00" departDelay="2.00" arrival="25269.00" arrivalLane="32324544#0_1" arrivalPos="90.48" arrivalSpeed="18.38" duration="49.00" routeLength="465.51" waitingTime="6.00" waitingCount="1" stopTime="0.00" timeLoss="16.30" rerouteNo="0" devices="tripinfo_91582_392_0 routing_91582_392_0" vType="pkw" speedFactor="0.97" vaporized=""/>
    <tripinfo id="162814_422_0" depart="25233.00" departLane="-32038056#3_0" departPos="4.40" departSpeed="0.00" departDelay="0.00" arrival="25288.00" arrivalLane="32038051#0_0" arrivalPos="89.25" arrivalSpeed="18.07" duration="55.00" routeLength="446.95" waitingTime="12.00" waitingCount="1" stopTime="0.00" timeLoss="21.78" rerouteNo="0" devices="tripinfo_162814_422_0 routing_162814_422_0" vType="pkw" speedFactor="0.94" vaporized=""/>
    <tripinfo id="130602_409_0" depart="25268.00" departLane="-32038056#3_0" departPos="4.40" departSpeed="0.00" departDelay="0.00" arrival="25307.00" arrivalLane="-28198821#4_0" arrivalPos="57.10" arrivalSpeed="12.68" duration="39.00" routeLength="437.47" waitingTime="0.00" waitingCount="0" stopTime="0.00" timeLoss="4.63" rerouteNo="0" devices="tripinfo_130602_409_0 routing_130602_409_0" vType="pkw" speedFactor="0.93" vaporized=""/>
    <tripinfo id="115444_403_0" depart="25294.00" departLane="28198821#3_0" departPos="4.40" departSpeed="0.00" departDelay="0.00" arrival="25310.00" arrivalLane="32038051#0_1" arrivalPos="89.25" arrivalSpeed="19.04" duration="16.00" routeLength="170.57" waitingTime="0.00" waitingCount="0" stopTime="0.00" timeLoss="5.26" rerouteNo="0" devices="tripinfo_115444_403_0 routing_115444_403_0" vType="pkw" speedFactor="0.98" vaporized=""/>
    <tripinfo id="103540_397_0" depart="25300.00" departLane="28198821#3_0" departPos="4.40" departSpeed="0.00" departDelay="0.00" arrival="25314.00" arrivalLane="32038051#0_1" arrivalPos="89.25" arrivalSpeed="19.98" duration="14.00" routeLength="170.57" waitingTime="0.00" waitingCount="0" stopTime="0.00" timeLoss="4.04" rerouteNo="0" devices="tripinfo_103540_397_0 routing_103540_397_0" vType="pkw" speedFactor="1.05" vaporized=""/>
    <tripinfo id="128446_408_0" depart="25273.00" departLane="-32038056#3_0" departPos="4.40" departSpeed="0.00" departDelay="0.00" arrival="25316.00" arrivalLane="32324544#0_1" arrivalPos="90.48" arrivalSpeed="15.65" duration="43.00" routeLength="465.51" waitingTime="0.00" waitingCount="0" stopTime="0.00" timeLoss="4.61" rerouteNo="0" devices="tripinfo_128446_408_0 routing_128446_408_0" vType="pkw" speedFactor="0.82" vaporized=""/>
    <tripinfo id="83516_390_0" depart="25275.00" departLane="-32038056#3_0" departPos="4.40" departSpeed="0.00" departDelay="0.00" arrival="25322.00" arrivalLane="32324544#0_1" arrivalPos="90.48" arrivalSpeed="20.37" duration="47.00" routeLength="465.51" waitingTime="1.00" waitingCount="1" stopTime="0.00" timeLoss="17.24" rerouteNo="0" devices="tripinfo_83516_390_0 routing_83516_390_0" vType="pkw" speedFactor="1.07" vaporized=""/>
    <tripinfo id="113303_402_0" depart="25284.00" departLane="-32038056#3_0" departPos="4.40" departSpeed="0.00" departDelay="1.00" arrival="25325.00" arrivalLane="32324544#0_1" arrivalPos="90.48" arrivalSpeed="20.78" duration="41.00" routeLength="465.51" waitingTime="0.00" waitingCount="0" stopTime="0.00" timeLoss="11.69" rerouteNo="0" devices="tripinfo_113303_402_0 routing_113303_402_0" vType="pkw" speedFactor="1.10" vaporized=""/>
    <tripinfo id="162096_421_0" depart="25306.00" departLane="130165204_0" departPos="4.40" departSpeed="0.00" departDelay="0.00" arrival="25349.00" arrivalLane="32038051#0_1" arrivalPos="89.25" arrivalSpeed="17.10" duration="43.00" routeLength="410.03" waitingTime="1.00" waitingCount="1" stopTime="0.00" timeLoss="14.66" rerouteNo="1" devices="tripinfo_162096_421_0 routing_162096_421_0" vType="pkw" speedFactor="0.94" vaporized=""/>
    <tripinfo id="175147_428_0" depart="25324.00" departLane="130165204_0" departPos="4.40" departSpeed="0.00" departDelay="0.00" arrival="25358.00" arrivalLane="32038051#0_1" arrivalPos="89.25" arrivalSpeed="21.75" duration="34.00" routeLength="410.03" waitingTime="0.00" waitingCount="0" stopTime="0.00" timeLoss="10.03" rerouteNo="1" devices="tripinfo_175147_428_0 routing_175147_428_0" vType="pkw" speedFactor="1.13" vaporized=""/>
    <tripinfo id="121258_405_0" depart="25240.00" departLane="23429231#1_0" departPos="4.40" departSpeed="0.00" departDelay="0.00" arrival="25362.00" arrivalLane="32038051#0_0" arrivalPos="89.25" arrivalSpeed="21.08" duration="122.00" routeLength="203.79" waitingTime="100.00" waitingCount="1" stopTime="0.00" timeLoss="112.12" rerouteNo="0" devices="tripinfo_121258_405_0 routing_121258_405_0" vType="pkw" speedFactor="1.10" vaporized=""/>
    <tripinfo id="126742_407_0" depart="25242.00" departLane="23429231#1_0" departPos="4.40" departSpeed="0.00" departDelay="2.00" arrival="25363.00" arrivalLane="32038051#0_1" arrivalPos="89.25" arrivalSpeed="16.82" duration="121.00" routeLength="203.79" waitingTime="97.00" waitingCount="1" stopTime="0.00" timeLoss="108.33" rerouteNo="0" devices="tripinfo_126742_407_0 routing_126742_407_0" vType="pkw" speedFactor="0.89" vaporized=""/>
    <tripinfo id="148629_417_0" depart="25284.00" departLane="27115123#2_0" departPos="4.40" departSpeed="0.00" departDelay="0.00" arrival="25363.00" arrivalLane="32324544#0_0" arrivalPos="90.48" arrivalSpeed="19.01" duration="79.00" routeLength="198.06" waitingTime="58.00" waitingCount="1" stopTime="0.00" timeLoss="67.91" rerouteNo="1" devices="tripinfo_148629_417_0 routing_148629_417_0" vType="pkw" speedFactor="1.00" vaporized=""/>
    <tripinfo id="102501_396_0" depart="25245.00" departLane="23429231#1_0" departPos="4.40" departSpeed="0.00" departDelay="1.00" arrival="25364.00" arrivalLane="32038051#0_0" arrivalPos="89.25" arrivalSpeed="18.37" duration="119.00" routeLength="203.79" waitingTime="96.00" waitingCount="1" stopTime="0.00" timeLoss="109.35" rerouteNo="0" devices="tripinfo_102501_396_0 routing_102501_396_0" vType="pkw" speedFactor="1.13" vaporized=""/>
    <tripinfo id="113509_402_0" depart="25251.00" departLane="23429231#1_0" departPos="4.40" departSpeed="0.00" departDelay="3.00" arrival="25364.00" arrivalLane="-28198821#4_1" arrivalPos="57.10" arrivalSpeed="14.54" duration="113.00" routeLength="179.90" waitingTime="91.00" waitingCount="1" stopTime="0.00" timeLoss="102.73" rerouteNo="0" devices="tripinfo_113509_402_0 routing_113509_402_0" vType="pkw" speedFactor="1.05" vaporized=""/>
    <tripinfo id="120663_405_0" depart="25248.00" departLane="23429231#1_0" departPos="4.40" departSpeed="0.00" departDelay="2.00" arrival="25366.00" arrivalLane="32038051#0_0" arrivalPos="89.25" arrivalSpeed="17.56" duration="118.00" routeLength="203.79" waitingTime="93.00" waitingCount="1" stopTime="0.00" timeLoss="106.52" rerouteNo="0" devices="tripinfo_120663_405_0 routing_120663_405_0" vType="pkw" speedFactor="0.94" vaporized=""/>
    <tripinfo id="130147_409_0" depart="25253.00" departLane="23429231#1_0" departPos="4.40" departSpeed="0.00" departDelay="2.00" arrival="25366.00" arrivalLane="32038051#0_1" arrivalPos="89.25" arrivalSpeed="16.43" duration="113.00" routeLength="203.79" waitingTime="89.00" waitingCount="1" stopTime="0.00" timeLoss="100.62" rerouteNo="0" devices="tripinfo_130147_409_0 routing_130147_409_0" vType="pkw" speedFactor="0.91" vaporized=""/>
    <tripinfo id="122376_406_0" depart="25259.00" departLane="23429231#1_0" departPos="4.40" departSpeed="0.00" departDelay="5.00" arrival="25367.00" arrivalLane="32038051#0_1" arrivalPos="89.25" arrivalSpeed="20.04" duration="108.00" routeLength="203.79" waitingTime="84.00" waitingCount="1" stopTime="0.00" timeLoss="97.93" rerouteNo="0" devices="tripinfo_122376_406_0 routing_122376_406_0" vType="pkw" speedFactor="1.08" vaporized=""/>
    <tripinfo id="161721_421_0" depart="25337.00" departLane="130165204_0" departPos="4.40" departSpeed="0.00" departDelay="0.00" arrival="25379.00" arrivalLane="32038051#0_1" arrivalPos="89.25" arrivalSpeed="20.64" duration="42.00" routeLength="410.03" waitingTime="4.00" waitingCount="1" stopTime="0.00" timeLoss="17.36" rerouteNo="1" devices="tripinfo_161721_421_0 routing_161721_421_0" vType="pkw" speedFactor="1.10" vaporized=""/>
    <tripinfo id="102630_396_0" depart="25256.00" departLane="23429231#1_0" departPos="4.40" departSpeed="0.00" departDelay="4.00" arrival="25413.00" arrivalLane="32038051#0_0" arrivalPos="89.25" arrivalSpeed="17.58" duration="157.00" routeLength="203.79" waitingTime="127.00" waitingCount="2" stopTime="0.00" timeLoss="147.08" rerouteNo="0" devices="tripinfo_102630_396_0 routing_102630_396_0" vType="pkw" speedFactor="1.14" vaporized=""/>
    <tripinfo id="135103_411_0" depart="25264.00" departLane="23429231#1_0" departPos="4.40" departSpeed="0.00" departDelay="8.00" arrival="25413.00" arrivalLane="32038051#0_1" arrivalPos="89.25" arrivalSpeed="17.78" duration="149.00" routeLength="203.79" waitingTime="120.00" waitingCount="2" stopTime="0.00" timeLoss="136.86" rerouteNo="0" devices="tripinfo_135103_411_0 routing_135103_411_0" vType="pkw" speedFactor="0.94" vaporized=""/>
    <tripinfo id="122194_406_0" depart="25261.00" departLane="23429231#1_0" departPos="4.40" departSpeed="0.00" departDelay="6.00" arrival="25414.00" arrivalLane="32038051#0_0" arrivalPos="89.25" arrivalSpeed="17.93" duration="153.00" routeLength="203.79" waitingTime="124.00" waitingCount="2" stopTime="0.00" timeLoss="141.94" rerouteNo="0" devices="tripinfo_122194_406_0 routing_122194_406_0" vType="pkw" speedFactor="0.98" vaporized=""/>
    <tripinfo id="125613_406_0" depart="25269.00" departLane="23429231#1_0" departPos="4.40" departSpeed="0.00" departDelay="11.00" arrival="25414.00" arrivalLane="32038051#0_1" arrivalPos="89.25" arrivalSpeed="16.14" duration="145.00" routeLength="203.79" waitingTime="116.00" waitingCount="2" stopTime="0.00" timeLoss="133.16" rerouteNo="0" devices="tripinfo_125613_406_0 routing_125613_406_0" vType="pkw" speedFactor="0.89" vaporized=""/>
    <tripinfo id="152958_419_0" depart="25266.00" departLane="23429231#1_0" departPos="4.40" departSpeed="0.00" departDelay="9.00" arrival="25416.00" arrivalLane="32038051#0_0" arrivalPos="89.25" arrivalSpeed="19.70" duration="150.00" routeLength="203.79" waitingTime="119.00" waitingCount="2" stopTime="0.00" timeLoss="139.64" rerouteNo="0" devices="tripinfo_152958_419_0 routing_152958_419_0" vType="pkw" speedFactor="1.05" vaporized=""/>
    <tripinfo id="129253_408_0" depart="25274.00" departLane="23429231#1_0" departPos="4.40" departSpeed="0.00" departDelay="14.00" arrival="25416.00" arrivalLane="32038051#0_1" arrivalPos="89.25" arrivalSpeed="19.92" duration="142.00" routeLength="203.79" waitingTime="110.00" waitingCount="2" stopTime="0.00" timeLoss="131.61" rerouteNo="0" devices="tripinfo_129253_408_0 routing_129253_408_0" vType="pkw" speedFactor="1.08" vaporized=""/>
    <tripinfo id="134807_411_0" depart="25279.00" departLane="23429231#1_0" departPos="4.40" departSpeed="0.00" departDelay="17.00" arrival="25429.00" arrivalLane="32324544#0_1" arrivalPos="90.48" arrivalSpeed="17.29" duration="150.00" routeLength="203.50" waitingTime="114.00" waitingCount="3" stopTime="0.00" timeLoss="137.97" rerouteNo="0" devices="tripinfo_134807_411_0 routing_134807_411_0" vType="pkw" speedFactor="0.92" vaporized=""/>
    <tripinfo id="137244_412_0" depart="25297.00" departLane="-32038056#3_0" departPos="4.40" departSpeed="0.00" departDelay="3.00" arrival="25457.00" arrivalLane="-28198821#4_0" arrivalPos="57.10" arrivalSpeed="16.09" duration="160.00" routeLength="437.47" waitingTime="123.00" waitingCount="1" stopTime="0.00" timeLoss="132.84" rerouteNo="0" devices="tripinfo_137244_412_0 routing_137244_412_0" vType="pkw" speedFactor="1.17" vaporized=""/>
    <tripinfo id="136082_411_0" depart="25278.00" departLane="-32038056#3_0" departPos="4.40" departSpeed="0.00" departDelay="1.00" arrival="25458.00" arrivalLane="32038051#0_0" arrivalPos="89.25" arrivalSpeed="19.17" duration="180.00" routeLength="446.95" waitingTime="141.00" waitingCount="1" stopTime="0.00" timeLoss="152.73" rerouteNo="0" devices="tripinfo_136082_411_0 routing_136082_411_0" vType="pkw" speedFactor="1.12" vaporized=""/>
    <tripinfo id="85818_390_0" depart="25281.00" departLane="-32038056#3_0" departPos="4.40" departSpeed="0.00" departDelay="1.00" arrival="25498.00" arrivalLane="32038051#0_0" arrivalPos="89.25" arrivalSpeed="18.04" duration="217.00" routeLength="446.95" waitingTime="171.00" waitingCount="2" stopTime="0.00" timeLoss="184.85" rerouteNo="0" devices="tripinfo_85818_390_0 routing_85818_390_0" vType="pkw" speedFactor="0.94" vaporized=""/>
    <tripinfo id="142412_415_0" depart="25307.00" departLane="-32038056#3_0" departPos="4.40" departSpeed="0.00" departDelay="0.00" arrival="25498.00" arrivalLane="-28198821#4_0" arrivalPos="57.10" arrivalSpeed="13.72" duration="191.00" routeLength="437.47" waitingTime="146.00" waitingCount="2" stopTime="0.00" timeLoss="159.04" rerouteNo="0" devices="tripinfo_142412_415_0 routing_142412_415_0" vType="pkw" speedFactor="1.01" vaporized=""/>
    <tripinfo id="86583_391_0" depart="25289.00" departLane="-32038056#3_0" departPos="4.40" departSpeed="0.00" departDelay="0.00" arrival="25508.00" arrivalLane="32038051#0_0" arrivalPos="89.25" arrivalSpeed="19.49" duration="219.00" routeLength="446.95" waitingTime="170.00" waitingCount="3" stopTime="0.00" timeLoss="189.68" rerouteNo="0" devices="tripinfo_86583_391_0 routing_86583_391_0" vType="pkw" speedFactor="1.04" vaporized=""/>
    <tripinfo id="138220_412_0" depart="25309.00" departLane="-32038056#3_0" departPos="4.40" departSpeed="0.00" departDelay="0.00" arrival="25509.00" arrivalLane="-28198821#4_0" arrivalPos="57.10" arrivalSpeed="10.87" duration="200.00" routeLength="437.47" waitingTime="144.00" waitingCount="3" stopTime="0.00" timeLoss="161.26" rerouteNo="0" devices="tripinfo_138220_412_0 routing_138220_412_0" vType="pkw" speedFactor="0.83" vaporized=""/>
    <tripinfo id="130372_409_0" depart="25330.00" departLane="-32038056#3_0" departPos="4.40" departSpeed="0.00" departDelay="3.00" arrival="25511.00" arrivalLane="32324544#0_1" arrivalPos="90.48" arrivalSpeed="20.24" duration="181.00" routeLength="465.51" waitingTime="133.00" waitingCount="3" stopTime="0.00" timeLoss="151.93" rerouteNo="0" devices="tripinfo_130372_409_0 routing_130372_409_0" vType="pkw" speedFactor="1.10" vaporized=""/>
    <tripinfo id="104806_398_0" depart="25332.00" departLane="-32038056#3_0" departPos="4.40" departSpeed="0.00" departDelay="3.00" arrival="25512.00" arrivalLane="32324544#0_1" arrivalPos="90.48" arrivalSpeed="21.64" duration="180.00" routeLength="465.51" waitingTime="128.00" waitingCount="3" stopTime="0.00" timeLoss="153.62" rerouteNo="0" devices="tripinfo_104806_398_0 routing_104806_398_0" vType="pkw" speedFactor="1.19" vaporized=""/>
    <tripinfo id="133955_411_0" depart="25271.00" departLane="23429231#1_0" departPos="4.40" departSpeed="0.00" departDelay="12.00" arrival="25543.00" arrivalLane="32038051#0_0" arrivalPos="89.25" arrivalSpeed="17.29" duration="272.00" routeLength="203.79" waitingTime="235.00" waitingCount="4" stopTime="0.00" timeLoss="259.79" rerouteNo="0" devices="tripinfo_133955_411_0 routing_133955_411_0" vType="pkw" speedFactor="0.92" vaporized=""/>
    <tripinfo id="86189_391_0" depart="25285.00" departLane="23429231#1_0" departPos="4.40" departSpeed="0.00" departDelay="20.00" arrival="25543.00" arrivalLane="32038051#0_1" arrivalPos="89.25" arrivalSpeed="20.37" duration="258.00" routeLength="203.79" waitingTime="217.00" waitingCount="4" stopTime="0.00" timeLoss="248.51" rerouteNo="0" devices="tripinfo_86189_391_0 routing_86189_391_0" vType="pkw" speedFactor="1.19" vaporized=""/>
    <tripinfo id="154290_420_0" depart="25431.00" departLane="27115123#2_0" departPos="4.40" departSpeed="0.00" departDelay="0.00" arrival="25543.00" arrivalLane="32324544#0_0" arrivalPos="90.48" arrivalSpeed="17.97" duration="112.00" routeLength="198.06" waitingTime="89.00" waitingCount="1" stopTime="0.00" timeLoss="101.53" rerouteNo="1" devices="tripinfo_154290_420_0 routing_154290_420_0" vType="pkw" speedFactor="1.02" vaporized=""/>
    <tripinfo id="129330_408_0" depart="25434.00" departLane="27115123#2_0" departPos="4.40" departSpeed="0.00" departDelay="2.00" arrival="25543.00" arrivalLane="32324544#0_1" arrivalPos="90.48" arrivalSpeed="18.21" duration="109.00" routeLength="198.06" waitingTime="87.00" waitingCount="1" stopTime="0.00" timeLoss="97.40" rerouteNo="1" devices="tripinfo_129330_408_0 routing_129330_408_0" vType="pkw" speedFactor="0.96" vaporized=""/>
    <tripinfo id="120275_405_0" depart="25277.00" departLane="23429231#1_0" departPos="4.40" departSpeed="0.00" departDelay="16.00" arrival="25544.00" arrivalLane="32038051#0_0" arrivalPos="89.25" arrivalSpeed="19.18" duration="267.00" routeLength="203.79" waitingTime="230.00" waitingCount="3" stopTime="0.00" timeLoss="256.96" rerouteNo="0" devices="tripinfo_120275_405_0 routing_120275_405_0" vType="pkw" speedFactor="1.07" vaporized=""/>
    <tripinfo id="153635_420_0" depart="25460.00" departLane="27115123#2_0" departPos="4.40" departSpeed="0.00" departDelay="0.00" arrival="25544.00" arrivalLane="32324544#0_0" arrivalPos="90.48" arrivalSpeed="19.84" duration="84.00" routeLength="198.06" waitingTime="61.00" waitingCount="1" stopTime="0.00" timeLoss="74.05" rerouteNo="1" devices="tripinfo_153635_420_0 routing_153635_420_0" vType="pkw" speedFactor="1.04" vaporized=""/>
    <tripinfo id="129519_408_0" depart="25291.00" departLane="23429231#1_0" departPos="4.40" departSpeed="0.00" departDelay="24.00" arrival="25545.00" arrivalLane="32038051#0_1" arrivalPos="89.25" arrivalSpeed="17.61" duration="254.00" routeLength="203.79" waitingTime="211.00" waitingCount="4" stopTime="0.00" timeLoss="242.40" rerouteNo="0" devices="tripinfo_129519_408_0 routing_129519_408_0" vType="pkw" speedFactor="0.96" vaporized=""/>
    <tripinfo id="136204_411_0" depart="25296.00" departLane="23429231#1_0" departPos="4.40" departSpeed="0.00" departDelay="27.00" arrival="25546.00" arrivalLane="32038051#0_1" arrivalPos="89.25" arrivalSpeed="21.07" duration="250.00" routeLength="203.79" waitingTime="205.00" waitingCount="4" stopTime="0.00" timeLoss="240.30" rerouteNo="0" devices="tripinfo_136204_411_0 routing_136204_411_0" vType="pkw" speedFactor="1.09" vaporized=""/>
    <tripinfo id="161689_421_0" depart="25467.00" departLane="130165204_0" departPos="4.40" departSpeed="0.00" departDelay="0.00" arrival="25546.00" arrivalLane="32324544#0_1" arrivalPos="90.48" arrivalSpeed="18.96" duration="79.00" routeLength="411.68" waitingTime="38.00" waitingCount="1" stopTime="0.00" timeLoss="52.36" rerouteNo="1" devices="tripinfo_161689_421_0 routing_161689_421_0" vType="pkw" speedFactor="1.02" vaporized=""/>
    <tripinfo id="145855_416_0" depart="25469.00" departLane="27115123#2_0" departPos="4.40" departSpeed="0.00" departDelay="0.00" arrival="25546.00" arrivalLane="32324544#0_0" arrivalPos="90.48" arrivalSpeed="19.06" duration="77.00" routeLength="198.06" waitingTime="54.00" waitingCount="1" stopTime="0.00" timeLoss="66.32" rerouteNo="1" devices="tripinfo_145855_416_0 routing_145855_416_0" vType="pkw" speedFactor="0.99" vaporized=""/>
    <tripinfo id="135201_411_0" depart="25282.00" departLane="23429231#1_0" departPos="4.40" departSpeed="0.00" departDelay="18.00" arrival="25547.00" arrivalLane="32038051#0_0" arrivalPos="89.25" arrivalSpeed="21.34" duration="265.00" routeLength="203.79" waitingTime="227.00" waitingCount="3" stopTime="0.00" timeLoss="254.69" rerouteNo="0" devices="tripinfo_135201_411_0 routing_135201_411_0" vType="pkw" speedFactor="1.12" vaporized=""/>
    <tripinfo id="137320_412_0" depart="25414.00" departLane="130165204_0" departPos="4.40" departSpeed="0.00" departDelay="0.00" arrival="25551.00" arrivalLane="32038051#0_1" arrivalPos="89.25" arrivalSpeed="18.43" duration="137.00" routeLength="410.03" waitingTime="87.00" waitingCount="3" stopTime="0.00" timeLoss="110.31" rerouteNo="1" devices="tripinfo_137320_412_0 routing_137320_412_0" vType="pkw" speedFactor="1.01" vaporized=""/>
    <tripinfo id="136669_411_0" depart="25566.00" departLane="28198821#3_0" departPos="4.40" departSpeed="0.00" departDelay="0.00" arrival="25580.00" arrivalLane="32038051#0_1" arrivalPos="89.25" arrivalSpeed="22.04" duration="14.00" routeLength="170.57" waitingTime="0.00" waitingCount="0" stopTime="0.00" timeLoss="4.40" rerouteNo="0" devices="tripinfo_136669_411_0 routing_136669_411_0" vType="pkw" speedFactor="1.13" vaporized=""/>
    <tripinfo id="57065_374_0" depart="25288.00" departLane="23429231#1_0" departPos="4.40" departSpeed="0.00" departDelay="22.00" arrival="25613.00" arrivalLane="32038051#0_0" arrivalPos="89.25" arrivalSpeed="16.67" duration="325.00" routeLength="203.79" waitingTime="282.00" waitingCount="4" stopTime="0.00" timeLoss="314.73" rerouteNo="0" devices="tripinfo_57065_374_0 routing_57065_374_0" vType="pkw" speedFactor="1.08" vaporized=""/>
    <tripinfo id="146814_416_0" depart="25301.00" departLane="23429231#1_0" departPos="4.40" departSpeed="0.00" departDelay="30.00" arrival="25613.00" arrivalLane="32038051#0_1" arrivalPos="89.25" arrivalSpeed="17.41" duration="312.00" routeLength="203.79" waitingTime="258.00" waitingCount="5" stopTime="0.00" timeLoss="299.56" rerouteNo="0" devices="tripinfo_146814_416_0 routing_146814_416_0" vType="pkw" speedFactor="0.90" vaporized=""/>
    <tripinfo id="164382_422_0" depart="25469.00" departLane="130165204_0" departPos="4.40" departSpeed="0.00" departDelay="0.00" arrival="25613.00" arrivalLane="32324544#0_0" arrivalPos="90.48" arrivalSpeed="17.36" duration="144.00" routeLength="411.68" waitingTime="98.00" waitingCount="2" stopTime="0.00" timeLoss="115.76" rerouteNo="1" devices="tripinfo_164382_422_0 routing_164382_422_0" vType="pkw" speedFactor="0.94" vaporized=""/>
    <tripinfo id="100928_396_0" depart="25472.00" departLane="130165204_0" departPos="4.40" departSpeed="0.00" departDelay="0.00" arrival="25613.00" arrivalLane="32324544#0_1" arrivalPos="90.48" arrivalSpeed="19.73" duration="141.00" routeLength="411.68" waitingTime="95.00" waitingCount="2" stopTime="0.00" timeLoss="117.20" rerouteNo="1" devices="tripinfo_100928_396_0 routing_100928_396_0" vType="pkw" speedFactor="1.11" vaporized=""/>
    <tripinfo id="82015_389_0" depart="25294.00" departLane="23429231#1_0" departPos="4.40" departSpeed="0.00" departDelay="26.00" arrival="25615.00" arrivalLane="32038051#0_0" arrivalPos="89.25" arrivalSpeed="18.79" duration="321.00" routeLength="203.79" waitingTime="277.00" waitingCount="4" stopTime="0.00" timeLoss="310.30" rerouteNo="0" devices="tripinfo_82015_389_0 routing_82015_389_0" vType="pkw" speedFactor="1.04" vaporized=""/>
    <tripinfo id="118286_405_0" depart="25307.00" departLane="23429231#1_0" departPos="4.40" departSpeed="0.00" departDelay="34.00" arrival="25615.00" arrivalLane="32038051#0_1" arrivalPos="89.25" arrivalSpeed="18.70" duration="308.00" routeLength="203.79" waitingTime="253.00" waitingCount="5" stopTime="0.00" timeLoss="296.93" rerouteNo="0" devices="tripinfo_118286_405_0 routing_118286_405_0" vType="pkw" speedFactor="1.03" vaporized=""/>
    <tripinfo id="159287_421_0" depart="25503.00" departLane="27115123#2_0" departPos="4.40" departSpeed="0.00" departDelay="0.00" arrival="25615.00" arrivalLane="32324544#0_0" arrivalPos="90.48" arrivalSpeed="19.26" duration="112.00" routeLength="198.06" waitingTime="84.00" waitingCount="2" stopTime="0.00" timeLoss="100.95" rerouteNo="1" devices="tripinfo_159287_421_0 routing_159287_421_0" vType="pkw" speedFactor="1.00" vaporized=""/>
    <tripinfo id="154948_420_0" depart="25506.00" departLane="27115123#2_0" departPos="4.40" departSpeed="0.00" departDelay="2.00" arrival="25615.00" arrivalLane="32324544#0_1" arrivalPos="90.48" arrivalSpeed="21.45" duration="109.00" routeLength="198.06" waitingTime="77.00" waitingCount="2" stopTime="0.00" timeLoss="99.05" rerouteNo="1" devices="tripinfo_154948_420_0 routing_154948_420_0" vType="pkw" speedFactor="1.11" vaporized=""/>
    <tripinfo id="135431_411_0" depart="25299.00" departLane="23429231#1_0" departPos="4.40" departSpeed="0.00" departDelay="30.00" arrival="25616.00" arrivalLane="32038051#0_0" arrivalPos="89.25" arrivalSpeed="19.51" duration="317.00" routeLength="203.79" waitingTime="271.00" waitingCount="4" stopTime="0.00" timeLoss="307.70" rerouteNo="0" devices="tripinfo_135431_411_0 routing_135431_411_0" vType="pkw" speedFactor="1.14" vaporized=""/>
    <tripinfo id="108236_400_0" depart="25312.00" departLane="23429231#1_0" departPos="4.40" departSpeed="0.00" departDelay="38.00" arrival="25616.00" arrivalLane="32038051#0_1" arrivalPos="89.25" arrivalSpeed="19.33" duration="304.00" routeLength="203.79" waitingTime="247.00" waitingCount="5" stopTime="0.00" timeLoss="293.68" rerouteNo="0" devices="tripinfo_108236_400_0 routing_108236_400_0" vType="pkw" speedFactor="1.04" vaporized=""/>