<?xml version="1.0" encoding="UTF-8"?>

<!-- generated on 2023-08-31 13:14:35 by Eclipse SUMO libsumo Version 1.18.0
<configuration xmlns:xsi="http://www.w3.org/2001/XMLSchema-instance" xsi:noNamespaceSchemaLocation="http://sumo.dlr.de/xsd/libsumoConfiguration.xsd">

    <input>
        <net-file value="/home/stefan/RESCO/./environments/cologne1/cologne1.net.xml"/>
        <route-files value="/home/stefan/RESCO/./environments/cologne1/cologne1.rou.xml"/>
    </input>

    <output>
        <tripinfo-output value="/home/stefan/results/RAINBOW-tr0-cologne1-0-drq_norm-wait_norm/tripinfo_27.xml"/>
        <tripinfo-output.write-unfinished value="true"/>
    </output>

    <time>
        <begin value="25200"/>
        <end value="28800"/>
    </time>

    <processing>
        <time-to-teleport value="-1"/>
    </processing>

    <report>
        <no-warnings value="True"/>
        <no-step-log value="True"/>
    </report>

    <random_number>
        <random value="true"/>
    </random_number>

</configuration>
-->

<tripinfos xmlns:xsi="http://www.w3.org/2001/XMLSchema-instance" xsi:noNamespaceSchemaLocation="http://sumo.dlr.de/xsd/tripinfo_file.xsd">
    <tripinfo id="124779_406_0" depart="25205.00" departLane="28198821#3_0" departPos="4.40" departSpeed="0.00" departDelay="0.00" arrival="25229.00" arrivalLane="32038051#0_1" arrivalPos="89.25" arrivalSpeed="18.23" duration="24.00" routeLength="170.57" waitingTime="4.00" waitingCount="1" stopTime="0.00" timeLoss="12.70" rerouteNo="0" devices="tripinfo_124779_406_0 routing_124779_406_0" vType="pkw" speedFactor="0.97" vaporized=""/>
    <tripinfo id="151372_418_0" depart="25207.00" departLane="130165204_0" departPos="4.40" departSpeed="0.00" departDelay="0.00" arrival="25239.00" arrivalLane="32038051#0_1" arrivalPos="89.25" arrivalSpeed="20.26" duration="32.00" routeLength="410.03" waitingTime="0.00" waitingCount="0" stopTime="0.00" timeLoss="6.18" rerouteNo="1" devices="tripinfo_151372_418_0 routing_151372_418_0" vType="pkw" speedFactor="1.05" vaporized=""/>
    <tripinfo id="98305_395_0" depart="25211.00" departLane="28198821#3_0" departPos="4.40" departSpeed="0.00" departDelay="0.00" arrival="25250.00" arrivalLane="32038051#0_1" arrivalPos="89.25" arrivalSpeed="14.23" duration="39.00" routeLength="170.57" waitingTime="16.00" waitingCount="1" stopTime="0.00" timeLoss="25.88" rerouteNo="0" devices="tripinfo_98305_395_0 routing_98305_395_0" vType="pkw" speedFactor="0.79" vaporized=""/>
    <tripinfo id="121258_405_0" depart="25240.00" departLane="23429231#1_0" departPos="4.40" departSpeed="0.00" departDelay="0.00" arrival="25256.00" arrivalLane="32038051#0_0" arrivalPos="89.25" arrivalSpeed="17.09" duration="16.00" routeLength="203.79" waitingTime="0.00" waitingCount="0" stopTime="0.00" timeLoss="3.96" rerouteNo="0" devices="tripinfo_121258_405_0 routing_121258_405_0" vType="pkw" speedFactor="0.90" vaporized=""/>
    <tripinfo id="149029_417_0" depart="25236.00" departLane="27115123#2_0" departPos="4.40" departSpeed="0.00" departDelay="0.00" arrival="25260.00" arrivalLane="32038051#0_1" arrivalPos="89.25" arrivalSpeed="19.81" duration="24.00" routeLength="196.41" waitingTime="2.00" waitingCount="1" stopTime="0.00" timeLoss="14.63" rerouteNo="1" devices="tripinfo_149029_417_0 routing_149029_417_0" vType="pkw" speedFactor="1.17" vaporized=""/>
    <tripinfo id="123965_406_0" depart="25218.00" departLane="-32038056#3_0" departPos="4.40" departSpeed="0.00" departDelay="0.00" arrival="25268.00" arrivalLane="-28198821#4_0" arrivalPos="57.10" arrivalSpeed="14.57" duration="50.00" routeLength="437.47" waitingTime="9.00" waitingCount="1" stopTime="0.00" timeLoss="19.58" rerouteNo="0" devices="tripinfo_123965_406_0 routing_123965_406_0" vType="pkw" speedFactor="1.06" vaporized=""/>
    <tripinfo id="91582_392_0" depart="25220.00" departLane="-32038056#3_0" departPos="4.40" departSpeed="0.00" departDelay="2.00" arrival="25270.00" arrivalLane="32324544#0_1" arrivalPos="90.48" arrivalSpeed="17.25" duration="50.00" routeLength="465.51" waitingTime="3.00" waitingCount="1" stopTime="0.00" timeLoss="15.36" rerouteNo="0" devices="tripinfo_91582_392_0 routing_91582_392_0" vType="pkw" speedFactor="0.92" vaporized=""/>
    <tripinfo id="102535_396_0" depart="25218.00" departLane="28198821#3_0" departPos="4.40" departSpeed="0.00" departDelay="0.00" arrival="25274.00" arrivalLane="32038051#0_1" arrivalPos="89.25" arrivalSpeed="17.02" duration="56.00" routeLength="170.57" waitingTime="25.00" waitingCount="2" stopTime="0.00" timeLoss="44.06" rerouteNo="0" devices="tripinfo_102535_396_0 routing_102535_396_0" vType="pkw" speedFactor="0.90" vaporized=""/>
    <tripinfo id="147209_416_0" depart="25220.00" departLane="28198821#3_0" departPos="4.40" departSpeed="0.00" departDelay="0.00" arrival="25276.00" arrivalLane="32038051#0_1" arrivalPos="89.25" arrivalSpeed="16.70" duration="56.00" routeLength="170.57" waitingTime="24.00" waitingCount="2" stopTime="0.00" timeLoss="43.59" rerouteNo="0" devices="tripinfo_147209_416_0 routing_147209_416_0" vType="pkw" speedFactor="0.87" vaporized=""/>
    <tripinfo id="102501_396_0" depart="25245.00" departLane="23429231#1_0" departPos="4.40" departSpeed="0.00" departDelay="1.00" arrival="25283.00" arrivalLane="32038051#0_1" arrivalPos="89.25" arrivalSpeed="19.59" duration="38.00" routeLength="203.79" waitingTime="13.00" waitingCount="1" stopTime="0.00" timeLoss="26.89" rerouteNo="0" devices="tripinfo_102501_396_0 routing_102501_396_0" vType="pkw" speedFactor="1.02" vaporized=""/>
    <tripinfo id="126742_407_0" depart="25242.00" departLane="23429231#1_0" departPos="4.40" departSpeed="0.00" departDelay="2.00" arrival="25284.00" arrivalLane="32038051#0_0" arrivalPos="89.25" arrivalSpeed="13.56" duration="42.00" routeLength="203.79" waitingTime="17.00" waitingCount="1" stopTime="0.00" timeLoss="26.67" rerouteNo="0" devices="tripinfo_126742_407_0 routing_126742_407_0" vType="pkw" speedFactor="0.71" vaporized=""/>
    <tripinfo id="120663_405_0" depart="25247.00" departLane="23429231#1_0" departPos="4.40" departSpeed="0.00" departDelay="1.00" arrival="25286.00" arrivalLane="32038051#0_0" arrivalPos="89.25" arrivalSpeed="16.73" duration="39.00" routeLength="203.79" waitingTime="14.00" waitingCount="1" stopTime="0.00" timeLoss="26.83" rerouteNo="0" devices="tripinfo_120663_405_0 routing_120663_405_0" vType="pkw" speedFactor="0.93" vaporized=""/>
    <tripinfo id="113509_402_0" depart="25250.00" departLane="23429231#1_0" departPos="4.40" departSpeed="0.00" departDelay="2.00" arrival="25286.00" arrivalLane="-28198821#4_1" arrivalPos="57.10" arrivalSpeed="14.15" duration="36.00" routeLength="179.90" waitingTime="10.00" waitingCount="1" stopTime="0.00" timeLoss="24.93" rerouteNo="0" devices="tripinfo_113509_402_0 routing_113509_402_0" vType="pkw" speedFactor="1.05" vaporized=""/>
    <tripinfo id="102630_396_0" depart="25255.00" departLane="23429231#1_0" departPos="4.40" departSpeed="0.00" departDelay="3.00" arrival="25286.00" arrivalLane="32038051#0_1" arrivalPos="89.25" arrivalSpeed="17.72" duration="31.00" routeLength="203.79" waitingTime="6.00" waitingCount="1" stopTime="0.00" timeLoss="19.96" rerouteNo="0" devices="tripinfo_102630_396_0 routing_102630_396_0" vType="pkw" speedFactor="0.97" vaporized=""/>
    <tripinfo id="130147_409_0" depart="25253.00" departLane="23429231#1_0" departPos="4.40" departSpeed="0.00" departDelay="2.00" arrival="25287.00" arrivalLane="32038051#0_0" arrivalPos="89.25" arrivalSpeed="16.74" duration="34.00" routeLength="203.79" waitingTime="10.00" waitingCount="1" stopTime="0.00" timeLoss="24.63" rerouteNo="0" devices="tripinfo_130147_409_0 routing_130147_409_0" vType="pkw" speedFactor="1.17" vaporized=""/>
    <tripinfo id="115444_403_0" depart="25294.00" departLane="28198821#3_0" departPos="4.40" departSpeed="0.00" departDelay="0.00" arrival="25311.00" arrivalLane="32038051#0_1" arrivalPos="89.25" arrivalSpeed="20.31" duration="17.00" routeLength="170.57" waitingTime="0.00" waitingCount="0" stopTime="0.00" timeLoss="7.77" rerouteNo="0" devices="tripinfo_115444_403_0 routing_115444_403_0" vType="pkw" speedFactor="1.11" vaporized=""/>
    <tripinfo id="103540_397_0" depart="25300.00" departLane="28198821#3_0" departPos="4.40" departSpeed="0.00" departDelay="0.00" arrival="25314.00" arrivalLane="32038051#0_1" arrivalPos="89.25" arrivalSpeed="18.28" duration="14.00" routeLength="170.57" waitingTime="0.00" waitingCount="0" stopTime="0.00" timeLoss="3.65" rerouteNo="0" devices="tripinfo_103540_397_0 routing_103540_397_0" vType="pkw" speedFactor="0.98" vaporized=""/>
    <tripinfo id="122376_406_0" depart="25258.00" departLane="23429231#1_0" departPos="4.40" departSpeed="0.00" departDelay="4.00" arrival="25323.00" arrivalLane="32038051#0_0" arrivalPos="89.25" arrivalSpeed="18.05" duration="65.00" routeLength="203.79" waitingTime="35.00" waitingCount="2" stopTime="0.00" timeLoss="52.99" rerouteNo="0" devices="tripinfo_122376_406_0 routing_122376_406_0" vType="pkw" speedFactor="0.94" vaporized=""/>
    <tripinfo id="122194_406_0" depart="25261.00" departLane="23429231#1_0" departPos="4.40" departSpeed="0.00" departDelay="6.00" arrival="25323.00" arrivalLane="32038051#0_1" arrivalPos="89.25" arrivalSpeed="17.43" duration="62.00" routeLength="203.79" waitingTime="32.00" waitingCount="2" stopTime="0.00" timeLoss="49.89" rerouteNo="0" devices="tripinfo_122194_406_0 routing_122194_406_0" vType="pkw" speedFactor="0.90" vaporized=""/>
    <tripinfo id="148629_417_0" depart="25284.00" departLane="27115123#2_0" departPos="4.40" departSpeed="0.00" departDelay="0.00" arrival="25323.00" arrivalLane="32324544#0_0" arrivalPos="90.48" arrivalSpeed="23.00" duration="39.00" routeLength="198.06" waitingTime="17.00" waitingCount="1" stopTime="0.00" timeLoss="30.13" rerouteNo="1" devices="tripinfo_148629_417_0 routing_148629_417_0" vType="pkw" speedFactor="1.27" vaporized=""/>
    <tripinfo id="152958_419_0" depart="25267.00" departLane="23429231#1_0" departPos="4.40" departSpeed="0.00" departDelay="10.00" arrival="25324.00" arrivalLane="32038051#0_0" arrivalPos="89.25" arrivalSpeed="19.13" duration="57.00" routeLength="203.79" waitingTime="31.00" waitingCount="1" stopTime="0.00" timeLoss="47.16" rerouteNo="0" devices="tripinfo_152958_419_0 routing_152958_419_0" vType="pkw" speedFactor="1.10" vaporized=""/>
    <tripinfo id="135103_411_0" depart="25264.00" departLane="23429231#1_0" departPos="4.40" departSpeed="0.00" departDelay="8.00" arrival="25325.00" arrivalLane="32038051#0_1" arrivalPos="89.25" arrivalSpeed="17.57" duration="61.00" routeLength="203.79" waitingTime="29.00" waitingCount="1" stopTime="0.00" timeLoss="49.44" rerouteNo="0" devices="tripinfo_135103_411_0 routing_135103_411_0" vType="pkw" speedFactor="0.94" vaporized=""/>
    <tripinfo id="125613_406_0" depart="25270.00" departLane="23429231#1_0" departPos="4.40" departSpeed="0.00" departDelay="12.00" arrival="25326.00" arrivalLane="32038051#0_0" arrivalPos="89.25" arrivalSpeed="19.35" duration="56.00" routeLength="203.79" waitingTime="29.00" waitingCount="1" stopTime="0.00" timeLoss="44.87" rerouteNo="0" devices="tripinfo_125613_406_0 routing_125613_406_0" vType="pkw" speedFactor="1.01" vaporized=""/>
    <tripinfo id="133955_411_0" depart="25273.00" departLane="23429231#1_0" departPos="4.40" departSpeed="0.00" departDelay="14.00" arrival="25327.00" arrivalLane="32038051#0_1" arrivalPos="89.25" arrivalSpeed="18.40" duration="54.00" routeLength="203.79" waitingTime="28.00" waitingCount="1" stopTime="0.00" timeLoss="42.46" rerouteNo="0" devices="tripinfo_133955_411_0 routing_133955_411_0" vType="pkw" speedFactor="0.96" vaporized=""/>
    <tripinfo id="134807_411_0" depart="25281.00" departLane="23429231#1_0" departPos="4.40" departSpeed="0.00" departDelay="19.00" arrival="25339.00" arrivalLane="32324544#0_1" arrivalPos="90.48" arrivalSpeed="18.98" duration="58.00" routeLength="203.50" waitingTime="28.00" waitingCount="2" stopTime="0.00" timeLoss="46.98" rerouteNo="0" devices="tripinfo_134807_411_0 routing_134807_411_0" vType="pkw" speedFactor="1.01" vaporized=""/>
    <tripinfo id="129253_408_0" depart="25275.00" departLane="23429231#1_0" departPos="4.40" departSpeed="0.00" departDelay="15.00" arrival="25342.00" arrivalLane="32038051#0_0" arrivalPos="89.25" arrivalSpeed="20.30" duration="67.00" routeLength="203.79" waitingTime="38.00" waitingCount="2" stopTime="0.00" timeLoss="57.18" rerouteNo="0" devices="tripinfo_129253_408_0 routing_129253_408_0" vType="pkw" speedFactor="1.08" vaporized=""/>
    <tripinfo id="135201_411_0" depart="25283.00" departLane="23429231#1_0" departPos="4.40" departSpeed="0.00" departDelay="19.00" arrival="25343.00" arrivalLane="32038051#0_1" arrivalPos="89.25" arrivalSpeed="16.26" duration="60.00" routeLength="203.79" waitingTime="25.00" waitingCount="2" stopTime="0.00" timeLoss="47.47" rerouteNo="0" devices="tripinfo_135201_411_0 routing_135201_411_0" vType="pkw" speedFactor="0.87" vaporized=""/>
    <tripinfo id="120275_405_0" depart="25278.00" departLane="23429231#1_0" departPos="4.40" departSpeed="0.00" departDelay="17.00" arrival="25344.00" arrivalLane="32038051#0_0" arrivalPos="89.25" arrivalSpeed="17.40" duration="66.00" routeLength="203.79" waitingTime="35.00" waitingCount="2" stopTime="0.00" timeLoss="55.62" rerouteNo="0" devices="tripinfo_120275_405_0 routing_120275_405_0" vType="pkw" speedFactor="1.02" vaporized=""/>
    <tripinfo id="57065_374_0" depart="25288.00" departLane="23429231#1_0" departPos="4.40" departSpeed="0.00" departDelay="22.00" arrival="25345.00" arrivalLane="32038051#0_1" arrivalPos="89.25" arrivalSpeed="17.25" duration="57.00" routeLength="203.79" waitingTime="23.00" waitingCount="3" stopTime="0.00" timeLoss="45.08" rerouteNo="0" devices="tripinfo_57065_374_0 routing_57065_374_0" vType="pkw" speedFactor="0.95" vaporized=""/>
    <tripinfo id="86189_391_0" depart="25285.00" departLane="23429231#1_0" departPos="4.40" departSpeed="0.00" departDelay="20.00" arrival="25346.00" arrivalLane="32038051#0_0" arrivalPos="89.25" arrivalSpeed="20.28" duration="61.00" routeLength="203.79" waitingTime="31.00" waitingCount="2" stopTime="0.00" timeLoss="50.44" rerouteNo="0" devices="tripinfo_86189_391_0 routing_86189_391_0" vType="pkw" speedFactor="1.05" vaporized=""/>
    <tripinfo id="82015_389_0" depart="25294.00" departLane="23429231#1_0" departPos="4.40" departSpeed="0.00" departDelay="26.00" arrival="25346.00" arrivalLane="32038051#0_1" arrivalPos="89.25" arrivalSpeed="15.23" duration="52.00" routeLength="203.79" waitingTime="17.00" waitingCount="2" stopTime="0.00" timeLoss="39.31" rerouteNo="0" devices="tripinfo_82015_389_0 routing_82015_389_0" vType="pkw" speedFactor="0.83" vaporized=""/>
    <tripinfo id="162096_421_0" depart="25306.00" departLane="130165204_0" departPos="4.40" departSpeed="0.00" departDelay="0.00" arrival="25351.00" arrivalLane="32038051#0_1" arrivalPos="89.25" arrivalSpeed="18.14" duration="45.00" routeLength="410.03" waitingTime="4.00" waitingCount="1" stopTime="0.00" timeLoss="18.45" rerouteNo="1" devices="tripinfo_162096_421_0 routing_162096_421_0" vType="pkw" speedFactor="1.01" vaporized=""/>
    <tripinfo id="175147_428_0" depart="25324.00" departLane="130165204_0" departPos="4.40" departSpeed="0.00" departDelay="0.00" arrival="25357.00" arrivalLane="32038051#0_1" arrivalPos="89.25" arrivalSpeed="19.17" duration="33.00" routeLength="410.03" waitingTime="0.00" waitingCount="0" stopTime="0.00" timeLoss="6.87" rerouteNo="1" devices="tripinfo_175147_428_0 routing_175147_428_0" vType="pkw" speedFactor="1.00" vaporized=""/>
    <tripinfo id="160150_421_0" depart="25223.00" departLane="-32038056#3_0" departPos="4.40" departSpeed="0.00" departDelay="4.00" arrival="25368.00" arrivalLane="32038051#0_0" arrivalPos="89.25" arrivalSpeed="18.12" duration="145.00" routeLength="446.95" waitingTime="99.00" waitingCount="2" stopTime="0.00" timeLoss="113.45" rerouteNo="0" devices="tripinfo_160150_421_0 routing_160150_421_0" vType="pkw" speedFactor="0.97" vaporized=""/>
    <tripinfo id="130602_409_0" depart="25268.00" departLane="-32038056#3_0" departPos="4.40" departSpeed="0.00" departDelay="0.00" arrival="25368.00" arrivalLane="-28198821#4_1" arrivalPos="57.10" arrivalSpeed="13.38" duration="100.00" routeLength="437.47" waitingTime="57.00" waitingCount="1" stopTime="0.00" timeLoss="67.33" rerouteNo="0" devices="tripinfo_130602_409_0 routing_130602_409_0" vType="pkw" speedFactor="0.97" vaporized=""/>
    <tripinfo id="135431_411_0" depart="25300.00" departLane="23429231#1_0" departPos="4.40" departSpeed="0.00" departDelay="31.00" arrival="25372.00" arrivalLane="32038051#0_1" arrivalPos="89.25" arrivalSpeed="20.17" duration="72.00" routeLength="203.79" waitingTime="34.00" waitingCount="3" stopTime="0.00" timeLoss="62.30" rerouteNo="0" devices="tripinfo_135431_411_0 routing_135431_411_0" vType="pkw" speedFactor="1.09" vaporized=""/>
    <tripinfo id="129519_408_0" depart="25292.00" departLane="23429231#1_0" departPos="4.40" departSpeed="0.00" departDelay="25.00" arrival="25373.00" arrivalLane="32038051#0_0" arrivalPos="89.25" arrivalSpeed="21.28" duration="81.00" routeLength="203.79" waitingTime="48.00" waitingCount="3" stopTime="0.00" timeLoss="70.86" rerouteNo="0" devices="tripinfo_129519_408_0 routing_129519_408_0" vType="pkw" speedFactor="1.12" vaporized=""/>
    <tripinfo id="125316_406_0" depart="25305.00" departLane="23429231#1_0" departPos="4.40" departSpeed="0.00" departDelay="34.00" arrival="25374.00" arrivalLane="32038051#0_1" arrivalPos="89.25" arrivalSpeed="18.07" duration="69.00" routeLength="203.79" waitingTime="28.00" waitingCount="3" stopTime="0.00" timeLoss="58.02" rerouteNo="0" devices="tripinfo_125316_406_0 routing_125316_406_0" vType="pkw" speedFactor="0.97" vaporized=""/>
    <tripinfo id="136204_411_0" depart="25297.00" departLane="23429231#1_0" departPos="4.40" departSpeed="0.00" departDelay="28.00" arrival="25375.00" arrivalLane="32038051#0_0" arrivalPos="89.25" arrivalSpeed="17.24" duration="78.00" routeLength="203.79" waitingTime="42.00" waitingCount="3" stopTime="0.00" timeLoss="65.58" rerouteNo="0" devices="tripinfo_136204_411_0 routing_136204_411_0" vType="pkw" speedFactor="0.91" vaporized=""/>
    <tripinfo id="146814_416_0" depart="25302.00" departLane="23429231#1_0" departPos="4.40" departSpeed="0.00" departDelay="31.00" arrival="25376.00" arrivalLane="32038051#0_0" arrivalPos="89.25" arrivalSpeed="17.30" duration="74.00" routeLength="203.79" waitingTime="37.00" waitingCount="3" stopTime="0.00" timeLoss="64.37" rerouteNo="0" devices="tripinfo_146814_416_0 routing_146814_416_0" vType="pkw" speedFactor="1.09" vaporized=""/>
    <tripinfo id="134435_411_0" depart="25310.00" departLane="23429231#1_0" departPos="4.40" departSpeed="0.00" departDelay="37.00" arrival="25376.00" arrivalLane="32038051#0_1" arrivalPos="89.25" arrivalSpeed="15.57" duration="66.00" routeLength="203.79" waitingTime="24.00" waitingCount="3" stopTime="0.00" timeLoss="53.34" rerouteNo="0" devices="tripinfo_134435_411_0 routing_134435_411_0" vType="pkw" speedFactor="0.83" vaporized=""/>
    <tripinfo id="161721_421_0" depart="25337.00" departLane="130165204_0" departPos="4.40" departSpeed="0.00" departDelay="0.00" arrival="25381.00" arrivalLane="32038051#0_1" arrivalPos="89.25" arrivalSpeed="19.04" duration="44.00" routeLength="410.03" waitingTime="3.00" waitingCount="1" stopTime="0.00" timeLoss="19.24" rerouteNo="1" devices="tripinfo_161721_421_0 routing_161721_421_0" vType="pkw" speedFactor="1.08" vaporized=""/>
    <tripinfo id="162814_422_0" depart="25233.00" departLane="-32038056#3_0" departPos="4.40" departSpeed="0.00" departDelay="0.00" arrival="25388.00" arrivalLane="32038051#0_0" arrivalPos="89.25" arrivalSpeed="18.45" duration="155.00" routeLength="446.95" waitingTime="108.00" waitingCount="2" stopTime="0.00" timeLoss="125.11" rerouteNo="0" devices="tripinfo_162814_422_0 routing_162814_422_0" vType="pkw" speedFactor="1.02" vaporized=""/>
    <tripinfo id="128446_408_0" depart="25273.00" departLane="-32038056#3_0" departPos="4.40" departSpeed="0.00" departDelay="0.00" arrival="25389.00" arrivalLane="32324544#0_1" arrivalPos="90.48" arrivalSpeed="17.43" duration="116.00" routeLength="465.51" waitingTime="69.00" waitingCount="2" stopTime="0.00" timeLoss="82.06" rerouteNo="0" devices="tripinfo_128446_408_0 routing_128446_408_0" vType="pkw" speedFactor="0.93" vaporized=""/>
    <tripinfo id="136082_411_0" depart="25278.00" departLane="-32038056#3_0" departPos="4.40" departSpeed="0.00" departDelay="1.00" arrival="25390.00" arrivalLane="32038051#0_0" arrivalPos="89.25" arrivalSpeed="17.55" duration="112.00" routeLength="446.95" waitingTime="65.00" waitingCount="2" stopTime="0.00" timeLoss="80.45" rerouteNo="0" devices="tripinfo_136082_411_0 routing_136082_411_0" vType="pkw" speedFactor="0.96" vaporized=""/>
    <tripinfo id="83516_390_0" depart="25275.00" departLane="-32038056#3_0" departPos="4.40" departSpeed="0.00" departDelay="0.00" arrival="25392.00" arrivalLane="32324544#0_1" arrivalPos="90.48" arrivalSpeed="19.53" duration="117.00" routeLength="465.51" waitingTime="68.00" waitingCount="2" stopTime="0.00" timeLoss="85.19" rerouteNo="0" devices="tripinfo_83516_390_0 routing_83516_390_0" vType="pkw" speedFactor="1.01" vaporized=""/>
    <tripinfo id="85818_390_0" depart="25281.00" departLane="-32038056#3_0" departPos="4.40" departSpeed="0.00" departDelay="1.00" arrival="25392.00" arrivalLane="32038051#0_0" arrivalPos="89.25" arrivalSpeed="18.56" duration="111.00" routeLength="446.95" waitingTime="62.00" waitingCount="2" stopTime="0.00" timeLoss="80.09" rerouteNo="0" devices="tripinfo_85818_390_0 routing_85818_390_0" vType="pkw" speedFactor="1.00" vaporized=""/>
    <tripinfo id="86583_391_0" depart="25289.00" departLane="-32038056#3_0" departPos="4.40" departSpeed="0.00" departDelay="0.00" arrival="25393.00" arrivalLane="32038051#0_0" arrivalPos="89.25" arrivalSpeed="18.60" duration="104.00" routeLength="446.95" waitingTime="56.00" waitingCount="2" stopTime="0.00" timeLoss="73.07" rerouteNo="0" devices="tripinfo_86583_391_0 routing_86583_391_0" vType="pkw" speedFactor="0.97" vaporized=""/>
    <tripinfo id="113303_402_0" depart="25284.00" departLane="-32038056#3_0" departPos="4.40" departSpeed="0.00" departDelay="1.00" arrival="25394.00" arrivalLane="32324544#0_1" arrivalPos="90.48" arrivalSpeed="17.79" duration="110.00" routeLength="465.51" waitingTime="60.00" waitingCount="2" stopTime="0.00" timeLoss="76.87" rerouteNo="0" devices="tripinfo_113303_402_0 routing_113303_402_0" vType="pkw" speedFactor="0.97" vaporized=""/>
    <tripinfo id="137244_412_0" depart="25297.00" departLane="-32038056#3_0" departPos="4.40" departSpeed="0.00" departDelay="3.00" arrival="25394.00" arrivalLane="-28198821#4_1" arrivalPos="57.10" arrivalSpeed="13.05" duration="97.00" routeLength="437.47" waitingTime="46.00" waitingCount="2" stopTime="0.00" timeLoss="64.24" rerouteNo="0" devices="tripinfo_137244_412_0 routing_137244_412_0" vType="pkw" speedFactor="0.96" vaporized=""/>
    <tripinfo id="120878_405_0" depart="25292.00" departLane="-32038056#3_0" departPos="4.40" departSpeed="0.00" departDelay="1.00" arrival="25395.00" arrivalLane="32038051#0_0" arrivalPos="89.25" arrivalSpeed="19.64" duration="103.00" routeLength="446.95" waitingTime="54.00" waitingCount="2" stopTime="0.00" timeLoss="74.10" rerouteNo="0" devices="tripinfo_120878_405_0 routing_120878_405_0" vType="pkw" speedFactor="1.07" vaporized=""/>
    <tripinfo id="142412_415_0" depart="25307.00" departLane="-32038056#3_0" departPos="4.40" departSpeed="0.00" departDelay="0.00" arrival="25396.00" arrivalLane="-28198821#4_1" arrivalPos="57.10" arrivalSpeed="12.12" duration="89.00" routeLength="437.47" waitingTime="38.00" waitingCount="2" stopTime="0.00" timeLoss="56.10" rerouteNo="0" devices="tripinfo_142412_415_0 routing_142412_415_0" vType="pkw" speedFactor="0.96" vaporized=""/>
    <tripinfo id="118286_405_0" depart="25308.00" departLane="23429231#1_0" departPos="4.40" departSpeed="0.00" departDelay="35.00" arrival="25423.00" arrivalLane="32038051#0_0" arrivalPos="89.25" arrivalSpeed="18.43" duration="115.00" routeLength="203.79" waitingTime="72.00" waitingCount="4" stopTime="0.00" timeLoss="103.55" rerouteNo="0" devices="tripinfo_118286_405_0 routing_118286_405_0" vType="pkw" speedFactor="1.00" vaporized=""/>
    <tripinfo id="146536_416_0" depart="25316.00" departLane="23429231#1_0" departPos="4.40" departSpeed="0.00" departDelay="41.00" arrival="25423.00" arrivalLane="32038051#0_1" arrivalPos="89.25" arrivalSpeed="20.14" duration="107.00" routeLength="203.79" waitingTime="60.00" waitingCount="3" stopTime="0.00" timeLoss="96.47" rerouteNo="0" devices="tripinfo_146536_416_0 routing_146536_416_0" vType="pkw" speedFactor="1.05" vaporized=""/>
    <tripinfo id="108236_400_0" depart="25313.00" departLane="23429231#1_0" departPos="4.40" departSpeed="0.00" departDelay="39.00" arrival="25424.00" arrivalLane="32038051#0_0" arrivalPos="89.25" arrivalSpeed="19.77" duration="111.00" routeLength="203.79" waitingTime="67.00" waitingCount="4" stopTime="0.00" timeLoss="100.27" rerouteNo="0" devices="tripinfo_108236_400_0 routing_108236_400_0" vType="pkw" speedFactor="1.02" vaporized=""/>
    <tripinfo id="118931_405_0" depart="25321.00" departLane="23429231#1_0" departPos="4.40" departSpeed="0.00" departDelay="44.00" arrival="25425.00" arrivalLane="32038051#0_1" arrivalPos="89.25" arrivalSpeed="15.90" duration="104.00" routeLength="203.79" waitingTime="58.00" waitingCount="2" stopTime="0.00" timeLoss="91.12" rerouteNo="0" devices="tripinfo_118931_405_0 routing_118931_405_0" vType="pkw" speedFactor="0.86" vaporized=""/>
    <tripinfo id="110905_401_0" depart="25319.00" departLane="23429231#1_0" departPos="4.40" departSpeed="0.00" departDelay="43.00" arrival="25426.00" arrivalLane="32038051#0_0" arrivalPos="89.25" arrivalSpeed="19.17" duration="107.00" routeLength="203.79" waitingTime="64.00" waitingCount="3" stopTime="0.00" timeLoss="96.14" rerouteNo="0" devices="tripinfo_110905_401_0 routing_110905_401_0" vType="pkw" speedFactor="1.03" vaporized=""/>
    <tripinfo id="157203_421_0" depart="25327.00" departLane="23429231#1_0" departPos="4.40" departSpeed="0.00" departDelay="47.00" arrival="25426.00" arrivalLane="32038051#0_1" arrivalPos="89.25" arrivalSpeed="17.10" duration="99.00" routeLength="203.79" waitingTime="57.00" waitingCount="3" stopTime="0.00" timeLoss="87.77" rerouteNo="0" devices="tripinfo_157203_421_0 routing_157203_421_0" vType="pkw" speedFactor="0.95" vaporized=""/>
    <tripinfo id="85922_391_0" depart="25294.00" departLane="-32038056#3_0" departPos="4.40" departSpeed="0.00" departDelay="1.00" arrival="25439.00" arrivalLane="32038051#0_0" arrivalPos="89.25" arrivalSpeed="17.89" duration="145.00" routeLength="446.95" waitingTime="88.00" waitingCount="3" stopTime="0.00" timeLoss="112.88" rerouteNo="0" devices="tripinfo_85922_391_0 routing_85922_391_0" vType="pkw" speedFactor="0.97" vaporized=""/>
    <tripinfo id="138220_412_0" depart="25309.00" departLane="-32038056#3_0" departPos="4.40" departSpeed="0.00" departDelay="0.00" arrival="25439.00" arrivalLane="-28198821#4_1" arrivalPos="57.10" arrivalSpeed="12.15" duration="130.00" routeLength="437.47" waitingTime="72.00" waitingCount="3" stopTime="0.00" timeLoss="96.28" rerouteNo="0" devices="tripinfo_138220_412_0 routing_138220_412_0" vType="pkw" speedFactor="0.95" vaporized=""/>
    <tripinfo id="137559_412_0" depart="25332.00" departLane="23429231#1_0" departPos="4.40" departSpeed="0.00" departDelay="50.00" arrival="25452.00" arrivalLane="32038051#0_1" arrivalPos="89.25" arrivalSpeed="19.60" duration="120.00" routeLength="203.79" waitingTime="77.00" waitingCount="3" stopTime="0.00" timeLoss="109.36" rerouteNo="0" devices="tripinfo_137559_412_0 routing_137559_412_0" vType="pkw" speedFactor="1.01" vaporized=""/>
    <tripinfo id="129330_408_0" depart="25433.00" departLane="27115123#2_0" departPos="4.40" departSpeed="0.00" departDelay="1.00" arrival="25452.00" arrivalLane="32324544#0_1" arrivalPos="90.48" arrivalSpeed="18.49" duration="19.00" routeLength="198.06" waitingTime="0.00" waitingCount="0" stopTime="0.00" timeLoss="8.48" rerouteNo="1" devices="tripinfo_129330_408_0 routing_129330_408_0" vType="pkw" speedFactor="0.98" vaporized=""/>
    <tripinfo id="94647_393_0" depart="25324.00" departLane="23429231#1_0" departPos="4.40" departSpeed="0.00" departDelay="46.00" arrival="25453.00" arrivalLane="32038051#0_0" arrivalPos="89.25" arrivalSpeed="18.11" duration="129.00" routeLength="203.79" waitingTime="83.00" waitingCount="4" stopTime="0.00" timeLoss="116.99" rerouteNo="0" devices="tripinfo_94647_393_0 routing_94647_393_0" vType="pkw" speedFactor="0.95" vaporized=""/>
    <tripinfo id="154290_420_0" depart="25431.00" departLane="27115123#2_0" departPos="4.40" departSpeed="0.00" departDelay="0.00" arrival="25453.00" arrivalLane="32324544#0_0" arrivalPos="90.48" arrivalSpeed="19.88" duration="22.00" routeLength="198.06" waitingTime="0.00" waitingCount="0" stopTime="0.00" timeLoss="12.32" rerouteNo="1" devices="tripinfo_154290_420_0 routing_154290_420_0" vType="pkw" speedFactor="1.09" vaporized=""/>
    <tripinfo id="139731_413_0" depart="25329.00" departLane="23429231#1_0" departPos="4.40" departSpeed="0.00" departDelay="49.00" arrival="25455.00" arrivalLane="32038051#0_0" arrivalPos="89.25" arrivalSpeed="18.93" duration="126.00" routeLength="203.79" waitingTime="80.00" waitingCount="4" stopTime="0.00" timeLoss="114.77" rerouteNo="0" devices="tripinfo_139731_413_0 routing_139731_413_0" vType="pkw" speedFactor="0.98" vaporized=""/>