<?xml version="1.0" encoding="UTF-8"?>

<!-- generated on 2023-08-31 13:20:53 by Eclipse SUMO libsumo Version 1.18.0
<configuration xmlns:xsi="http://www.w3.org/2001/XMLSchema-instance" xsi:noNamespaceSchemaLocation="http://sumo.dlr.de/xsd/libsumoConfiguration.xsd">

    <input>
        <net-file value="/home/stefan/RESCO/./environments/cologne1/cologne1.net.xml"/>
        <route-files value="/home/stefan/RESCO/./environments/cologne1/cologne1.rou.xml"/>
    </input>

    <output>
        <tripinfo-output value="/home/stefan/results/RAINBOW-tr0-cologne1-0-drq_norm-wait_norm/tripinfo_94.xml"/>
        <tripinfo-output.write-unfinished value="true"/>
    </output>

    <time>
        <begin value="25200"/>
        <end value="28800"/>
    </time>

    <processing>
        <time-to-teleport value="-1"/>
    </processing>

    <report>
        <no-warnings value="True"/>
        <no-step-log value="True"/>
    </report>

    <random_number>
        <random value="true"/>
    </random_number>

</configuration>
-->

<tripinfos xmlns:xsi="http://www.w3.org/2001/XMLSchema-instance" xsi:noNamespaceSchemaLocation="http://sumo.dlr.de/xsd/tripinfo_file.xsd">
    <tripinfo id="124779_406_0" depart="25205.00" departLane="28198821#3_0" departPos="4.40" departSpeed="0.00" departDelay="0.00" arrival="25220.00" arrivalLane="32038051#0_1" arrivalPos="89.25" arrivalSpeed="18.29" duration="15.00" routeLength="170.57" waitingTime="0.00" waitingCount="0" stopTime="0.00" timeLoss="4.77" rerouteNo="0" devices="tripinfo_124779_406_0 routing_124779_406_0" vType="pkw" speedFactor="0.97" vaporized=""/>
    <tripinfo id="98305_395_0" depart="25211.00" departLane="28198821#3_0" departPos="4.40" departSpeed="0.00" departDelay="0.00" arrival="25234.00" arrivalLane="32038051#0_1" arrivalPos="89.25" arrivalSpeed="17.23" duration="23.00" routeLength="170.57" waitingTime="4.00" waitingCount="1" stopTime="0.00" timeLoss="10.79" rerouteNo="0" devices="tripinfo_98305_395_0 routing_98305_395_0" vType="pkw" speedFactor="0.91" vaporized=""/>
    <tripinfo id="102535_396_0" depart="25218.00" departLane="28198821#3_0" departPos="4.40" departSpeed="0.00" departDelay="0.00" arrival="25235.00" arrivalLane="32038051#0_1" arrivalPos="89.25" arrivalSpeed="18.12" duration="17.00" routeLength="170.57" waitingTime="0.00" waitingCount="0" stopTime="0.00" timeLoss="6.45" rerouteNo="0" devices="tripinfo_102535_396_0 routing_102535_396_0" vType="pkw" speedFactor="0.98" vaporized=""/>
    <tripinfo id="147209_416_0" depart="25220.00" departLane="28198821#3_0" departPos="4.40" departSpeed="0.00" departDelay="0.00" arrival="25238.00" arrivalLane="32038051#0_1" arrivalPos="89.25" arrivalSpeed="18.88" duration="18.00" routeLength="170.57" waitingTime="0.00" waitingCount="0" stopTime="0.00" timeLoss="7.22" rerouteNo="0" devices="tripinfo_147209_416_0 routing_147209_416_0" vType="pkw" speedFactor="0.98" vaporized=""/>
    <tripinfo id="151372_418_0" depart="25207.00" departLane="130165204_0" departPos="4.40" departSpeed="0.00" departDelay="0.00" arrival="25249.00" arrivalLane="32038051#0_1" arrivalPos="89.25" arrivalSpeed="17.96" duration="42.00" routeLength="410.03" waitingTime="1.00" waitingCount="1" stopTime="0.00" timeLoss="14.76" rerouteNo="1" devices="tripinfo_151372_418_0 routing_151372_418_0" vType="pkw" speedFactor="0.98" vaporized=""/>
    <tripinfo id="149029_417_0" depart="25236.00" departLane="27115123#2_0" departPos="4.40" departSpeed="0.00" departDelay="0.00" arrival="25258.00" arrivalLane="32038051#0_1" arrivalPos="89.25" arrivalSpeed="19.23" duration="22.00" routeLength="196.41" waitingTime="0.00" waitingCount="0" stopTime="0.00" timeLoss="12.14" rerouteNo="1" devices="tripinfo_149029_417_0 routing_149029_417_0" vType="pkw" speedFactor="1.03" vaporized=""/>
    <tripinfo id="91582_392_0" depart="25221.00" departLane="-32038056#3_0" departPos="4.40" departSpeed="0.00" departDelay="3.00" arrival="25264.00" arrivalLane="32324544#0_1" arrivalPos="90.48" arrivalSpeed="19.80" duration="43.00" routeLength="465.51" waitingTime="4.00" waitingCount="1" stopTime="0.00" timeLoss="14.58" rerouteNo="0" devices="tripinfo_91582_392_0 routing_91582_392_0" vType="pkw" speedFactor="1.11" vaporized=""/>
    <tripinfo id="128446_408_0" depart="25273.00" departLane="-32038056#3_0" departPos="4.40" departSpeed="0.00" departDelay="0.00" arrival="25303.00" arrivalLane="32324544#0_1" arrivalPos="90.48" arrivalSpeed="23.11" duration="30.00" routeLength="465.51" waitingTime="0.00" waitingCount="0" stopTime="0.00" timeLoss="5.13" rerouteNo="0" devices="tripinfo_128446_408_0 routing_128446_408_0" vType="pkw" speedFactor="1.26" vaporized=""/>
    <tripinfo id="115444_403_0" depart="25294.00" departLane="28198821#3_0" departPos="4.40" departSpeed="0.00" departDelay="0.00" arrival="25312.00" arrivalLane="32038051#0_1" arrivalPos="89.25" arrivalSpeed="18.63" duration="18.00" routeLength="170.57" waitingTime="0.00" waitingCount="0" stopTime="0.00" timeLoss="7.50" rerouteNo="0" devices="tripinfo_115444_403_0 routing_115444_403_0" vType="pkw" speedFactor="0.97" vaporized=""/>
    <tripinfo id="103540_397_0" depart="25300.00" departLane="28198821#3_0" departPos="4.40" departSpeed="0.00" departDelay="0.00" arrival="25315.00" arrivalLane="32038051#0_1" arrivalPos="89.25" arrivalSpeed="17.98" duration="15.00" routeLength="170.57" waitingTime="0.00" waitingCount="0" stopTime="0.00" timeLoss="3.83" rerouteNo="0" devices="tripinfo_103540_397_0 routing_103540_397_0" vType="pkw" speedFactor="0.95" vaporized=""/>
    <tripinfo id="162096_421_0" depart="25306.00" departLane="130165204_0" departPos="4.40" departSpeed="0.00" departDelay="0.00" arrival="25350.00" arrivalLane="32038051#0_1" arrivalPos="89.25" arrivalSpeed="17.81" duration="44.00" routeLength="410.03" waitingTime="1.00" waitingCount="1" stopTime="0.00" timeLoss="14.55" rerouteNo="1" devices="tripinfo_162096_421_0 routing_162096_421_0" vType="pkw" speedFactor="0.92" vaporized=""/>
    <tripinfo id="175147_428_0" depart="25324.00" departLane="130165204_0" departPos="4.40" departSpeed="0.00" departDelay="0.00" arrival="25358.00" arrivalLane="32038051#0_1" arrivalPos="89.25" arrivalSpeed="18.42" duration="34.00" routeLength="410.03" waitingTime="0.00" waitingCount="0" stopTime="0.00" timeLoss="7.19" rerouteNo="1" devices="tripinfo_175147_428_0 routing_175147_428_0" vType="pkw" speedFactor="1.01" vaporized=""/>
    <tripinfo id="161721_421_0" depart="25337.00" departLane="130165204_0" departPos="4.40" departSpeed="0.00" departDelay="0.00" arrival="25379.00" arrivalLane="32038051#0_1" arrivalPos="89.25" arrivalSpeed="18.93" duration="42.00" routeLength="410.03" waitingTime="1.00" waitingCount="1" stopTime="0.00" timeLoss="15.52" rerouteNo="1" devices="tripinfo_161721_421_0 routing_161721_421_0" vType="pkw" speedFactor="1.01" vaporized=""/>
    <tripinfo id="136669_411_0" depart="25566.00" departLane="28198821#3_0" departPos="4.40" departSpeed="0.00" departDelay="0.00" arrival="25580.00" arrivalLane="32038051#0_1" arrivalPos="89.25" arrivalSpeed="20.01" duration="14.00" routeLength="170.57" waitingTime="0.00" waitingCount="0" stopTime="0.00" timeLoss="4.10" rerouteNo="0" devices="tripinfo_136669_411_0 routing_136669_411_0" vType="pkw" speedFactor="1.05" vaporized=""/>
    <tripinfo id="218594_446_0" depart="26611.00" departLane="32324544#0_0" departPos="4.40" departSpeed="0.00" departDelay="0.00" arrival="26621.00" arrivalLane="32324544#0_0" arrivalPos="90.48" arrivalSpeed="17.73" duration="10.00" routeLength="86.08" waitingTime="0.00" waitingCount="0" stopTime="0.00" timeLoss="4.96" rerouteNo="1" devices="tripinfo_218594_446_0 routing_218594_446_0" vType="pkw" speedFactor="1.00" vaporized=""/>
    <tripinfo id="123965_406_0" depart="25218.00" departLane="-32038056#3_0" departPos="4.40" departSpeed="0.00" departDelay="0.00" arrival="27489.00" arrivalLane="-28198821#4_0" arrivalPos="57.10" arrivalSpeed="13.36" duration="2271.00" routeLength="437.47" waitingTime="2228.00" waitingCount="1" stopTime="0.00" timeLoss="2238.89" rerouteNo="0" devices="tripinfo_123965_406_0 routing_123965_406_0" vType="pkw" speedFactor="1.00" vaporized=""/>
    <tripinfo id="125917_406_0" depart="25547.00" departLane="28198821#3_0" departPos="4.40" departSpeed="0.00" departDelay="0.00" arrival="27489.00" arrivalLane="32324544#0_0" arrivalPos="90.48" arrivalSpeed="18.73" duration="1942.00" routeLength="155.13" waitingTime="1920.00" waitingCount="1" stopTime="0.00" timeLoss="1932.76" rerouteNo="0" devices="tripinfo_125917_406_0 routing_125917_406_0" vType="pkw" speedFactor="1.01" vaporized=""/>
    <tripinfo id="130602_409_0" depart="25268.00" departLane="-32038056#3_0" departPos="4.40" departSpeed="0.00" departDelay="0.00" arrival="27490.00" arrivalLane="-28198821#4_1" arrivalPos="57.10" arrivalSpeed="2.92" duration="2222.00" routeLength="437.47" waitingTime="2176.00" waitingCount="1" stopTime="0.00" timeLoss="2190.34" rerouteNo="0" devices="tripinfo_130602_409_0 routing_130602_409_0" vType="pkw" speedFactor="1.00" vaporized=""/>
    <tripinfo id="184119_431_0" depart="25582.00" departLane="28198821#3_0" departPos="4.40" departSpeed="0.00" departDelay="0.00" arrival="27498.00" arrivalLane="32324544#0_0" arrivalPos="90.48" arrivalSpeed="18.55" duration="1916.00" routeLength="155.13" waitingTime="1893.00" waitingCount="2" stopTime="0.00" timeLoss="1906.53" rerouteNo="0" devices="tripinfo_184119_431_0 routing_184119_431_0" vType="pkw" speedFactor="1.00" vaporized=""/>
    <tripinfo id="160150_421_0" depart="25223.00" departLane="-32038056#3_0" departPos="4.40" departSpeed="0.00" departDelay="4.00" arrival="27499.00" arrivalLane="32038051#0_0" arrivalPos="89.25" arrivalSpeed="19.63" duration="2276.00" routeLength="446.95" waitingTime="2228.00" waitingCount="2" stopTime="0.00" timeLoss="2245.90" rerouteNo="0" devices="tripinfo_160150_421_0 routing_160150_421_0" vType="pkw" speedFactor="1.02" vaporized=""/>
    <tripinfo id="83516_390_0" depart="25275.00" departLane="-32038056#3_0" departPos="4.40" departSpeed="0.00" departDelay="0.00" arrival="27499.00" arrivalLane="32324544#0_1" arrivalPos="90.48" arrivalSpeed="18.59" duration="2224.00" routeLength="465.51" waitingTime="2177.00" waitingCount="2" stopTime="0.00" timeLoss="2192.03" rerouteNo="0" devices="tripinfo_83516_390_0 routing_83516_390_0" vType="pkw" speedFactor="0.98" vaporized=""/>
    <tripinfo id="162814_422_0" depart="25233.00" departLane="-32038056#3_0" departPos="4.40" departSpeed="0.00" departDelay="0.00" arrival="27508.00" arrivalLane="32038051#0_0" arrivalPos="89.25" arrivalSpeed="17.20" duration="2275.00" routeLength="446.95" waitingTime="2225.00" waitingCount="3" stopTime="0.00" timeLoss="2243.39" rerouteNo="0" devices="tripinfo_162814_422_0 routing_162814_422_0" vType="pkw" speedFactor="0.96" vaporized=""/>
    <tripinfo id="136800_411_0" depart="25618.00" departLane="28198821#3_0" departPos="4.40" departSpeed="0.00" departDelay="0.00" arrival="27508.00" arrivalLane="32324544#0_0" arrivalPos="90.48" arrivalSpeed="19.19" duration="1890.00" routeLength="155.13" waitingTime="1862.00" waitingCount="3" stopTime="0.00" timeLoss="1882.02" rerouteNo="0" devices="tripinfo_136800_411_0 routing_136800_411_0" vType="pkw" speedFactor="1.17" vaporized=""/>
    <tripinfo id="113303_402_0" depart="25283.00" departLane="-32038056#3_0" departPos="4.40" departSpeed="0.00" departDelay="0.00" arrival="27509.00" arrivalLane="32324544#0_1" arrivalPos="90.48" arrivalSpeed="18.59" duration="2226.00" routeLength="465.51" waitingTime="2174.00" waitingCount="3" stopTime="0.00" timeLoss="2193.75" rerouteNo="0" devices="tripinfo_113303_402_0 routing_113303_402_0" vType="pkw" speedFactor="0.97" vaporized=""/>
    <tripinfo id="129962_409_0" depart="25622.00" departLane="28198821#3_0" departPos="4.40" departSpeed="0.00" departDelay="0.00" arrival="27510.00" arrivalLane="32038051#0_1" arrivalPos="89.25" arrivalSpeed="17.32" duration="1888.00" routeLength="170.57" waitingTime="1856.00" waitingCount="3" stopTime="0.00" timeLoss="1876.62" rerouteNo="0" devices="tripinfo_129962_409_0 routing_129962_409_0" vType="pkw" speedFactor="0.90" vaporized=""/>
    <tripinfo id="147215_416_0" depart="25603.00" departLane="28198821#3_0" departPos="4.40" departSpeed="0.00" departDelay="0.00" arrival="27511.00" arrivalLane="32038056#0_0" arrivalPos="352.87" arrivalSpeed="14.07" duration="1908.00" routeLength="439.14" waitingTime="1864.00" waitingCount="1" stopTime="0.00" timeLoss="1876.32" rerouteNo="0" devices="tripinfo_147215_416_0 routing_147215_416_0" vType="pkw" speedFactor="1.02" vaporized=""/>
    <tripinfo id="136082_411_0" depart="25278.00" departLane="-32038056#3_0" departPos="4.40" departSpeed="0.00" departDelay="1.00" arrival="27518.00" arrivalLane="32038051#0_0" arrivalPos="89.25" arrivalSpeed="18.13" duration="2240.00" routeLength="446.95" waitingTime="2185.00" waitingCount="4" stopTime="0.00" timeLoss="2207.99" rerouteNo="0" devices="tripinfo_136082_411_0 routing_136082_411_0" vType="pkw" speedFactor="0.95" vaporized=""/>
    <tripinfo id="137244_412_0" depart="25297.00" departLane="-32038056#3_0" departPos="4.40" departSpeed="0.00" departDelay="3.00" arrival="27519.00" arrivalLane="-28198821#4_1" arrivalPos="57.10" arrivalSpeed="11.96" duration="2222.00" routeLength="437.47" waitingTime="2166.00" waitingCount="5" stopTime="0.00" timeLoss="2188.01" rerouteNo="0" devices="tripinfo_137244_412_0 routing_137244_412_0" vType="pkw" speedFactor="0.95" vaporized=""/>
    <tripinfo id="121463_406_0" depart="25610.00" departLane="28198821#3_0" departPos="4.40" departSpeed="0.00" departDelay="0.00" arrival="27523.00" arrivalLane="32038056#0_0" arrivalPos="352.87" arrivalSpeed="15.20" duration="1913.00" routeLength="439.14" waitingTime="1864.00" waitingCount="2" stopTime="0.00" timeLoss="1884.36" rerouteNo="0" devices="tripinfo_121463_406_0 routing_121463_406_0" vType="pkw" speedFactor="1.11" vaporized=""/>
    <tripinfo id="153000_419_0" depart="25635.00" departLane="28198821#3_0" departPos="4.40" departSpeed="0.00" departDelay="0.00" arrival="27525.00" arrivalLane="32038051#0_1" arrivalPos="89.25" arrivalSpeed="16.59" duration="1890.00" routeLength="170.57" waitingTime="1848.00" waitingCount="4" stopTime="0.00" timeLoss="1878.29" rerouteNo="0" devices="tripinfo_153000_419_0 routing_153000_419_0" vType="pkw" speedFactor="0.91" vaporized=""/>
    <tripinfo id="85818_390_0" depart="25280.00" departLane="-32038056#3_0" departPos="4.40" departSpeed="0.00" departDelay="0.00" arrival="27528.00" arrivalLane="32038051#0_0" arrivalPos="89.25" arrivalSpeed="18.43" duration="2248.00" routeLength="446.95" waitingTime="2186.00" waitingCount="5" stopTime="0.00" timeLoss="2221.31" rerouteNo="0" devices="tripinfo_85818_390_0 routing_85818_390_0" vType="pkw" speedFactor="1.14" vaporized=""/>
    <tripinfo id="138220_412_0" depart="25310.00" departLane="-32038056#3_0" departPos="4.40" departSpeed="0.00" departDelay="1.00" arrival="27528.00" arrivalLane="-28198821#4_1" arrivalPos="57.10" arrivalSpeed="15.69" duration="2218.00" routeLength="437.47" waitingTime="2160.00" waitingCount="6" stopTime="0.00" timeLoss="2191.43" rerouteNo="0" devices="tripinfo_138220_412_0 routing_138220_412_0" vType="pkw" speedFactor="1.19" vaporized=""/>
    <tripinfo id="149660_417_0" depart="25627.00" departLane="28198821#3_0" departPos="4.40" departSpeed="0.00" departDelay="0.00" arrival="27529.00" arrivalLane="32324544#0_0" arrivalPos="90.48" arrivalSpeed="19.86" duration="1902.00" routeLength="155.13" waitingTime="1863.00" waitingCount="5" stopTime="0.00" timeLoss="1892.61" rerouteNo="0" devices="tripinfo_149660_417_0 routing_149660_417_0" vType="pkw" speedFactor="1.07" vaporized=""/>
    <tripinfo id="183244_431_0" depart="25637.00" departLane="28198821#3_0" departPos="4.40" departSpeed="0.00" departDelay="0.00" arrival="27534.00" arrivalLane="32038051#0_1" arrivalPos="89.25" arrivalSpeed="17.06" duration="1897.00" routeLength="170.57" waitingTime="1851.00" waitingCount="6" stopTime="0.00" timeLoss="1886.23" rerouteNo="0" devices="tripinfo_183244_431_0 routing_183244_431_0" vType="pkw" speedFactor="0.94" vaporized=""/>
    <tripinfo id="86583_391_0" depart="25289.00" departLane="-32038056#3_0" departPos="4.40" departSpeed="0.00" departDelay="0.00" arrival="27539.00" arrivalLane="32038051#0_0" arrivalPos="89.25" arrivalSpeed="19.16" duration="2250.00" routeLength="446.95" waitingTime="2184.00" waitingCount="6" stopTime="0.00" timeLoss="2219.82" rerouteNo="0" devices="tripinfo_86583_391_0 routing_86583_391_0" vType="pkw" speedFactor="1.02" vaporized=""/>
    <tripinfo id="142412_415_0" depart="25307.00" departLane="-32038056#3_0" departPos="4.40" departSpeed="0.00" departDelay="0.00" arrival="27539.00" arrivalLane="-28198821#4_0" arrivalPos="57.10" arrivalSpeed="13.00" duration="2232.00" routeLength="437.47" waitingTime="2161.00" waitingCount="6" stopTime="0.00" timeLoss="2200.51" rerouteNo="0" devices="tripinfo_142412_415_0 routing_142412_415_0" vType="pkw" speedFactor="1.03" vaporized=""/>
    <tripinfo id="144494_416_0" depart="25630.00" departLane="28198821#3_0" departPos="4.40" departSpeed="0.00" departDelay="0.00" arrival="27539.00" arrivalLane="32324544#0_0" arrivalPos="90.48" arrivalSpeed="17.02" duration="1909.00" routeLength="155.13" waitingTime="1863.00" waitingCount="6" stopTime="0.00" timeLoss="1898.58" rerouteNo="0" devices="tripinfo_144494_416_0 routing_144494_416_0" vType="pkw" speedFactor="0.90" vaporized=""/>
    <tripinfo id="153446_420_0" depart="25624.00" departLane="28198821#3_0" departPos="4.40" departSpeed="0.00" departDelay="0.00" arrival="27541.00" arrivalLane="32038056#0_0" arrivalPos="352.87" arrivalSpeed="13.21" duration="1917.00" routeLength="439.14" waitingTime="1862.00" waitingCount="4" stopTime="0.00" timeLoss="1885.05" rerouteNo="0" devices="tripinfo_153446_420_0 routing_153446_420_0" vType="pkw" speedFactor="1.00" vaporized=""/>
    <tripinfo id="183534_431_0" depart="25639.00" departLane="28198821#3_0" departPos="4.40" departSpeed="0.00" departDelay="0.00" arrival="27543.00" arrivalLane="32038051#0_1" arrivalPos="89.25" arrivalSpeed="17.65" duration="1904.00" routeLength="170.57" waitingTime="1853.00" waitingCount="6" stopTime="0.00" timeLoss="1893.29" rerouteNo="0" devices="tripinfo_183534_431_0 routing_183534_431_0" vType="pkw" speedFactor="0.94" vaporized=""/>
    <tripinfo id="120878_405_0" depart="25292.00" departLane="-32038056#3_0" departPos="4.40" departSpeed="0.00" departDelay="1.00" arrival="27549.00" arrivalLane="32038051#0_0" arrivalPos="89.25" arrivalSpeed="19.54" duration="2257.00" routeLength="446.95" waitingTime="2185.00" waitingCount="7" stopTime="0.00" timeLoss="2227.92" rerouteNo="0" devices="tripinfo_120878_405_0 routing_120878_405_0" vType="pkw" speedFactor="1.06" vaporized=""/>
    <tripinfo id="167799_425_0" depart="25327.00" departLane="-32038056#3_0" departPos="4.40" departSpeed="0.00" departDelay="0.00" arrival="27549.00" arrivalLane="-28198821#4_1" arrivalPos="57.10" arrivalSpeed="12.15" duration="2222.00" routeLength="437.47" waitingTime="2149.00" waitingCount="7" stopTime="0.00" timeLoss="2188.38" rerouteNo="0" devices="tripinfo_167799_425_0 routing_167799_425_0" vType="pkw" speedFactor="0.96" vaporized=""/>
    <tripinfo id="126699_407_0" depart="25632.00" departLane="28198821#3_0" departPos="4.40" departSpeed="0.00" departDelay="0.00" arrival="27549.00" arrivalLane="32324544#0_0" arrivalPos="90.48" arrivalSpeed="15.25" duration="1917.00" routeLength="155.13" waitingTime="1865.00" waitingCount="7" stopTime="0.00" timeLoss="1904.53" rerouteNo="0" devices="tripinfo_126699_407_0 routing_126699_407_0" vType="pkw" speedFactor="0.79" vaporized=""/>
    <tripinfo id="85922_391_0" depart="25295.00" departLane="-32038056#3_0" departPos="4.40" departSpeed="0.00" departDelay="2.00" arrival="27558.00" arrivalLane="32038051#0_0" arrivalPos="89.25" arrivalSpeed="18.05" duration="2263.00" routeLength="446.95" waitingTime="2184.00" waitingCount="7" stopTime="0.00" timeLoss="2230.09" rerouteNo="0" devices="tripinfo_85922_391_0 routing_85922_391_0" vType="pkw" speedFactor="0.93" vaporized=""/>
    <tripinfo id="130372_409_0" depart="25330.00" departLane="-32038056#3_0" departPos="4.40" departSpeed="0.00" departDelay="3.00" arrival="27560.00" arrivalLane="32324544#0_1" arrivalPos="90.48" arrivalSpeed="17.18" duration="2230.00" routeLength="465.51" waitingTime="2146.00" waitingCount="8" stopTime="0.00" timeLoss="2195.44" rerouteNo="0" devices="tripinfo_130372_409_0 routing_130372_409_0" vType="pkw" speedFactor="0.93" vaporized=""/>
    <tripinfo id="115533_403_0" depart="25644.00" departLane="28198821#3_0" departPos="4.40" departSpeed="0.00" departDelay="2.00" arrival="27560.00" arrivalLane="32038051#0_1" arrivalPos="89.25" arrivalSpeed="22.21" duration="1916.00" routeLength="170.57" waitingTime="1856.00" waitingCount="8" stopTime="0.00" timeLoss="1906.67" rerouteNo="0" devices="tripinfo_115533_403_0 routing_115533_403_0" vType="pkw" speedFactor="1.19" vaporized=""/>
    <tripinfo id="118963_405_0" depart="25304.00" departLane="-32038056#3_0" departPos="4.40" departSpeed="0.00" departDelay="0.00" arrival="27568.00" arrivalLane="32038051#0_0" arrivalPos="89.25" arrivalSpeed="17.91" duration="2264.00" routeLength="446.95" waitingTime="2183.00" waitingCount="8" stopTime="0.00" timeLoss="2234.44" rerouteNo="0" devices="tripinfo_118963_405_0 routing_118963_405_0" vType="pkw" speedFactor="1.02" vaporized=""/>
    <tripinfo id="162832_422_0" depart="25648.00" departLane="28198821#3_0" departPos="4.40" departSpeed="0.00" departDelay="2.00" arrival="27569.00" arrivalLane="32038051#0_1" arrivalPos="89.25" arrivalSpeed="19.98" duration="1921.00" routeLength="170.57" waitingTime="1858.00" waitingCount="9" stopTime="0.00" timeLoss="1910.44" rerouteNo="0" devices="tripinfo_162832_422_0 routing_162832_422_0" vType="pkw" speedFactor="1.04" vaporized=""/>
    <tripinfo id="104806_398_0" depart="25332.00" departLane="-32038056#3_0" departPos="4.40" departSpeed="0.00" departDelay="3.00" arrival="27570.00" arrivalLane="32324544#0_1" arrivalPos="90.48" arrivalSpeed="20.24" duration="2238.00" routeLength="465.51" waitingTime="2143.00" waitingCount="8" stopTime="0.00" timeLoss="2207.92" rerouteNo="0" devices="tripinfo_104806_398_0 routing_104806_398_0" vType="pkw" speedFactor="1.07" vaporized=""/>
    <tripinfo id="183577_431_0" depart="25641.00" departLane="28198821#3_0" departPos="4.40" departSpeed="0.00" departDelay="0.00" arrival="27573.00" arrivalLane="32038056#0_0" arrivalPos="352.87" arrivalSpeed="11.92" duration="1932.00" routeLength="439.14" waitingTime="1854.00" waitingCount="7" stopTime="0.00" timeLoss="1897.15" rerouteNo="0" devices="tripinfo_183577_431_0 routing_183577_431_0" vType="pkw" speedFactor="0.93" vaporized=""/>
    <tripinfo id="136152_411_0" depart="25313.00" departLane="-32038056#3_0" departPos="4.40" departSpeed="0.00" departDelay="0.00" arrival="27578.00" arrivalLane="32038051#0_0" arrivalPos="89.25" arrivalSpeed="18.00" duration="2265.00" routeLength="446.95" waitingTime="2172.00" waitingCount="8" stopTime="0.00" timeLoss="2233.26" rerouteNo="0" devices="tripinfo_136152_411_0 routing_136152_411_0" vType="pkw" speedFactor="0.96" vaporized=""/>
    <tripinfo id="122154_406_0" depart="25337.00" departLane="-32038056#3_0" departPos="4.40" departSpeed="0.00" departDelay="0.00" arrival="27579.00" arrivalLane="-28198821#4_1" arrivalPos="57.10" arrivalSpeed="11.03" duration="2242.00" routeLength="437.47" waitingTime="2143.00" waitingCount="9" stopTime="0.00" timeLoss="2204.47" rerouteNo="0" devices="tripinfo_122154_406_0 routing_122154_406_0" vType="pkw" speedFactor="0.85" vaporized=""/>
    <tripinfo id="145875_416_0" depart="25645.00" departLane="28198821#3_0" departPos="4.40" departSpeed="0.00" departDelay="2.00" arrival="27583.00" arrivalLane="32038056#0_0" arrivalPos="352.87" arrivalSpeed="12.89" duration="1938.00" routeLength="439.14" waitingTime="1859.00" waitingCount="8" stopTime="0.00" timeLoss="1903.51" rerouteNo="0" devices="tripinfo_145875_416_0 routing_145875_416_0" vType="pkw" speedFactor="0.94" vaporized=""/>
    <tripinfo id="84905_390_0" depart="25649.00" departLane="28198821#3_0" departPos="4.40" departSpeed="0.00" departDelay="1.00" arrival="27584.00" arrivalLane="32038051#0_1" arrivalPos="89.25" arrivalSpeed="17.95" duration="1935.00" routeLength="170.57" waitingTime="1860.00" waitingCount="9" stopTime="0.00" timeLoss="1924.80" rerouteNo="0" devices="tripinfo_84905_390_0 routing_84905_390_0" vType="pkw" speedFactor="0.99" vaporized=""/>
    <tripinfo id="121091_405_0" depart="25345.00" departLane="-32038056#3_0" departPos="4.40" departSpeed="0.00" departDelay="0.00" arrival="27588.00" arrivalLane="32038051#0_0" arrivalPos="89.25" arrivalSpeed="15.37" duration="2243.00" routeLength="446.95" waitingTime="2138.00" waitingCount="9" stopTime="0.00" timeLoss="2207.44" rerouteNo="0" devices="tripinfo_121091_405_0 routing_121091_405_0" vType="pkw" speedFactor="0.86" vaporized=""/>
    <tripinfo id="172050_426_0" depart="27498.00" departLane="28198821#3_0" departPos="4.40" departSpeed="0.00" departDelay="1845.00" arrival="27589.00" arrivalLane="32324544#0_0" arrivalPos="90.48" arrivalSpeed="18.10" duration="91.00" routeLength="155.13" waitingTime="23.00" waitingCount="8" stopTime="0.00" timeLoss="81.92" rerouteNo="0" devices="tripinfo_172050_426_0 routing_172050_426_0" vType="pkw" speedFactor="1.04" vaporized=""/>
    <tripinfo id="150753_418_0" depart="25353.00" departLane="-32038056#3_0" departPos="4.40" departSpeed="0.00" departDelay="2.00" arrival="27590.00" arrivalLane="32324544#0_1" arrivalPos="90.48" arrivalSpeed="18.26" duration="2237.00" routeLength="465.51" waitingTime="2130.00" waitingCount="10" stopTime="0.00" timeLoss="2203.48" rerouteNo="0" devices="tripinfo_150753_418_0 routing_150753_418_0" vType="pkw" speedFactor="0.96" vaporized=""/>
    <tripinfo id="148932_417_0" depart="27490.00" departLane="28198821#3_0" departPos="4.40" departSpeed="0.00" departDelay="1841.00" arrival="27595.00" arrivalLane="32038056#0_0" arrivalPos="352.87" arrivalSpeed="12.97" duration="105.00" routeLength="439.14" waitingTime="19.00" waitingCount="7" stopTime="0.00" timeLoss="74.11" rerouteNo="0" devices="tripinfo_148932_417_0 routing_148932_417_0" vType="pkw" speedFactor="1.03" vaporized=""/>
    <tripinfo id="169772_426_0" depart="25347.00" departLane="-32038056#3_0" departPos="4.40" departSpeed="0.00" departDelay="0.00" arrival="27599.00" arrivalLane="32038051#0_0" arrivalPos="89.25" arrivalSpeed="17.36" duration="2252.00" routeLength="446.95" waitingTime="2136.00" waitingCount="10" stopTime="0.00" timeLoss="2219.03" rerouteNo="0" devices="tripinfo_169772_426_0 routing_169772_426_0" vType="pkw" speedFactor="0.94" vaporized=""/>
    <tripinfo id="135138_411_0" depart="25350.00" departLane="-32038056#3_0" departPos="4.40" departSpeed="0.00" departDelay="1.00" arrival="27600.00" arrivalLane="-28198821#4_0" arrivalPos="57.10" arrivalSpeed="10.91" duration="2250.00" routeLength="437.47" waitingTime="2132.00" waitingCount="9" stopTime="0.00" timeLoss="2210.84" rerouteNo="0" devices="tripinfo_135138_411_0 routing_135138_411_0" vType="pkw" speedFactor="0.81" vaporized=""/>
    <tripinfo id="160711_421_0" depart="27493.00" departLane="28198821#3_0" departPos="4.40" departSpeed="0.00" departDelay="1844.00" arrival="27601.00" arrivalLane="32038056#0_0" arrivalPos="352.87" arrivalSpeed="13.16" duration="108.00" routeLength="439.14" waitingTime="23.00" waitingCount="7" stopTime="0.00" timeLoss="74.74" rerouteNo="0" devices="tripinfo_160711_421_0 routing_160711_421_0" vType="pkw" speedFactor="0.95" vaporized=""/>
    <tripinfo id="114183_402_0" depart="25359.00" departLane="-32038056#3_0" departPos="4.40" departSpeed="0.00" departDelay="0.00" arrival="27608.00" arrivalLane="32038051#0_0" arrivalPos="89.25" arrivalSpeed="17.57" duration="2249.00" routeLength="446.95" waitingTime="2129.00" waitingCount="10" stopTime="0.00" timeLoss="2217.09" rerouteNo="0" devices="tripinfo_114183_402_0 routing_114183_402_0" vType="pkw" speedFactor="0.97" vaporized=""/>
    <tripinfo id="148536_417_0" depart="25362.00" departLane="-32038056#3_0" departPos="4.40" departSpeed="0.00" departDelay="1.00" arrival="27615.00" arrivalLane="32324544#0_1" arrivalPos="90.48" arrivalSpeed="15.39" duration="2253.00" routeLength="465.51" waitingTime="2124.00" waitingCount="12" stopTime="0.00" timeLoss="2215.10" rerouteNo="0" devices="tripinfo_148536_417_0 routing_148536_417_0" vType="pkw" speedFactor="0.83" vaporized=""/>
    <tripinfo id="173616_427_0" depart="27508.00" departLane="28198821#3_0" departPos="4.40" departSpeed="0.00" departDelay="1852.00" arrival="27615.00" arrivalLane="32038056#0_0" arrivalPos="352.87" arrivalSpeed="13.18" duration="107.00" routeLength="439.14" waitingTime="19.00" waitingCount="6" stopTime="0.00" timeLoss="74.25" rerouteNo="0" devices="tripinfo_173616_427_0 routing_173616_427_0" vType="pkw" speedFactor="0.97" vaporized=""/>
    <tripinfo id="120618_405_0" depart="25365.00" departLane="-32038056#3_0" departPos="4.40" departSpeed="0.00" departDelay="2.00" arrival="27618.00" arrivalLane="32038051#0_0" arrivalPos="89.25" arrivalSpeed="19.22" duration="2253.00" routeLength="446.95" waitingTime="2130.00" waitingCount="12" stopTime="0.00" timeLoss="2226.02" rerouteNo="0" devices="tripinfo_120618_405_0 routing_120618_405_0" vType="pkw" speedFactor="1.13" vaporized=""/>
    <tripinfo id="142600_415_0" depart="27509.00" departLane="28198821#3_0" departPos="4.40" departSpeed="0.00" departDelay="1851.00" arrival="27619.00" arrivalLane="32038056#0_0" arrivalPos="352.87" arrivalSpeed="14.42" duration="110.00" routeLength="439.14" waitingTime="21.00" waitingCount="8" stopTime="0.00" timeLoss="80.42" rerouteNo="0" devices="tripinfo_142600_415_0 routing_142600_415_0" vType="pkw" speedFactor="1.10" vaporized=""/>