<?xml version="1.0" encoding="UTF-8"?>

<!-- generated on 2023-08-31 13:16:21 by Eclipse SUMO libsumo Version 1.18.0
<configuration xmlns:xsi="http://www.w3.org/2001/XMLSchema-instance" xsi:noNamespaceSchemaLocation="http://sumo.dlr.de/xsd/libsumoConfiguration.xsd">

    <input>
        <net-file value="/home/stefan/RESCO/./environments/cologne1/cologne1.net.xml"/>
        <route-files value="/home/stefan/RESCO/./environments/cologne1/cologne1.rou.xml"/>
    </input>

    <output>
        <tripinfo-output value="/home/stefan/results/RAINBOW-tr0-cologne1-0-drq_norm-wait_norm/tripinfo_48.xml"/>
        <tripinfo-output.write-unfinished value="true"/>
    </output>

    <time>
        <begin value="25200"/>
        <end value="28800"/>
    </time>

    <processing>
        <time-to-teleport value="-1"/>
    </processing>

    <report>
        <no-warnings value="True"/>
        <no-step-log value="True"/>
    </report>

    <random_number>
        <random value="true"/>
    </random_number>

</configuration>
-->

<tripinfos xmlns:xsi="http://www.w3.org/2001/XMLSchema-instance" xsi:noNamespaceSchemaLocation="http://sumo.dlr.de/xsd/tripinfo_file.xsd">
    <tripinfo id="124779_406_0" depart="25205.00" departLane="28198821#3_0" departPos="4.40" departSpeed="0.00" departDelay="0.00" arrival="25220.00" arrivalLane="32038051#0_1" arrivalPos="89.25" arrivalSpeed="18.03" duration="15.00" routeLength="170.57" waitingTime="0.00" waitingCount="0" stopTime="0.00" timeLoss="3.76" rerouteNo="0" devices="tripinfo_124779_406_0 routing_124779_406_0" vType="pkw" speedFactor="0.95" vaporized=""/>
    <tripinfo id="98305_395_0" depart="25211.00" departLane="28198821#3_0" departPos="4.40" departSpeed="0.00" departDelay="0.00" arrival="25228.00" arrivalLane="32038051#0_1" arrivalPos="89.25" arrivalSpeed="20.95" duration="17.00" routeLength="170.57" waitingTime="0.00" waitingCount="0" stopTime="0.00" timeLoss="7.43" rerouteNo="0" devices="tripinfo_98305_395_0 routing_98305_395_0" vType="pkw" speedFactor="1.13" vaporized=""/>
    <tripinfo id="102535_396_0" depart="25218.00" departLane="28198821#3_0" departPos="4.40" departSpeed="0.00" departDelay="0.00" arrival="25232.00" arrivalLane="32038051#0_1" arrivalPos="89.25" arrivalSpeed="19.53" duration="14.00" routeLength="170.57" waitingTime="0.00" waitingCount="0" stopTime="0.00" timeLoss="4.35" rerouteNo="0" devices="tripinfo_102535_396_0 routing_102535_396_0" vType="pkw" speedFactor="1.05" vaporized=""/>
    <tripinfo id="147209_416_0" depart="25220.00" departLane="28198821#3_0" departPos="4.40" departSpeed="0.00" departDelay="0.00" arrival="25235.00" arrivalLane="32038051#0_1" arrivalPos="89.25" arrivalSpeed="18.49" duration="15.00" routeLength="170.57" waitingTime="0.00" waitingCount="0" stopTime="0.00" timeLoss="4.11" rerouteNo="0" devices="tripinfo_147209_416_0 routing_147209_416_0" vType="pkw" speedFactor="0.99" vaporized=""/>
    <tripinfo id="151372_418_0" depart="25207.00" departLane="130165204_0" departPos="4.40" departSpeed="0.00" departDelay="0.00" arrival="25249.00" arrivalLane="32038051#0_1" arrivalPos="89.25" arrivalSpeed="17.31" duration="42.00" routeLength="410.03" waitingTime="0.00" waitingCount="0" stopTime="0.00" timeLoss="12.31" rerouteNo="1" devices="tripinfo_151372_418_0 routing_151372_418_0" vType="pkw" speedFactor="0.91" vaporized=""/>
    <tripinfo id="149029_417_0" depart="25236.00" departLane="27115123#2_0" departPos="4.40" departSpeed="0.00" departDelay="0.00" arrival="25259.00" arrivalLane="32038051#0_1" arrivalPos="89.25" arrivalSpeed="21.68" duration="23.00" routeLength="196.41" waitingTime="0.00" waitingCount="0" stopTime="0.00" timeLoss="13.52" rerouteNo="1" devices="tripinfo_149029_417_0 routing_149029_417_0" vType="pkw" speedFactor="1.16" vaporized=""/>
    <tripinfo id="123965_406_0" depart="25218.00" departLane="-32038056#3_0" departPos="4.40" departSpeed="0.00" departDelay="0.00" arrival="25262.00" arrivalLane="-28198821#4_0" arrivalPos="57.10" arrivalSpeed="14.07" duration="44.00" routeLength="437.47" waitingTime="3.00" waitingCount="1" stopTime="0.00" timeLoss="14.61" rerouteNo="0" devices="tripinfo_123965_406_0 routing_123965_406_0" vType="pkw" speedFactor="1.09" vaporized=""/>
    <tripinfo id="160150_421_0" depart="25223.00" departLane="-32038056#3_0" departPos="4.40" departSpeed="0.00" departDelay="4.00" arrival="25264.00" arrivalLane="32038051#0_0" arrivalPos="89.25" arrivalSpeed="20.98" duration="41.00" routeLength="446.95" waitingTime="1.00" waitingCount="1" stopTime="0.00" timeLoss="14.67" rerouteNo="0" devices="tripinfo_160150_421_0 routing_160150_421_0" vType="pkw" speedFactor="1.18" vaporized=""/>
    <tripinfo id="91582_392_0" depart="25220.00" departLane="-32038056#3_0" departPos="4.40" departSpeed="0.00" departDelay="2.00" arrival="25265.00" arrivalLane="32324544#0_1" arrivalPos="90.48" arrivalSpeed="16.11" duration="45.00" routeLength="465.51" waitingTime="0.00" waitingCount="0" stopTime="0.00" timeLoss="7.65" rerouteNo="0" devices="tripinfo_91582_392_0 routing_91582_392_0" vType="pkw" speedFactor="0.85" vaporized=""/>
    <tripinfo id="162814_422_0" depart="25233.00" departLane="-32038056#3_0" departPos="4.40" departSpeed="0.00" departDelay="0.00" arrival="25318.00" arrivalLane="32038051#0_0" arrivalPos="89.25" arrivalSpeed="16.91" duration="85.00" routeLength="446.95" waitingTime="40.00" waitingCount="1" stopTime="0.00" timeLoss="50.98" rerouteNo="0" devices="tripinfo_162814_422_0 routing_162814_422_0" vType="pkw" speedFactor="0.89" vaporized=""/>
    <tripinfo id="130602_409_0" depart="25268.00" departLane="-32038056#3_0" departPos="4.40" departSpeed="0.00" departDelay="0.00" arrival="25318.00" arrivalLane="-28198821#4_0" arrivalPos="57.10" arrivalSpeed="12.91" duration="50.00" routeLength="437.47" waitingTime="8.00" waitingCount="1" stopTime="0.00" timeLoss="17.75" rerouteNo="0" devices="tripinfo_130602_409_0 routing_130602_409_0" vType="pkw" speedFactor="0.99" vaporized=""/>
    <tripinfo id="128446_408_0" depart="25273.00" departLane="-32038056#3_0" departPos="4.40" departSpeed="0.00" departDelay="0.00" arrival="25321.00" arrivalLane="32324544#0_1" arrivalPos="90.48" arrivalSpeed="21.27" duration="48.00" routeLength="465.51" waitingTime="7.00" waitingCount="1" stopTime="0.00" timeLoss="19.65" rerouteNo="0" devices="tripinfo_128446_408_0 routing_128446_408_0" vType="pkw" speedFactor="1.12" vaporized=""/>
    <tripinfo id="115444_403_0" depart="25294.00" departLane="28198821#3_0" departPos="4.40" departSpeed="0.00" departDelay="0.00" arrival="25324.00" arrivalLane="32038051#0_1" arrivalPos="89.25" arrivalSpeed="19.07" duration="30.00" routeLength="170.57" waitingTime="5.00" waitingCount="1" stopTime="0.00" timeLoss="19.53" rerouteNo="0" devices="tripinfo_115444_403_0 routing_115444_403_0" vType="pkw" speedFactor="1.03" vaporized=""/>
    <tripinfo id="83516_390_0" depart="25275.00" departLane="-32038056#3_0" departPos="4.40" departSpeed="0.00" departDelay="0.00" arrival="25325.00" arrivalLane="32324544#0_1" arrivalPos="90.48" arrivalSpeed="13.54" duration="50.00" routeLength="465.51" waitingTime="0.00" waitingCount="0" stopTime="0.00" timeLoss="5.78" rerouteNo="0" devices="tripinfo_83516_390_0 routing_83516_390_0" vType="pkw" speedFactor="0.71" vaporized=""/>
    <tripinfo id="103540_397_0" depart="25300.00" departLane="28198821#3_0" departPos="4.40" departSpeed="0.00" departDelay="0.00" arrival="25325.00" arrivalLane="32038051#0_1" arrivalPos="89.25" arrivalSpeed="19.65" duration="25.00" routeLength="170.57" waitingTime="0.00" waitingCount="0" stopTime="0.00" timeLoss="14.98" rerouteNo="0" devices="tripinfo_103540_397_0 routing_103540_397_0" vType="pkw" speedFactor="1.02" vaporized=""/>
    <tripinfo id="113303_402_0" depart="25283.00" departLane="-32038056#3_0" departPos="4.40" departSpeed="0.00" departDelay="0.00" arrival="25326.00" arrivalLane="32324544#0_1" arrivalPos="90.48" arrivalSpeed="15.82" duration="43.00" routeLength="465.51" waitingTime="0.00" waitingCount="0" stopTime="0.00" timeLoss="12.09" rerouteNo="0" devices="tripinfo_113303_402_0 routing_113303_402_0" vType="pkw" speedFactor="1.01" vaporized=""/>
    <tripinfo id="137244_412_0" depart="25297.00" departLane="-32038056#3_0" departPos="4.40" departSpeed="0.00" departDelay="3.00" arrival="25337.00" arrivalLane="-28198821#4_1" arrivalPos="57.10" arrivalSpeed="12.04" duration="40.00" routeLength="437.47" waitingTime="0.00" waitingCount="0" stopTime="0.00" timeLoss="4.73" rerouteNo="0" devices="tripinfo_137244_412_0 routing_137244_412_0" vType="pkw" speedFactor="0.90" vaporized=""/>
    <tripinfo id="136082_411_0" depart="25278.00" departLane="-32038056#3_0" departPos="4.40" departSpeed="0.00" departDelay="1.00" arrival="25339.00" arrivalLane="32038051#0_0" arrivalPos="89.25" arrivalSpeed="20.73" duration="61.00" routeLength="446.95" waitingTime="18.00" waitingCount="2" stopTime="0.00" timeLoss="32.02" rerouteNo="0" devices="tripinfo_136082_411_0 routing_136082_411_0" vType="pkw" speedFactor="1.07" vaporized=""/>
    <tripinfo id="162096_421_0" depart="25306.00" departLane="130165204_0" departPos="4.40" departSpeed="0.00" departDelay="0.00" arrival="25340.00" arrivalLane="32038051#0_1" arrivalPos="89.25" arrivalSpeed="18.70" duration="34.00" routeLength="410.03" waitingTime="0.00" waitingCount="0" stopTime="0.00" timeLoss="7.32" rerouteNo="1" devices="tripinfo_162096_421_0 routing_162096_421_0" vType="pkw" speedFactor="1.02" vaporized=""/>
    <tripinfo id="85818_390_0" depart="25280.00" departLane="-32038056#3_0" departPos="4.40" departSpeed="0.00" departDelay="0.00" arrival="25348.00" arrivalLane="32038051#0_0" arrivalPos="89.25" arrivalSpeed="18.94" duration="68.00" routeLength="446.95" waitingTime="21.00" waitingCount="2" stopTime="0.00" timeLoss="37.90" rerouteNo="0" devices="tripinfo_85818_390_0 routing_85818_390_0" vType="pkw" speedFactor="1.01" vaporized=""/>
    <tripinfo id="142412_415_0" depart="25307.00" departLane="-32038056#3_0" departPos="4.40" departSpeed="0.00" departDelay="0.00" arrival="25348.00" arrivalLane="-28198821#4_1" arrivalPos="57.10" arrivalSpeed="14.81" duration="41.00" routeLength="437.47" waitingTime="0.00" waitingCount="0" stopTime="0.00" timeLoss="11.20" rerouteNo="0" devices="tripinfo_142412_415_0 routing_142412_415_0" vType="pkw" speedFactor="1.07" vaporized=""/>
    <tripinfo id="126742_407_0" depart="25242.00" departLane="23429231#1_0" departPos="4.40" departSpeed="0.00" departDelay="2.00" arrival="25353.00" arrivalLane="32038051#0_1" arrivalPos="89.25" arrivalSpeed="18.45" duration="111.00" routeLength="203.79" waitingTime="86.00" waitingCount="1" stopTime="0.00" timeLoss="99.64" rerouteNo="0" devices="tripinfo_126742_407_0 routing_126742_407_0" vType="pkw" speedFactor="0.98" vaporized=""/>
    <tripinfo id="148629_417_0" depart="25284.00" departLane="27115123#2_0" departPos="4.40" departSpeed="0.00" departDelay="0.00" arrival="25353.00" arrivalLane="32324544#0_0" arrivalPos="90.48" arrivalSpeed="18.20" duration="69.00" routeLength="198.06" waitingTime="45.00" waitingCount="1" stopTime="0.00" timeLoss="58.27" rerouteNo="1" devices="tripinfo_148629_417_0 routing_148629_417_0" vType="pkw" speedFactor="0.96" vaporized=""/>
    <tripinfo id="121258_405_0" depart="25240.00" departLane="23429231#1_0" departPos="4.40" departSpeed="0.00" departDelay="0.00" arrival="25354.00" arrivalLane="32038051#0_0" arrivalPos="89.25" arrivalSpeed="14.76" duration="114.00" routeLength="203.79" waitingTime="89.00" waitingCount="1" stopTime="0.00" timeLoss="100.44" rerouteNo="0" devices="tripinfo_121258_405_0 routing_121258_405_0" vType="pkw" speedFactor="0.82" vaporized=""/>
    <tripinfo id="102501_396_0" depart="25245.00" departLane="23429231#1_0" departPos="4.40" departSpeed="0.00" departDelay="1.00" arrival="25355.00" arrivalLane="32038051#0_0" arrivalPos="89.25" arrivalSpeed="16.08" duration="110.00" routeLength="203.79" waitingTime="85.00" waitingCount="1" stopTime="0.00" timeLoss="99.50" rerouteNo="0" devices="tripinfo_102501_396_0 routing_102501_396_0" vType="pkw" speedFactor="1.02" vaporized=""/>
    <tripinfo id="113509_402_0" depart="25250.00" departLane="23429231#1_0" departPos="4.40" departSpeed="0.00" departDelay="2.00" arrival="25355.00" arrivalLane="-28198821#4_1" arrivalPos="57.10" arrivalSpeed="14.06" duration="105.00" routeLength="179.90" waitingTime="80.00" waitingCount="1" stopTime="0.00" timeLoss="93.81" rerouteNo="0" devices="tripinfo_113509_402_0 routing_113509_402_0" vType="pkw" speedFactor="1.05" vaporized=""/>
    <tripinfo id="130147_409_0" depart="25253.00" departLane="23429231#1_0" departPos="4.40" departSpeed="0.00" departDelay="2.00" arrival="25356.00" arrivalLane="32038051#0_1" arrivalPos="89.25" arrivalSpeed="20.30" duration="103.00" routeLength="203.79" waitingTime="78.00" waitingCount="1" stopTime="0.00" timeLoss="92.64" rerouteNo="0" devices="tripinfo_130147_409_0 routing_130147_409_0" vType="pkw" speedFactor="1.08" vaporized=""/>
    <tripinfo id="120663_405_0" depart="25248.00" departLane="23429231#1_0" departPos="4.40" departSpeed="0.00" departDelay="2.00" arrival="25357.00" arrivalLane="32038051#0_0" arrivalPos="89.25" arrivalSpeed="18.93" duration="109.00" routeLength="203.79" waitingTime="84.00" waitingCount="1" stopTime="0.00" timeLoss="97.76" rerouteNo="0" devices="tripinfo_120663_405_0 routing_120663_405_0" vType="pkw" speedFactor="0.99" vaporized=""/>
    <tripinfo id="175147_428_0" depart="25324.00" departLane="130165204_0" departPos="4.40" departSpeed="0.00" departDelay="0.00" arrival="25369.00" arrivalLane="32038051#0_1" arrivalPos="89.25" arrivalSpeed="20.68" duration="45.00" routeLength="410.03" waitingTime="4.00" waitingCount="1" stopTime="0.00" timeLoss="20.30" rerouteNo="1" devices="tripinfo_175147_428_0 routing_175147_428_0" vType="pkw" speedFactor="1.07" vaporized=""/>
    <tripinfo id="161721_421_0" depart="25337.00" departLane="130165204_0" departPos="4.40" departSpeed="0.00" departDelay="0.00" arrival="25379.00" arrivalLane="32038051#0_1" arrivalPos="89.25" arrivalSpeed="19.96" duration="42.00" routeLength="410.03" waitingTime="2.00" waitingCount="1" stopTime="0.00" timeLoss="16.90" rerouteNo="1" devices="tripinfo_161721_421_0 routing_161721_421_0" vType="pkw" speedFactor="1.06" vaporized=""/>
    <tripinfo id="122376_406_0" depart="25259.00" departLane="23429231#1_0" departPos="4.40" departSpeed="0.00" departDelay="5.00" arrival="25543.00" arrivalLane="32038051#0_1" arrivalPos="89.25" arrivalSpeed="17.93" duration="284.00" routeLength="203.79" waitingTime="256.00" waitingCount="2" stopTime="0.00" timeLoss="272.21" rerouteNo="0" devices="tripinfo_122376_406_0 routing_122376_406_0" vType="pkw" speedFactor="0.94" vaporized=""/>
    <tripinfo id="154290_420_0" depart="25431.00" departLane="27115123#2_0" departPos="4.40" departSpeed="0.00" departDelay="0.00" arrival="25543.00" arrivalLane="32324544#0_0" arrivalPos="90.48" arrivalSpeed="21.47" duration="112.00" routeLength="198.06" waitingTime="90.00" waitingCount="1" stopTime="0.00" timeLoss="102.59" rerouteNo="1" devices="tripinfo_154290_420_0 routing_154290_420_0" vType="pkw" speedFactor="1.19" vaporized=""/>
    <tripinfo id="129330_408_0" depart="25433.00" departLane="27115123#2_0" departPos="4.40" departSpeed="0.00" departDelay="1.00" arrival="25543.00" arrivalLane="32324544#0_1" arrivalPos="90.48" arrivalSpeed="16.55" duration="110.00" routeLength="198.06" waitingTime="86.00" waitingCount="1" stopTime="0.00" timeLoss="98.68" rerouteNo="1" devices="tripinfo_129330_408_0 routing_129330_408_0" vType="pkw" speedFactor="0.91" vaporized=""/>
    <tripinfo id="102630_396_0" depart="25256.00" departLane="23429231#1_0" departPos="4.40" departSpeed="0.00" departDelay="4.00" arrival="25544.00" arrivalLane="32038051#0_0" arrivalPos="89.25" arrivalSpeed="16.07" duration="288.00" routeLength="203.79" waitingTime="258.00" waitingCount="2" stopTime="0.00" timeLoss="274.67" rerouteNo="0" devices="tripinfo_102630_396_0 routing_102630_396_0" vType="pkw" speedFactor="0.84" vaporized=""/>
    <tripinfo id="153635_420_0" depart="25460.00" departLane="27115123#2_0" departPos="4.40" departSpeed="0.00" departDelay="0.00" arrival="25544.00" arrivalLane="32324544#0_0" arrivalPos="90.48" arrivalSpeed="17.82" duration="84.00" routeLength="198.06" waitingTime="61.00" waitingCount="1" stopTime="0.00" timeLoss="72.67" rerouteNo="1" devices="tripinfo_153635_420_0 routing_153635_420_0" vType="pkw" speedFactor="0.92" vaporized=""/>
    <tripinfo id="135103_411_0" depart="25264.00" departLane="23429231#1_0" departPos="4.40" departSpeed="0.00" departDelay="8.00" arrival="25545.00" arrivalLane="32038051#0_1" arrivalPos="89.25" arrivalSpeed="18.72" duration="281.00" routeLength="203.79" waitingTime="252.00" waitingCount="2" stopTime="0.00" timeLoss="269.44" rerouteNo="0" devices="tripinfo_135103_411_0 routing_135103_411_0" vType="pkw" speedFactor="0.98" vaporized=""/>
    <tripinfo id="122194_406_0" depart="25262.00" departLane="23429231#1_0" departPos="4.40" departSpeed="0.00" departDelay="7.00" arrival="25546.00" arrivalLane="32038051#0_0" arrivalPos="89.25" arrivalSpeed="19.81" duration="284.00" routeLength="203.79" waitingTime="253.00" waitingCount="2" stopTime="0.00" timeLoss="273.44" rerouteNo="0" devices="tripinfo_122194_406_0 routing_122194_406_0" vType="pkw" speedFactor="1.06" vaporized=""/>
    <tripinfo id="125613_406_0" depart="25270.00" departLane="23429231#1_0" departPos="4.40" departSpeed="0.00" departDelay="12.00" arrival="25546.00" arrivalLane="32038051#0_1" arrivalPos="89.25" arrivalSpeed="20.16" duration="276.00" routeLength="203.79" waitingTime="245.00" waitingCount="2" stopTime="0.00" timeLoss="265.73" rerouteNo="0" devices="tripinfo_125613_406_0 routing_125613_406_0" vType="pkw" speedFactor="1.05" vaporized=""/>
    <tripinfo id="145855_416_0" depart="25469.00" departLane="27115123#2_0" departPos="4.40" departSpeed="0.00" departDelay="0.00" arrival="25546.00" arrivalLane="32324544#0_0" arrivalPos="90.48" arrivalSpeed="18.93" duration="77.00" routeLength="198.06" waitingTime="54.00" waitingCount="1" stopTime="0.00" timeLoss="65.96" rerouteNo="1" devices="tripinfo_145855_416_0 routing_145855_416_0" vType="pkw" speedFactor="0.99" vaporized=""/>
    <tripinfo id="152958_419_0" depart="25267.00" departLane="23429231#1_0" departPos="4.40" departSpeed="0.00" departDelay="10.00" arrival="25547.00" arrivalLane="32038051#0_0" arrivalPos="89.25" arrivalSpeed="17.87" duration="280.00" routeLength="203.79" waitingTime="248.00" waitingCount="2" stopTime="0.00" timeLoss="269.31" rerouteNo="0" devices="tripinfo_152958_419_0 routing_152958_419_0" vType="pkw" speedFactor="0.98" vaporized=""/>
    <tripinfo id="161689_421_0" depart="25467.00" departLane="130165204_0" departPos="4.40" departSpeed="0.00" departDelay="0.00" arrival="25547.00" arrivalLane="32324544#0_1" arrivalPos="90.48" arrivalSpeed="22.66" duration="80.00" routeLength="411.68" waitingTime="40.00" waitingCount="1" stopTime="0.00" timeLoss="57.68" rerouteNo="1" devices="tripinfo_161689_421_0 routing_161689_421_0" vType="pkw" speedFactor="1.23" vaporized=""/>
    <tripinfo id="137320_412_0" depart="25414.00" departLane="130165204_0" departPos="4.40" departSpeed="0.00" departDelay="0.00" arrival="25551.00" arrivalLane="32038051#0_1" arrivalPos="89.25" arrivalSpeed="16.41" duration="137.00" routeLength="410.03" waitingTime="85.00" waitingCount="2" stopTime="0.00" timeLoss="106.53" rerouteNo="1" devices="tripinfo_137320_412_0 routing_137320_412_0" vType="pkw" speedFactor="0.89" vaporized=""/>
    <tripinfo id="86583_391_0" depart="25289.00" departLane="-32038056#3_0" departPos="4.40" departSpeed="0.00" departDelay="0.00" arrival="25578.00" arrivalLane="32038051#0_0" arrivalPos="89.25" arrivalSpeed="19.70" duration="289.00" routeLength="446.95" waitingTime="241.00" waitingCount="3" stopTime="0.00" timeLoss="259.75" rerouteNo="0" devices="tripinfo_86583_391_0 routing_86583_391_0" vType="pkw" speedFactor="1.05" vaporized=""/>
    <tripinfo id="138220_412_0" depart="25310.00" departLane="-32038056#3_0" departPos="4.40" departSpeed="0.00" departDelay="1.00" arrival="25578.00" arrivalLane="-28198821#4_0" arrivalPos="57.10" arrivalSpeed="13.62" duration="268.00" routeLength="437.47" waitingTime="225.00" waitingCount="1" stopTime="0.00" timeLoss="236.76" rerouteNo="0" devices="tripinfo_138220_412_0 routing_138220_412_0" vType="pkw" speedFactor="1.01" vaporized=""/>
    <tripinfo id="125917_406_0" depart="25547.00" departLane="28198821#3_0" departPos="4.40" departSpeed="0.00" departDelay="0.00" arrival="25579.00" arrivalLane="32324544#0_0" arrivalPos="90.48" arrivalSpeed="18.99" duration="32.00" routeLength="155.13" waitingTime="11.00" waitingCount="1" stopTime="0.00" timeLoss="22.31" rerouteNo="0" devices="tripinfo_125917_406_0 routing_125917_406_0" vType="pkw" speedFactor="1.03" vaporized=""/>
    <tripinfo id="136669_411_0" depart="25566.00" departLane="28198821#3_0" departPos="4.40" departSpeed="0.00" departDelay="0.00" arrival="25580.00" arrivalLane="32038051#0_1" arrivalPos="89.25" arrivalSpeed="19.37" duration="14.00" routeLength="170.57" waitingTime="0.00" waitingCount="0" stopTime="0.00" timeLoss="4.02" rerouteNo="0" devices="tripinfo_136669_411_0 routing_136669_411_0" vType="pkw" speedFactor="1.02" vaporized=""/>
    <tripinfo id="120878_405_0" depart="25291.00" departLane="-32038056#3_0" departPos="4.40" departSpeed="0.00" departDelay="0.00" arrival="25592.00" arrivalLane="32038051#0_0" arrivalPos="89.25" arrivalSpeed="18.96" duration="301.00" routeLength="446.95" waitingTime="245.00" waitingCount="4" stopTime="0.00" timeLoss="270.08" rerouteNo="0" devices="tripinfo_120878_405_0 routing_120878_405_0" vType="pkw" speedFactor="0.99" vaporized=""/>
    <tripinfo id="167799_425_0" depart="25327.00" departLane="-32038056#3_0" departPos="4.40" departSpeed="0.00" departDelay="0.00" arrival="25592.00" arrivalLane="-28198821#4_1" arrivalPos="57.10" arrivalSpeed="15.16" duration="265.00" routeLength="437.47" waitingTime="222.00" waitingCount="2" stopTime="0.00" timeLoss="236.95" rerouteNo="0" devices="tripinfo_167799_425_0 routing_167799_425_0" vType="pkw" speedFactor="1.14" vaporized=""/>
    <tripinfo id="85922_391_0" depart="25294.00" departLane="-32038056#3_0" departPos="4.40" departSpeed="0.00" departDelay="1.00" arrival="25594.00" arrivalLane="32038051#0_0" arrivalPos="89.25" arrivalSpeed="16.18" duration="300.00" routeLength="446.95" waitingTime="240.00" waitingCount="4" stopTime="0.00" timeLoss="265.28" rerouteNo="0" devices="tripinfo_85922_391_0 routing_85922_391_0" vType="pkw" speedFactor="0.89" vaporized=""/>
    <tripinfo id="118963_405_0" depart="25304.00" departLane="-32038056#3_0" departPos="4.40" departSpeed="0.00" departDelay="0.00" arrival="25595.00" arrivalLane="32038051#0_0" arrivalPos="89.25" arrivalSpeed="17.08" duration="291.00" routeLength="446.95" waitingTime="231.00" waitingCount="3" stopTime="0.00" timeLoss="257.18" rerouteNo="0" devices="tripinfo_118963_405_0 routing_118963_405_0" vType="pkw" speedFactor="0.90" vaporized=""/>
    <tripinfo id="184119_431_0" depart="25582.00" departLane="28198821#3_0" departPos="4.40" departSpeed="0.00" departDelay="0.00" arrival="25595.00" arrivalLane="32324544#0_0" arrivalPos="90.48" arrivalSpeed="18.50" duration="13.00" routeLength="155.13" waitingTime="0.00" waitingCount="0" stopTime="0.00" timeLoss="3.43" rerouteNo="0" devices="tripinfo_184119_431_0 routing_184119_431_0" vType="pkw" speedFactor="0.96" vaporized=""/>
    <tripinfo id="130372_409_0" depart="25330.00" departLane="-32038056#3_0" departPos="4.40" departSpeed="0.00" departDelay="3.00" arrival="25596.00" arrivalLane="32324544#0_1" arrivalPos="90.48" arrivalSpeed="19.58" duration="266.00" routeLength="465.51" waitingTime="219.00" waitingCount="2" stopTime="0.00" timeLoss="234.68" rerouteNo="0" devices="tripinfo_130372_409_0 routing_130372_409_0" vType="pkw" speedFactor="1.02" vaporized=""/>
    <tripinfo id="136152_411_0" depart="25313.00" departLane="-32038056#3_0" departPos="4.40" departSpeed="0.00" departDelay="0.00" arrival="25597.00" arrivalLane="32038051#0_0" arrivalPos="89.25" arrivalSpeed="21.50" duration="284.00" routeLength="446.95" waitingTime="230.00" waitingCount="3" stopTime="0.00" timeLoss="256.84" rerouteNo="0" devices="tripinfo_136152_411_0 routing_136152_411_0" vType="pkw" speedFactor="1.15" vaporized=""/>
    <tripinfo id="104806_398_0" depart="25333.00" departLane="-32038056#3_0" departPos="4.40" departSpeed="0.00" departDelay="4.00" arrival="25598.00" arrivalLane="32324544#0_1" arrivalPos="90.48" arrivalSpeed="21.16" duration="265.00" routeLength="465.51" waitingTime="215.00" waitingCount="2" stopTime="0.00" timeLoss="237.74" rerouteNo="0" devices="tripinfo_104806_398_0 routing_104806_398_0" vType="pkw" speedFactor="1.18" vaporized=""/>
    <tripinfo id="122154_406_0" depart="25337.00" departLane="-32038056#3_0" departPos="4.40" departSpeed="0.00" departDelay="0.00" arrival="25599.00" arrivalLane="-28198821#4_1" arrivalPos="57.10" arrivalSpeed="11.14" duration="262.00" routeLength="437.47" waitingTime="206.00" waitingCount="2" stopTime="0.00" timeLoss="225.40" rerouteNo="0" devices="tripinfo_122154_406_0 routing_122154_406_0" vType="pkw" speedFactor="0.87" vaporized=""/>
    <tripinfo id="121091_405_0" depart="25345.00" departLane="-32038056#3_0" departPos="4.40" departSpeed="0.00" departDelay="0.00" arrival="25599.00" arrivalLane="32038051#0_0" arrivalPos="89.25" arrivalSpeed="21.44" duration="254.00" routeLength="446.95" waitingTime="208.00" waitingCount="2" stopTime="0.00" timeLoss="229.37" rerouteNo="0" devices="tripinfo_121091_405_0 routing_121091_405_0" vType="pkw" speedFactor="1.27" vaporized=""/>
    <tripinfo id="169772_426_0" depart="25347.00" departLane="-32038056#3_0" departPos="4.40" departSpeed="0.00" departDelay="0.00" arrival="25600.00" arrivalLane="32038051#0_0" arrivalPos="89.25" arrivalSpeed="19.28" duration="253.00" routeLength="446.95" waitingTime="202.00" waitingCount="2" stopTime="0.00" timeLoss="223.71" rerouteNo="0" devices="tripinfo_169772_426_0 routing_169772_426_0" vType="pkw" speedFactor="1.05" vaporized=""/>
    <tripinfo id="135138_411_0" depart="25350.00" departLane="-32038056#3_0" departPos="4.40" departSpeed="0.00" departDelay="1.00" arrival="25600.00" arrivalLane="-28198821#4_1" arrivalPos="57.10" arrivalSpeed="14.00" duration="250.00" routeLength="437.47" waitingTime="201.00" waitingCount="2" stopTime="0.00" timeLoss="219.84" rerouteNo="0" devices="tripinfo_135138_411_0 routing_135138_411_0" vType="pkw" speedFactor="1.05" vaporized=""/>
    <tripinfo id="114183_402_0" depart="25359.00" departLane="-32038056#3_0" departPos="4.40" departSpeed="0.00" departDelay="0.00" arrival="25602.00" arrivalLane="32038051#0_0" arrivalPos="89.25" arrivalSpeed="16.02" duration="243.00" routeLength="446.95" waitingTime="191.00" waitingCount="2" stopTime="0.00" timeLoss="208.36" rerouteNo="0" devices="tripinfo_114183_402_0 routing_114183_402_0" vType="pkw" speedFactor="0.88" vaporized=""/>
    <tripinfo id="120618_405_0" depart="25364.00" departLane="-32038056#3_0" departPos="4.40" departSpeed="0.00" departDelay="1.00" arrival="25603.00" arrivalLane="32038051#0_0" arrivalPos="89.25" arrivalSpeed="18.56" duration="239.00" routeLength="446.95" waitingTime="189.00" waitingCount="2" stopTime="0.00" timeLoss="211.39" rerouteNo="0" devices="tripinfo_120618_405_0 routing_120618_405_0" vType="pkw" speedFactor="1.10" vaporized=""/>
    <tripinfo id="150753_418_0" depart="25352.00" departLane="-32038056#3_0" departPos="4.40" departSpeed="0.00" departDelay="1.00" arrival="25604.00" arrivalLane="32324544#0_1" arrivalPos="90.48" arrivalSpeed="19.87" duration="252.00" routeLength="465.51" waitingTime="200.00" waitingCount="3" stopTime="0.00" timeLoss="221.34" rerouteNo="0" devices="tripinfo_150753_418_0 routing_150753_418_0" vType="pkw" speedFactor="1.04" vaporized=""/>
    <tripinfo id="148536_417_0" depart="25362.00" departLane="-32038056#3_0" departPos="4.40" departSpeed="0.00" departDelay="1.00" arrival="25605.00" arrivalLane="32324544#0_1" arrivalPos="90.48" arrivalSpeed="21.18" duration="243.00" routeLength="465.51" waitingTime="192.00" waitingCount="2" stopTime="0.00" timeLoss="215.48" rerouteNo="0" devices="tripinfo_148536_417_0 routing_148536_417_0" vType="pkw" speedFactor="1.15" vaporized=""/>
    <tripinfo id="137508_412_0" depart="25372.00" departLane="-32038056#3_0" departPos="4.40" departSpeed="0.00" departDelay="5.00" arrival="25605.00" arrivalLane="32038051#0_0" arrivalPos="89.25" arrivalSpeed="16.02" duration="233.00" routeLength="446.95" waitingTime="175.00" waitingCount="2" stopTime="0.00" timeLoss="196.87" rerouteNo="0" devices="tripinfo_137508_412_0 routing_137508_412_0" vType="pkw" speedFactor="0.84" vaporized=""/>
    <tripinfo id="167170_425_0" depart="25367.00" departLane="-32038056#3_0" departPos="4.40" departSpeed="0.00" departDelay="3.00" arrival="25606.00" arrivalLane="-28198821#4_1" arrivalPos="57.10" arrivalSpeed="13.06" duration="239.00" routeLength="437.47" waitingTime="184.00" waitingCount="2" stopTime="0.00" timeLoss="207.47" rerouteNo="0" devices="tripinfo_167170_425_0 routing_167170_425_0" vType="pkw" speedFactor="1.02" vaporized=""/>
    <tripinfo id="165043_423_0" depart="25370.00" departLane="-32038056#3_0" departPos="4.40" departSpeed="0.00" departDelay="4.00" arrival="25609.00" arrivalLane="32324544#0_1" arrivalPos="90.48" arrivalSpeed="18.46" duration="239.00" routeLength="465.51" waitingTime="183.00" waitingCount="2" stopTime="0.00" timeLoss="208.03" rerouteNo="0" devices="tripinfo_165043_423_0 routing_165043_423_0" vType="pkw" speedFactor="1.01" vaporized=""/>