<?xml version="1.0" encoding="UTF-8"?>

<!-- generated on 2023-08-31 13:18:54 by Eclipse SUMO libsumo Version 1.18.0
<configuration xmlns:xsi="http://www.w3.org/2001/XMLSchema-instance" xsi:noNamespaceSchemaLocation="http://sumo.dlr.de/xsd/libsumoConfiguration.xsd">

    <input>
        <net-file value="/home/stefan/RESCO/./environments/cologne1/cologne1.net.xml"/>
        <route-files value="/home/stefan/RESCO/./environments/cologne1/cologne1.rou.xml"/>
    </input>

    <output>
        <tripinfo-output value="/home/stefan/results/RAINBOW-tr0-cologne1-0-drq_norm-wait_norm/tripinfo_75.xml"/>
        <tripinfo-output.write-unfinished value="true"/>
    </output>

    <time>
        <begin value="25200"/>
        <end value="28800"/>
    </time>

    <processing>
        <time-to-teleport value="-1"/>
    </processing>

    <report>
        <no-warnings value="True"/>
        <no-step-log value="True"/>
    </report>

    <random_number>
        <random value="true"/>
    </random_number>

</configuration>
-->

<tripinfos xmlns:xsi="http://www.w3.org/2001/XMLSchema-instance" xsi:noNamespaceSchemaLocation="http://sumo.dlr.de/xsd/tripinfo_file.xsd">
    <tripinfo id="124779_406_0" depart="25205.00" departLane="28198821#3_0" departPos="4.40" departSpeed="0.00" departDelay="0.00" arrival="25221.00" arrivalLane="32038051#0_1" arrivalPos="89.25" arrivalSpeed="16.76" duration="16.00" routeLength="170.57" waitingTime="0.00" waitingCount="0" stopTime="0.00" timeLoss="4.02" rerouteNo="0" devices="tripinfo_124779_406_0 routing_124779_406_0" vType="pkw" speedFactor="0.87" vaporized=""/>
    <tripinfo id="98305_395_0" depart="25211.00" departLane="28198821#3_0" departPos="4.40" departSpeed="0.00" departDelay="0.00" arrival="25233.00" arrivalLane="32038051#0_1" arrivalPos="89.25" arrivalSpeed="20.32" duration="22.00" routeLength="170.57" waitingTime="4.00" waitingCount="1" stopTime="0.00" timeLoss="11.98" rerouteNo="0" devices="tripinfo_98305_395_0 routing_98305_395_0" vType="pkw" speedFactor="1.05" vaporized=""/>
    <tripinfo id="102535_396_0" depart="25218.00" departLane="28198821#3_0" departPos="4.40" departSpeed="0.00" departDelay="0.00" arrival="25235.00" arrivalLane="32038051#0_1" arrivalPos="89.25" arrivalSpeed="16.33" duration="17.00" routeLength="170.57" waitingTime="0.00" waitingCount="0" stopTime="0.00" timeLoss="5.52" rerouteNo="0" devices="tripinfo_102535_396_0 routing_102535_396_0" vType="pkw" speedFactor="0.90" vaporized=""/>
    <tripinfo id="147209_416_0" depart="25220.00" departLane="28198821#3_0" departPos="4.40" departSpeed="0.00" departDelay="0.00" arrival="25238.00" arrivalLane="32038051#0_1" arrivalPos="89.25" arrivalSpeed="20.37" duration="18.00" routeLength="170.57" waitingTime="0.00" waitingCount="0" stopTime="0.00" timeLoss="7.78" rerouteNo="0" devices="tripinfo_147209_416_0 routing_147209_416_0" vType="pkw" speedFactor="1.07" vaporized=""/>
    <tripinfo id="151372_418_0" depart="25207.00" departLane="130165204_0" departPos="4.40" departSpeed="0.00" departDelay="0.00" arrival="25249.00" arrivalLane="32038051#0_1" arrivalPos="89.25" arrivalSpeed="19.16" duration="42.00" routeLength="410.03" waitingTime="1.00" waitingCount="1" stopTime="0.00" timeLoss="15.33" rerouteNo="1" devices="tripinfo_151372_418_0 routing_151372_418_0" vType="pkw" speedFactor="1.01" vaporized=""/>
    <tripinfo id="149029_417_0" depart="25236.00" departLane="27115123#2_0" departPos="4.40" departSpeed="0.00" departDelay="0.00" arrival="25258.00" arrivalLane="32038051#0_1" arrivalPos="89.25" arrivalSpeed="20.64" duration="22.00" routeLength="196.41" waitingTime="1.00" waitingCount="1" stopTime="0.00" timeLoss="12.52" rerouteNo="1" devices="tripinfo_149029_417_0 routing_149029_417_0" vType="pkw" speedFactor="1.09" vaporized=""/>
    <tripinfo id="91582_392_0" depart="25220.00" departLane="-32038056#3_0" departPos="4.40" departSpeed="0.00" departDelay="2.00" arrival="25263.00" arrivalLane="32324544#0_1" arrivalPos="90.48" arrivalSpeed="19.83" duration="43.00" routeLength="465.51" waitingTime="2.00" waitingCount="1" stopTime="0.00" timeLoss="12.14" rerouteNo="0" devices="tripinfo_91582_392_0 routing_91582_392_0" vType="pkw" speedFactor="1.03" vaporized=""/>
    <tripinfo id="115444_403_0" depart="25294.00" departLane="28198821#3_0" departPos="4.40" departSpeed="0.00" departDelay="0.00" arrival="25311.00" arrivalLane="32038051#0_1" arrivalPos="89.25" arrivalSpeed="19.32" duration="17.00" routeLength="170.57" waitingTime="0.00" waitingCount="0" stopTime="0.00" timeLoss="6.46" rerouteNo="0" devices="tripinfo_115444_403_0 routing_115444_403_0" vType="pkw" speedFactor="1.01" vaporized=""/>
    <tripinfo id="103540_397_0" depart="25300.00" departLane="28198821#3_0" departPos="4.40" departSpeed="0.00" departDelay="0.00" arrival="25313.00" arrivalLane="32038051#0_1" arrivalPos="89.25" arrivalSpeed="23.04" duration="13.00" routeLength="170.57" waitingTime="0.00" waitingCount="0" stopTime="0.00" timeLoss="4.76" rerouteNo="0" devices="tripinfo_103540_397_0 routing_103540_397_0" vType="pkw" speedFactor="1.24" vaporized=""/>
    <tripinfo id="162096_421_0" depart="25306.00" departLane="130165204_0" departPos="4.40" departSpeed="0.00" departDelay="0.00" arrival="25349.00" arrivalLane="32038051#0_1" arrivalPos="89.25" arrivalSpeed="18.54" duration="43.00" routeLength="410.03" waitingTime="1.00" waitingCount="1" stopTime="0.00" timeLoss="15.59" rerouteNo="1" devices="tripinfo_162096_421_0 routing_162096_421_0" vType="pkw" speedFactor="0.99" vaporized=""/>
    <tripinfo id="175147_428_0" depart="25324.00" departLane="130165204_0" departPos="4.40" departSpeed="0.00" departDelay="0.00" arrival="25358.00" arrivalLane="32038051#0_1" arrivalPos="89.25" arrivalSpeed="17.69" duration="34.00" routeLength="410.03" waitingTime="0.00" waitingCount="0" stopTime="0.00" timeLoss="6.07" rerouteNo="1" devices="tripinfo_175147_428_0 routing_175147_428_0" vType="pkw" speedFactor="0.94" vaporized=""/>
    <tripinfo id="123965_406_0" depart="25218.00" departLane="-32038056#3_0" departPos="4.40" departSpeed="0.00" departDelay="0.00" arrival="25368.00" arrivalLane="-28198821#4_0" arrivalPos="57.10" arrivalSpeed="11.62" duration="150.00" routeLength="437.47" waitingTime="106.00" waitingCount="1" stopTime="0.00" timeLoss="115.89" rerouteNo="0" devices="tripinfo_123965_406_0 routing_123965_406_0" vType="pkw" speedFactor="0.93" vaporized=""/>
    <tripinfo id="130602_409_0" depart="25268.00" departLane="-32038056#3_0" departPos="4.40" departSpeed="0.00" departDelay="0.00" arrival="25368.00" arrivalLane="-28198821#4_1" arrivalPos="57.10" arrivalSpeed="13.78" duration="100.00" routeLength="437.47" waitingTime="60.00" waitingCount="1" stopTime="0.00" timeLoss="70.47" rerouteNo="0" devices="tripinfo_130602_409_0 routing_130602_409_0" vType="pkw" speedFactor="1.08" vaporized=""/>
    <tripinfo id="161721_421_0" depart="25337.00" departLane="130165204_0" departPos="4.40" departSpeed="0.00" departDelay="0.00" arrival="25370.00" arrivalLane="32038051#0_1" arrivalPos="89.25" arrivalSpeed="20.09" duration="33.00" routeLength="410.03" waitingTime="0.00" waitingCount="0" stopTime="0.00" timeLoss="7.35" rerouteNo="1" devices="tripinfo_161721_421_0 routing_161721_421_0" vType="pkw" speedFactor="1.04" vaporized=""/>
    <tripinfo id="160150_421_0" depart="25223.00" departLane="-32038056#3_0" departPos="4.40" departSpeed="0.00" departDelay="4.00" arrival="25378.00" arrivalLane="32038051#0_0" arrivalPos="89.25" arrivalSpeed="18.67" duration="155.00" routeLength="446.95" waitingTime="110.00" waitingCount="2" stopTime="0.00" timeLoss="123.54" rerouteNo="0" devices="tripinfo_160150_421_0 routing_160150_421_0" vType="pkw" speedFactor="0.98" vaporized=""/>
    <tripinfo id="128446_408_0" depart="25273.00" departLane="-32038056#3_0" departPos="4.40" departSpeed="0.00" departDelay="0.00" arrival="25380.00" arrivalLane="32324544#0_1" arrivalPos="90.48" arrivalSpeed="18.30" duration="107.00" routeLength="465.51" waitingTime="60.00" waitingCount="2" stopTime="0.00" timeLoss="74.92" rerouteNo="0" devices="tripinfo_128446_408_0 routing_128446_408_0" vType="pkw" speedFactor="0.99" vaporized=""/>
    <tripinfo id="162814_422_0" depart="25233.00" departLane="-32038056#3_0" departPos="4.40" departSpeed="0.00" departDelay="0.00" arrival="25389.00" arrivalLane="32038051#0_0" arrivalPos="89.25" arrivalSpeed="19.73" duration="156.00" routeLength="446.95" waitingTime="109.00" waitingCount="3" stopTime="0.00" timeLoss="126.16" rerouteNo="0" devices="tripinfo_162814_422_0 routing_162814_422_0" vType="pkw" speedFactor="1.03" vaporized=""/>
    <tripinfo id="83516_390_0" depart="25276.00" departLane="-32038056#3_0" departPos="4.40" departSpeed="0.00" departDelay="1.00" arrival="25389.00" arrivalLane="32324544#0_1" arrivalPos="90.48" arrivalSpeed="18.25" duration="113.00" routeLength="465.51" waitingTime="61.00" waitingCount="3" stopTime="0.00" timeLoss="80.76" rerouteNo="0" devices="tripinfo_83516_390_0 routing_83516_390_0" vType="pkw" speedFactor="0.99" vaporized=""/>
    <tripinfo id="121258_405_0" depart="25240.00" departLane="23429231#1_0" departPos="4.40" departSpeed="0.00" departDelay="0.00" arrival="25393.00" arrivalLane="32038051#0_0" arrivalPos="89.25" arrivalSpeed="18.66" duration="153.00" routeLength="203.79" waitingTime="130.00" waitingCount="1" stopTime="0.00" timeLoss="141.24" rerouteNo="0" devices="tripinfo_121258_405_0 routing_121258_405_0" vType="pkw" speedFactor="0.96" vaporized=""/>
    <tripinfo id="126742_407_0" depart="25242.00" departLane="23429231#1_0" departPos="4.40" departSpeed="0.00" departDelay="2.00" arrival="25393.00" arrivalLane="32038051#0_1" arrivalPos="89.25" arrivalSpeed="15.50" duration="151.00" routeLength="203.79" waitingTime="126.00" waitingCount="1" stopTime="0.00" timeLoss="137.74" rerouteNo="0" devices="tripinfo_126742_407_0 routing_126742_407_0" vType="pkw" speedFactor="0.81" vaporized=""/>
    <tripinfo id="148629_417_0" depart="25284.00" departLane="27115123#2_0" departPos="4.40" departSpeed="0.00" departDelay="0.00" arrival="25393.00" arrivalLane="32324544#0_0" arrivalPos="90.48" arrivalSpeed="18.98" duration="109.00" routeLength="198.06" waitingTime="85.00" waitingCount="1" stopTime="0.00" timeLoss="98.07" rerouteNo="1" devices="tripinfo_148629_417_0 routing_148629_417_0" vType="pkw" speedFactor="0.99" vaporized=""/>
    <tripinfo id="102501_396_0" depart="25245.00" departLane="23429231#1_0" departPos="4.40" departSpeed="0.00" departDelay="1.00" arrival="25395.00" arrivalLane="32038051#0_0" arrivalPos="89.25" arrivalSpeed="18.87" duration="150.00" routeLength="203.79" waitingTime="125.00" waitingCount="1" stopTime="0.00" timeLoss="138.58" rerouteNo="0" devices="tripinfo_102501_396_0 routing_102501_396_0" vType="pkw" speedFactor="0.99" vaporized=""/>
    <tripinfo id="113509_402_0" depart="25251.00" departLane="23429231#1_0" departPos="4.40" departSpeed="0.00" departDelay="3.00" arrival="25395.00" arrivalLane="-28198821#4_1" arrivalPos="57.10" arrivalSpeed="12.92" duration="144.00" routeLength="179.90" waitingTime="121.00" waitingCount="1" stopTime="0.00" timeLoss="132.29" rerouteNo="0" devices="tripinfo_113509_402_0 routing_113509_402_0" vType="pkw" speedFactor="0.99" vaporized=""/>
    <tripinfo id="120663_405_0" depart="25248.00" departLane="23429231#1_0" departPos="4.40" departSpeed="0.00" departDelay="2.00" arrival="25396.00" arrivalLane="32038051#0_0" arrivalPos="89.25" arrivalSpeed="18.72" duration="148.00" routeLength="203.79" waitingTime="123.00" waitingCount="1" stopTime="0.00" timeLoss="137.45" rerouteNo="0" devices="tripinfo_120663_405_0 routing_120663_405_0" vType="pkw" speedFactor="1.03" vaporized=""/>
    <tripinfo id="130147_409_0" depart="25253.00" departLane="23429231#1_0" departPos="4.40" departSpeed="0.00" departDelay="2.00" arrival="25396.00" arrivalLane="32038051#0_1" arrivalPos="89.25" arrivalSpeed="19.59" duration="143.00" routeLength="203.79" waitingTime="119.00" waitingCount="1" stopTime="0.00" timeLoss="131.98" rerouteNo="0" devices="tripinfo_130147_409_0 routing_130147_409_0" vType="pkw" speedFactor="1.02" vaporized=""/>
    <tripinfo id="136082_411_0" depart="25278.00" departLane="-32038056#3_0" departPos="4.40" departSpeed="0.00" departDelay="1.00" arrival="25408.00" arrivalLane="32038051#0_0" arrivalPos="89.25" arrivalSpeed="20.29" duration="130.00" routeLength="446.95" waitingTime="78.00" waitingCount="5" stopTime="0.00" timeLoss="102.65" rerouteNo="0" devices="tripinfo_136082_411_0 routing_136082_411_0" vType="pkw" speedFactor="1.13" vaporized=""/>
    <tripinfo id="113303_402_0" depart="25284.00" departLane="-32038056#3_0" departPos="4.40" departSpeed="0.00" departDelay="1.00" arrival="25410.00" arrivalLane="32324544#0_1" arrivalPos="90.48" arrivalSpeed="18.56" duration="126.00" routeLength="465.51" waitingTime="70.00" waitingCount="5" stopTime="0.00" timeLoss="92.52" rerouteNo="0" devices="tripinfo_113303_402_0 routing_113303_402_0" vType="pkw" speedFactor="0.96" vaporized=""/>
    <tripinfo id="122376_406_0" depart="25258.00" departLane="23429231#1_0" departPos="4.40" departSpeed="0.00" departDelay="4.00" arrival="25412.00" arrivalLane="32038051#0_1" arrivalPos="89.25" arrivalSpeed="21.38" duration="154.00" routeLength="203.79" waitingTime="128.00" waitingCount="3" stopTime="0.00" timeLoss="144.49" rerouteNo="0" devices="tripinfo_122376_406_0 routing_122376_406_0" vType="pkw" speedFactor="1.12" vaporized=""/>
    <tripinfo id="102630_396_0" depart="25256.00" departLane="23429231#1_0" departPos="4.40" departSpeed="0.00" departDelay="4.00" arrival="25413.00" arrivalLane="32038051#0_0" arrivalPos="89.25" arrivalSpeed="17.55" duration="157.00" routeLength="203.79" waitingTime="128.00" waitingCount="2" stopTime="0.00" timeLoss="145.19" rerouteNo="0" devices="tripinfo_102630_396_0 routing_102630_396_0" vType="pkw" speedFactor="0.95" vaporized=""/>
    <tripinfo id="122194_406_0" depart="25261.00" departLane="23429231#1_0" departPos="4.40" departSpeed="0.00" departDelay="6.00" arrival="25414.00" arrivalLane="32038051#0_0" arrivalPos="89.25" arrivalSpeed="21.06" duration="153.00" routeLength="203.79" waitingTime="124.00" waitingCount="2" stopTime="0.00" timeLoss="143.51" rerouteNo="0" devices="tripinfo_122194_406_0 routing_122194_406_0" vType="pkw" speedFactor="1.14" vaporized=""/>
    <tripinfo id="135103_411_0" depart="25264.00" departLane="23429231#1_0" departPos="4.40" departSpeed="0.00" departDelay="8.00" arrival="25415.00" arrivalLane="32038051#0_1" arrivalPos="89.25" arrivalSpeed="19.34" duration="151.00" routeLength="203.79" waitingTime="121.00" waitingCount="2" stopTime="0.00" timeLoss="140.37" rerouteNo="0" devices="tripinfo_135103_411_0 routing_135103_411_0" vType="pkw" speedFactor="1.03" vaporized=""/>
    <tripinfo id="152958_419_0" depart="25266.00" departLane="23429231#1_0" departPos="4.40" departSpeed="0.00" departDelay="9.00" arrival="25416.00" arrivalLane="32038051#0_0" arrivalPos="89.25" arrivalSpeed="19.91" duration="150.00" routeLength="203.79" waitingTime="120.00" waitingCount="2" stopTime="0.00" timeLoss="139.92" rerouteNo="0" devices="tripinfo_152958_419_0 routing_152958_419_0" vType="pkw" speedFactor="1.06" vaporized=""/>
    <tripinfo id="125613_406_0" depart="25269.00" departLane="23429231#1_0" departPos="4.40" departSpeed="0.00" departDelay="11.00" arrival="25417.00" arrivalLane="32038051#0_1" arrivalPos="89.25" arrivalSpeed="17.15" duration="148.00" routeLength="203.79" waitingTime="115.00" waitingCount="2" stopTime="0.00" timeLoss="135.54" rerouteNo="0" devices="tripinfo_125613_406_0 routing_125613_406_0" vType="pkw" speedFactor="0.90" vaporized=""/>
    <tripinfo id="85818_390_0" depart="25282.00" departLane="-32038056#3_0" departPos="4.40" departSpeed="0.00" departDelay="2.00" arrival="25428.00" arrivalLane="32038051#0_0" arrivalPos="89.25" arrivalSpeed="18.71" duration="146.00" routeLength="446.95" waitingTime="92.00" waitingCount="5" stopTime="0.00" timeLoss="121.69" rerouteNo="0" devices="tripinfo_85818_390_0 routing_85818_390_0" vType="pkw" speedFactor="1.24" vaporized=""/>
    <tripinfo id="137244_412_0" depart="25297.00" departLane="-32038056#3_0" departPos="4.40" departSpeed="0.00" departDelay="3.00" arrival="25428.00" arrivalLane="-28198821#4_1" arrivalPos="57.10" arrivalSpeed="14.50" duration="131.00" routeLength="437.47" waitingTime="73.00" waitingCount="5" stopTime="0.00" timeLoss="100.79" rerouteNo="0" devices="tripinfo_137244_412_0 routing_137244_412_0" vType="pkw" speedFactor="1.05" vaporized=""/>
    <tripinfo id="142412_415_0" depart="25307.00" departLane="-32038056#3_0" departPos="4.40" departSpeed="0.00" departDelay="0.00" arrival="25430.00" arrivalLane="-28198821#4_1" arrivalPos="57.10" arrivalSpeed="12.82" duration="123.00" routeLength="437.47" waitingTime="61.00" waitingCount="5" stopTime="0.00" timeLoss="90.96" rerouteNo="0" devices="tripinfo_142412_415_0 routing_142412_415_0" vType="pkw" speedFactor="0.99" vaporized=""/>
    <tripinfo id="86583_391_0" depart="25289.00" departLane="-32038056#3_0" departPos="4.40" departSpeed="0.00" departDelay="0.00" arrival="25431.00" arrivalLane="32038051#0_0" arrivalPos="89.25" arrivalSpeed="19.50" duration="142.00" routeLength="446.95" waitingTime="80.00" waitingCount="5" stopTime="0.00" timeLoss="111.71" rerouteNo="0" devices="tripinfo_86583_391_0 routing_86583_391_0" vType="pkw" speedFactor="1.02" vaporized=""/>
    <tripinfo id="120878_405_0" depart="25291.00" departLane="-32038056#3_0" departPos="4.40" departSpeed="0.00" departDelay="0.00" arrival="25432.00" arrivalLane="32038051#0_0" arrivalPos="89.25" arrivalSpeed="19.51" duration="141.00" routeLength="446.95" waitingTime="77.00" waitingCount="5" stopTime="0.00" timeLoss="112.30" rerouteNo="0" devices="tripinfo_120878_405_0 routing_120878_405_0" vType="pkw" speedFactor="1.06" vaporized=""/>
    <tripinfo id="138220_412_0" depart="25310.00" departLane="-32038056#3_0" departPos="4.40" departSpeed="0.00" departDelay="1.00" arrival="25433.00" arrivalLane="-28198821#4_1" arrivalPos="57.10" arrivalSpeed="12.52" duration="123.00" routeLength="437.47" waitingTime="53.00" waitingCount="5" stopTime="0.00" timeLoss="87.55" rerouteNo="0" devices="tripinfo_138220_412_0 routing_138220_412_0" vType="pkw" speedFactor="0.90" vaporized=""/>
    <tripinfo id="85922_391_0" depart="25294.00" departLane="-32038056#3_0" departPos="4.40" departSpeed="0.00" departDelay="1.00" arrival="25434.00" arrivalLane="32038051#0_0" arrivalPos="89.25" arrivalSpeed="20.44" duration="140.00" routeLength="446.95" waitingTime="72.00" waitingCount="5" stopTime="0.00" timeLoss="112.28" rerouteNo="0" devices="tripinfo_85922_391_0 routing_85922_391_0" vType="pkw" speedFactor="1.12" vaporized=""/>
    <tripinfo id="167799_425_0" depart="25327.00" departLane="-32038056#3_0" departPos="4.40" departSpeed="0.00" departDelay="0.00" arrival="25434.00" arrivalLane="-28198821#4_1" arrivalPos="57.10" arrivalSpeed="12.82" duration="107.00" routeLength="437.47" waitingTime="38.00" waitingCount="5" stopTime="0.00" timeLoss="73.74" rerouteNo="0" devices="tripinfo_167799_425_0 routing_167799_425_0" vType="pkw" speedFactor="0.95" vaporized=""/>
    <tripinfo id="118963_405_0" depart="25304.00" departLane="-32038056#3_0" departPos="4.40" departSpeed="0.00" departDelay="0.00" arrival="25435.00" arrivalLane="32038051#0_0" arrivalPos="89.25" arrivalSpeed="19.96" duration="131.00" routeLength="446.95" waitingTime="62.00" waitingCount="5" stopTime="0.00" timeLoss="102.32" rerouteNo="0" devices="tripinfo_118963_405_0 routing_118963_405_0" vType="pkw" speedFactor="1.06" vaporized=""/>
    <tripinfo id="130372_409_0" depart="25330.00" departLane="-32038056#3_0" departPos="4.40" departSpeed="0.00" departDelay="3.00" arrival="25439.00" arrivalLane="32324544#0_1" arrivalPos="90.48" arrivalSpeed="13.74" duration="109.00" routeLength="465.51" waitingTime="27.00" waitingCount="4" stopTime="0.00" timeLoss="65.83" rerouteNo="0" devices="tripinfo_130372_409_0 routing_130372_409_0" vType="pkw" speedFactor="0.73" vaporized=""/>
    <tripinfo id="104806_398_0" depart="25332.00" departLane="-32038056#3_0" departPos="4.40" departSpeed="0.00" departDelay="3.00" arrival="25440.00" arrivalLane="32324544#0_1" arrivalPos="90.48" arrivalSpeed="14.21" duration="108.00" routeLength="465.51" waitingTime="26.00" waitingCount="4" stopTime="0.00" timeLoss="77.01" rerouteNo="0" devices="tripinfo_104806_398_0 routing_104806_398_0" vType="pkw" speedFactor="1.01" vaporized=""/>
    <tripinfo id="136152_411_0" depart="25313.00" departLane="-32038056#3_0" departPos="4.40" departSpeed="0.00" departDelay="0.00" arrival="25468.00" arrivalLane="32038051#0_0" arrivalPos="89.25" arrivalSpeed="18.38" duration="155.00" routeLength="446.95" waitingTime="77.00" waitingCount="6" stopTime="0.00" timeLoss="122.98" rerouteNo="0" devices="tripinfo_136152_411_0 routing_136152_411_0" vType="pkw" speedFactor="0.95" vaporized=""/>
    <tripinfo id="122154_406_0" depart="25337.00" departLane="-32038056#3_0" departPos="4.40" departSpeed="0.00" departDelay="0.00" arrival="25468.00" arrivalLane="-28198821#4_0" arrivalPos="57.10" arrivalSpeed="13.33" duration="131.00" routeLength="437.47" waitingTime="51.00" waitingCount="5" stopTime="0.00" timeLoss="100.05" rerouteNo="0" devices="tripinfo_122154_406_0 routing_122154_406_0" vType="pkw" speedFactor="1.03" vaporized=""/>
    <tripinfo id="121091_405_0" depart="25345.00" departLane="-32038056#3_0" departPos="4.40" departSpeed="0.00" departDelay="0.00" arrival="25478.00" arrivalLane="32038051#0_0" arrivalPos="89.25" arrivalSpeed="19.15" duration="133.00" routeLength="446.95" waitingTime="55.00" waitingCount="5" stopTime="0.00" timeLoss="102.84" rerouteNo="0" devices="tripinfo_121091_405_0 routing_121091_405_0" vType="pkw" speedFactor="1.01" vaporized=""/>
    <tripinfo id="150753_418_0" depart="25352.00" departLane="-32038056#3_0" departPos="4.40" departSpeed="0.00" departDelay="1.00" arrival="25479.00" arrivalLane="32324544#0_1" arrivalPos="90.48" arrivalSpeed="18.80" duration="127.00" routeLength="465.51" waitingTime="49.00" waitingCount="5" stopTime="0.00" timeLoss="95.64" rerouteNo="0" devices="tripinfo_150753_418_0 routing_150753_418_0" vType="pkw" speedFactor="1.01" vaporized=""/>
    <tripinfo id="169772_426_0" depart="25347.00" departLane="-32038056#3_0" departPos="4.40" departSpeed="0.00" departDelay="0.00" arrival="25488.00" arrivalLane="32038051#0_0" arrivalPos="89.25" arrivalSpeed="20.37" duration="141.00" routeLength="446.95" waitingTime="56.00" waitingCount="5" stopTime="0.00" timeLoss="114.77" rerouteNo="0" devices="tripinfo_169772_426_0 routing_169772_426_0" vType="pkw" speedFactor="1.17" vaporized=""/>
    <tripinfo id="148536_417_0" depart="25361.00" departLane="-32038056#3_0" departPos="4.40" departSpeed="0.00" departDelay="0.00" arrival="25489.00" arrivalLane="32324544#0_1" arrivalPos="90.48" arrivalSpeed="19.69" duration="128.00" routeLength="465.51" waitingTime="50.00" waitingCount="5" stopTime="0.00" timeLoss="97.98" rerouteNo="0" devices="tripinfo_148536_417_0 routing_148536_417_0" vType="pkw" speedFactor="1.06" vaporized=""/>
    <tripinfo id="167170_425_0" depart="25367.00" departLane="-32038056#3_0" departPos="4.40" departSpeed="0.00" departDelay="3.00" arrival="25498.00" arrivalLane="-28198821#4_0" arrivalPos="57.10" arrivalSpeed="14.97" duration="131.00" routeLength="437.47" waitingTime="50.00" waitingCount="7" stopTime="0.00" timeLoss="103.00" rerouteNo="0" devices="tripinfo_167170_425_0 routing_167170_425_0" vType="pkw" speedFactor="1.15" vaporized=""/>
    <tripinfo id="135138_411_0" depart="25350.00" departLane="-32038056#3_0" departPos="4.40" departSpeed="0.00" departDelay="1.00" arrival="25499.00" arrivalLane="-28198821#4_0" arrivalPos="57.10" arrivalSpeed="11.65" duration="149.00" routeLength="437.47" waitingTime="59.00" waitingCount="6" stopTime="0.00" timeLoss="111.17" rerouteNo="0" devices="tripinfo_135138_411_0 routing_135138_411_0" vType="pkw" speedFactor="0.85" vaporized=""/>
    <tripinfo id="114183_402_0" depart="25359.00" departLane="-32038056#3_0" departPos="4.40" departSpeed="0.00" departDelay="0.00" arrival="25508.00" arrivalLane="32038051#0_0" arrivalPos="89.25" arrivalSpeed="14.86" duration="149.00" routeLength="446.95" waitingTime="59.00" waitingCount="7" stopTime="0.00" timeLoss="110.77" rerouteNo="0" devices="tripinfo_114183_402_0 routing_114183_402_0" vType="pkw" speedFactor="0.79" vaporized=""/>
    <tripinfo id="165043_423_0" depart="25370.00" departLane="-32038056#3_0" departPos="4.40" departSpeed="0.00" departDelay="4.00" arrival="25509.00" arrivalLane="32324544#0_1" arrivalPos="90.48" arrivalSpeed="16.76" duration="139.00" routeLength="465.51" waitingTime="50.00" waitingCount="7" stopTime="0.00" timeLoss="103.99" rerouteNo="0" devices="tripinfo_165043_423_0 routing_165043_423_0" vType="pkw" speedFactor="0.90" vaporized=""/>
    <tripinfo id="120618_405_0" depart="25364.00" departLane="-32038056#3_0" departPos="4.40" departSpeed="0.00" departDelay="1.00" arrival="25518.00" arrivalLane="32038051#0_0" arrivalPos="89.25" arrivalSpeed="18.62" duration="154.00" routeLength="446.95" waitingTime="61.00" waitingCount="9" stopTime="0.00" timeLoss="122.65" rerouteNo="0" devices="tripinfo_120618_405_0 routing_120618_405_0" vType="pkw" speedFactor="0.98" vaporized=""/>
    <tripinfo id="163503_422_0" depart="25383.00" departLane="-32038056#3_0" departPos="4.40" departSpeed="0.00" departDelay="8.00" arrival="25518.00" arrivalLane="-28198821#4_1" arrivalPos="57.10" arrivalSpeed="15.89" duration="135.00" routeLength="437.47" waitingTime="48.00" waitingCount="9" stopTime="0.00" timeLoss="108.37" rerouteNo="0" devices="tripinfo_163503_422_0 routing_163503_422_0" vType="pkw" speedFactor="1.21" vaporized=""/>
    <tripinfo id="137508_412_0" depart="25373.00" departLane="-32038056#3_0" departPos="4.40" departSpeed="0.00" departDelay="6.00" arrival="25528.00" arrivalLane="32038051#0_0" arrivalPos="89.25" arrivalSpeed="17.64" duration="155.00" routeLength="446.95" waitingTime="63.00" waitingCount="10" stopTime="0.00" timeLoss="121.67" rerouteNo="0" devices="tripinfo_137508_412_0 routing_137508_412_0" vType="pkw" speedFactor="0.92" vaporized=""/>
    <tripinfo id="95948_394_0" depart="25387.00" departLane="-32038056#3_0" departPos="4.40" departSpeed="0.00" departDelay="11.00" arrival="25528.00" arrivalLane="-28198821#4_1" arrivalPos="57.10" arrivalSpeed="13.34" duration="141.00" routeLength="437.47" waitingTime="46.00" waitingCount="9" stopTime="0.00" timeLoss="110.32" rerouteNo="0" devices="tripinfo_95948_394_0 routing_95948_394_0" vType="pkw" speedFactor="1.03" vaporized=""/>
    <tripinfo id="127513_407_0" depart="25393.00" departLane="-32038056#3_0" departPos="4.40" departSpeed="0.00" departDelay="15.00" arrival="25537.00" arrivalLane="-28198821#4_1" arrivalPos="57.10" arrivalSpeed="15.41" duration="144.00" routeLength="437.47" waitingTime="44.00" waitingCount="7" stopTime="0.00" timeLoss="116.71" rerouteNo="0" devices="tripinfo_127513_407_0 routing_127513_407_0" vType="pkw" speedFactor="1.17" vaporized=""/>
    <tripinfo id="173487_427_0" depart="25375.00" departLane="-32038056#3_0" departPos="4.40" departSpeed="0.00" departDelay="6.00" arrival="25538.00" arrivalLane="32038051#0_0" arrivalPos="89.25" arrivalSpeed="16.54" duration="163.00" routeLength="446.95" waitingTime="62.00" waitingCount="10" stopTime="0.00" timeLoss="128.51" rerouteNo="0" devices="tripinfo_173487_427_0 routing_173487_427_0" vType="pkw" speedFactor="0.88" vaporized=""/>
    <tripinfo id="162547_422_0" depart="25378.00" departLane="-32038056#3_0" departPos="4.40" departSpeed="0.00" departDelay="8.00" arrival="25548.00" arrivalLane="32038051#0_0" arrivalPos="89.25" arrivalSpeed="19.21" duration="170.00" routeLength="446.95" waitingTime="64.00" waitingCount="11" stopTime="0.00" timeLoss="139.36" rerouteNo="0" devices="tripinfo_162547_422_0 routing_162547_422_0" vType="pkw" speedFactor="0.99" vaporized=""/>
    <tripinfo id="115620_403_0" depart="25389.00" departLane="-32038056#3_0" departPos="4.40" departSpeed="0.00" departDelay="12.00" arrival="25548.00" arrivalLane="-28198821#4_0" arrivalPos="57.10" arrivalSpeed="13.37" duration="159.00" routeLength="437.47" waitingTime="44.00" waitingCount="8" stopTime="0.00" timeLoss="127.98" rerouteNo="0" devices="tripinfo_115620_403_0 routing_115620_403_0" vType="pkw" speedFactor="1.03" vaporized=""/>
    <tripinfo id="171810_426_0" depart="25381.00" departLane="-32038056#3_0" departPos="4.40" departSpeed="0.00" departDelay="9.00" arrival="25559.00" arrivalLane="32038051#0_0" arrivalPos="89.25" arrivalSpeed="18.72" duration="178.00" routeLength="446.95" waitingTime="64.00" waitingCount="11" stopTime="0.00" timeLoss="145.89" rerouteNo="0" devices="tripinfo_171810_426_0 routing_171810_426_0" vType="pkw" speedFactor="0.96" vaporized=""/>
    <tripinfo id="163150_422_0" depart="25406.00" departLane="-32038056#3_0" departPos="4.40" departSpeed="0.00" departDelay="13.00" arrival="25559.00" arrivalLane="32324544#0_1" arrivalPos="90.48" arrivalSpeed="19.08" duration="153.00" routeLength="465.51" waitingTime="44.00" waitingCount="10" stopTime="0.00" timeLoss="122.52" rerouteNo="0" devices="tripinfo_163150_422_0 routing_163150_422_0" vType="pkw" speedFactor="1.04" vaporized=""/>
    <tripinfo id="84424_390_0" depart="25396.00" departLane="-32038056#3_0" departPos="4.40" departSpeed="0.00" departDelay="16.00" arrival="25568.00" arrivalLane="32038051#0_0" arrivalPos="89.25" arrivalSpeed="16.49" duration="172.00" routeLength="446.95" waitingTime="56.00" waitingCount="10" stopTime="0.00" timeLoss="137.07" rerouteNo="0" devices="tripinfo_84424_390_0 routing_84424_390_0" vType="pkw" speedFactor="0.87" vaporized=""/>