<?xml version="1.0" encoding="UTF-8"?>

<!-- generated on 2023-08-31 13:17:12 by Eclipse SUMO libsumo Version 1.18.0
<configuration xmlns:xsi="http://www.w3.org/2001/XMLSchema-instance" xsi:noNamespaceSchemaLocation="http://sumo.dlr.de/xsd/libsumoConfiguration.xsd">

    <input>
        <net-file value="/home/stefan/RESCO/./environments/cologne1/cologne1.net.xml"/>
        <route-files value="/home/stefan/RESCO/./environments/cologne1/cologne1.rou.xml"/>
    </input>

    <output>
        <tripinfo-output value="/home/stefan/results/RAINBOW-tr0-cologne1-0-drq_norm-wait_norm/tripinfo_57.xml"/>
        <tripinfo-output.write-unfinished value="true"/>
    </output>

    <time>
        <begin value="25200"/>
        <end value="28800"/>
    </time>

    <processing>
        <time-to-teleport value="-1"/>
    </processing>

    <report>
        <no-warnings value="True"/>
        <no-step-log value="True"/>
    </report>

    <random_number>
        <random value="true"/>
    </random_number>

</configuration>
-->

<tripinfos xmlns:xsi="http://www.w3.org/2001/XMLSchema-instance" xsi:noNamespaceSchemaLocation="http://sumo.dlr.de/xsd/tripinfo_file.xsd">
    <tripinfo id="124779_406_0" depart="25205.00" departLane="28198821#3_0" departPos="4.40" departSpeed="0.00" departDelay="0.00" arrival="25221.00" arrivalLane="32038051#0_1" arrivalPos="89.25" arrivalSpeed="17.51" duration="16.00" routeLength="170.57" waitingTime="0.00" waitingCount="0" stopTime="0.00" timeLoss="4.95" rerouteNo="0" devices="tripinfo_124779_406_0 routing_124779_406_0" vType="pkw" speedFactor="0.96" vaporized=""/>
    <tripinfo id="98305_395_0" depart="25211.00" departLane="28198821#3_0" departPos="4.40" departSpeed="0.00" departDelay="0.00" arrival="25224.00" arrivalLane="32038051#0_1" arrivalPos="89.25" arrivalSpeed="19.47" duration="13.00" routeLength="170.57" waitingTime="0.00" waitingCount="0" stopTime="0.00" timeLoss="3.01" rerouteNo="0" devices="tripinfo_98305_395_0 routing_98305_395_0" vType="pkw" speedFactor="1.00" vaporized=""/>
    <tripinfo id="102535_396_0" depart="25218.00" departLane="28198821#3_0" departPos="4.40" departSpeed="0.00" departDelay="0.00" arrival="25233.00" arrivalLane="32038051#0_1" arrivalPos="89.25" arrivalSpeed="17.48" duration="15.00" routeLength="170.57" waitingTime="0.00" waitingCount="0" stopTime="0.00" timeLoss="4.00" rerouteNo="0" devices="tripinfo_102535_396_0 routing_102535_396_0" vType="pkw" speedFactor="0.96" vaporized=""/>
    <tripinfo id="147209_416_0" depart="25220.00" departLane="28198821#3_0" departPos="4.40" departSpeed="0.00" departDelay="0.00" arrival="25235.00" arrivalLane="32038051#0_1" arrivalPos="89.25" arrivalSpeed="18.17" duration="15.00" routeLength="170.57" waitingTime="0.00" waitingCount="0" stopTime="0.00" timeLoss="4.60" rerouteNo="0" devices="tripinfo_147209_416_0 routing_147209_416_0" vType="pkw" speedFactor="1.00" vaporized=""/>
    <tripinfo id="151372_418_0" depart="25207.00" departLane="130165204_0" departPos="4.40" departSpeed="0.00" departDelay="0.00" arrival="25249.00" arrivalLane="32038051#0_1" arrivalPos="89.25" arrivalSpeed="18.42" duration="42.00" routeLength="410.03" waitingTime="1.00" waitingCount="1" stopTime="0.00" timeLoss="14.60" rerouteNo="1" devices="tripinfo_151372_418_0 routing_151372_418_0" vType="pkw" speedFactor="0.99" vaporized=""/>
    <tripinfo id="123965_406_0" depart="25218.00" departLane="-32038056#3_0" departPos="4.40" departSpeed="0.00" departDelay="0.00" arrival="25253.00" arrivalLane="-28198821#4_0" arrivalPos="57.10" arrivalSpeed="14.62" duration="35.00" routeLength="437.47" waitingTime="0.00" waitingCount="0" stopTime="0.00" timeLoss="5.02" rerouteNo="0" devices="tripinfo_123965_406_0 routing_123965_406_0" vType="pkw" speedFactor="1.07" vaporized=""/>
    <tripinfo id="160150_421_0" depart="25224.00" departLane="-32038056#3_0" departPos="4.40" departSpeed="0.00" departDelay="5.00" arrival="25259.00" arrivalLane="32038051#0_0" arrivalPos="89.25" arrivalSpeed="18.89" duration="35.00" routeLength="446.95" waitingTime="0.00" waitingCount="0" stopTime="0.00" timeLoss="5.74" rerouteNo="0" devices="tripinfo_160150_421_0 routing_160150_421_0" vType="pkw" speedFactor="1.03" vaporized=""/>
    <tripinfo id="91582_392_0" depart="25221.00" departLane="-32038056#3_0" departPos="4.40" departSpeed="0.00" departDelay="3.00" arrival="25264.00" arrivalLane="32324544#0_1" arrivalPos="90.48" arrivalSpeed="17.76" duration="43.00" routeLength="465.51" waitingTime="0.00" waitingCount="0" stopTime="0.00" timeLoss="8.22" rerouteNo="0" devices="tripinfo_91582_392_0 routing_91582_392_0" vType="pkw" speedFactor="0.91" vaporized=""/>
    <tripinfo id="162814_422_0" depart="25233.00" departLane="-32038056#3_0" departPos="4.40" departSpeed="0.00" departDelay="0.00" arrival="25267.00" arrivalLane="32038051#0_0" arrivalPos="89.25" arrivalSpeed="20.79" duration="34.00" routeLength="446.95" waitingTime="0.00" waitingCount="0" stopTime="0.00" timeLoss="5.17" rerouteNo="0" devices="tripinfo_162814_422_0 routing_162814_422_0" vType="pkw" speedFactor="1.08" vaporized=""/>
    <tripinfo id="121258_405_0" depart="25240.00" departLane="23429231#1_0" departPos="4.40" departSpeed="0.00" departDelay="0.00" arrival="25293.00" arrivalLane="32038051#0_0" arrivalPos="89.25" arrivalSpeed="19.98" duration="53.00" routeLength="203.79" waitingTime="28.00" waitingCount="1" stopTime="0.00" timeLoss="43.87" rerouteNo="0" devices="tripinfo_121258_405_0 routing_121258_405_0" vType="pkw" speedFactor="1.21" vaporized=""/>
    <tripinfo id="126742_407_0" depart="25243.00" departLane="23429231#1_0" departPos="4.40" departSpeed="0.00" departDelay="3.00" arrival="25293.00" arrivalLane="32038051#0_1" arrivalPos="89.25" arrivalSpeed="20.03" duration="50.00" routeLength="203.79" waitingTime="26.00" waitingCount="1" stopTime="0.00" timeLoss="40.19" rerouteNo="0" devices="tripinfo_126742_407_0 routing_126742_407_0" vType="pkw" speedFactor="1.10" vaporized=""/>
    <tripinfo id="102501_396_0" depart="25246.00" departLane="23429231#1_0" departPos="4.40" departSpeed="0.00" departDelay="2.00" arrival="25295.00" arrivalLane="32038051#0_0" arrivalPos="89.25" arrivalSpeed="18.65" duration="49.00" routeLength="203.79" waitingTime="25.00" waitingCount="1" stopTime="0.00" timeLoss="37.98" rerouteNo="0" devices="tripinfo_102501_396_0 routing_102501_396_0" vType="pkw" speedFactor="1.00" vaporized=""/>
    <tripinfo id="120663_405_0" depart="25249.00" departLane="23429231#1_0" departPos="4.40" departSpeed="0.00" departDelay="3.00" arrival="25295.00" arrivalLane="32038051#0_1" arrivalPos="89.25" arrivalSpeed="19.60" duration="46.00" routeLength="203.79" waitingTime="22.00" waitingCount="1" stopTime="0.00" timeLoss="35.70" rerouteNo="0" devices="tripinfo_120663_405_0 routing_120663_405_0" vType="pkw" speedFactor="1.05" vaporized=""/>
    <tripinfo id="113509_402_0" depart="25252.00" departLane="23429231#1_0" departPos="4.40" departSpeed="0.00" departDelay="4.00" arrival="25297.00" arrivalLane="-28198821#4_1" arrivalPos="57.10" arrivalSpeed="7.06" duration="45.00" routeLength="179.90" waitingTime="20.00" waitingCount="1" stopTime="0.00" timeLoss="32.10" rerouteNo="0" devices="tripinfo_113509_402_0 routing_113509_402_0" vType="pkw" speedFactor="0.85" vaporized=""/>
    <tripinfo id="130147_409_0" depart="25255.00" departLane="23429231#1_0" departPos="4.40" departSpeed="0.00" departDelay="4.00" arrival="25297.00" arrivalLane="32038051#0_0" arrivalPos="89.25" arrivalSpeed="20.22" duration="42.00" routeLength="203.79" waitingTime="17.00" waitingCount="1" stopTime="0.00" timeLoss="30.95" rerouteNo="0" devices="tripinfo_130147_409_0 routing_130147_409_0" vType="pkw" speedFactor="1.04" vaporized=""/>
    <tripinfo id="149029_417_0" depart="25236.00" departLane="27115123#2_0" departPos="4.40" departSpeed="0.00" departDelay="0.00" arrival="25300.00" arrivalLane="32038051#0_1" arrivalPos="89.25" arrivalSpeed="17.91" duration="64.00" routeLength="196.41" waitingTime="37.00" waitingCount="2" stopTime="0.00" timeLoss="54.69" rerouteNo="1" devices="tripinfo_149029_417_0 routing_149029_417_0" vType="pkw" speedFactor="1.11" vaporized=""/>
    <tripinfo id="115444_403_0" depart="25294.00" departLane="28198821#3_0" departPos="4.40" departSpeed="0.00" departDelay="0.00" arrival="25312.00" arrivalLane="32038051#0_1" arrivalPos="89.25" arrivalSpeed="15.22" duration="18.00" routeLength="170.57" waitingTime="0.00" waitingCount="0" stopTime="0.00" timeLoss="5.28" rerouteNo="0" devices="tripinfo_115444_403_0 routing_115444_403_0" vType="pkw" speedFactor="0.80" vaporized=""/>
    <tripinfo id="103540_397_0" depart="25300.00" departLane="28198821#3_0" departPos="4.40" departSpeed="0.00" departDelay="0.00" arrival="25314.00" arrivalLane="32038051#0_1" arrivalPos="89.25" arrivalSpeed="20.85" duration="14.00" routeLength="170.57" waitingTime="0.00" waitingCount="0" stopTime="0.00" timeLoss="4.87" rerouteNo="0" devices="tripinfo_103540_397_0 routing_103540_397_0" vType="pkw" speedFactor="1.15" vaporized=""/>
    <tripinfo id="128446_408_0" depart="25273.00" departLane="-32038056#3_0" departPos="4.40" departSpeed="0.00" departDelay="0.00" arrival="25323.00" arrivalLane="32324544#0_1" arrivalPos="90.48" arrivalSpeed="14.79" duration="50.00" routeLength="465.51" waitingTime="4.00" waitingCount="1" stopTime="0.00" timeLoss="11.25" rerouteNo="0" devices="tripinfo_128446_408_0 routing_128446_408_0" vType="pkw" speedFactor="0.81" vaporized=""/>
    <tripinfo id="83516_390_0" depart="25276.00" departLane="-32038056#3_0" departPos="4.40" departSpeed="0.00" departDelay="1.00" arrival="25325.00" arrivalLane="32324544#0_1" arrivalPos="90.48" arrivalSpeed="19.08" duration="49.00" routeLength="465.51" waitingTime="3.00" waitingCount="1" stopTime="0.00" timeLoss="17.26" rerouteNo="0" devices="tripinfo_83516_390_0 routing_83516_390_0" vType="pkw" speedFactor="1.00" vaporized=""/>
    <tripinfo id="113303_402_0" depart="25284.00" departLane="-32038056#3_0" departPos="4.40" departSpeed="0.00" departDelay="1.00" arrival="25326.00" arrivalLane="32324544#0_1" arrivalPos="90.48" arrivalSpeed="19.12" duration="42.00" routeLength="465.51" waitingTime="0.00" waitingCount="0" stopTime="0.00" timeLoss="11.76" rerouteNo="0" devices="tripinfo_113303_402_0 routing_113303_402_0" vType="pkw" speedFactor="1.04" vaporized=""/>
    <tripinfo id="162096_421_0" depart="25306.00" departLane="130165204_0" departPos="4.40" departSpeed="0.00" departDelay="0.00" arrival="25350.00" arrivalLane="32038051#0_1" arrivalPos="89.25" arrivalSpeed="21.26" duration="44.00" routeLength="410.03" waitingTime="2.00" waitingCount="1" stopTime="0.00" timeLoss="19.19" rerouteNo="1" devices="tripinfo_162096_421_0 routing_162096_421_0" vType="pkw" speedFactor="1.09" vaporized=""/>
    <tripinfo id="175147_428_0" depart="25324.00" departLane="130165204_0" departPos="4.40" departSpeed="0.00" departDelay="0.00" arrival="25357.00" arrivalLane="32038051#0_1" arrivalPos="89.25" arrivalSpeed="20.68" duration="33.00" routeLength="410.03" waitingTime="0.00" waitingCount="0" stopTime="0.00" timeLoss="9.46" rerouteNo="1" devices="tripinfo_175147_428_0 routing_175147_428_0" vType="pkw" speedFactor="1.12" vaporized=""/>
    <tripinfo id="161721_421_0" depart="25337.00" departLane="130165204_0" departPos="4.40" departSpeed="0.00" departDelay="0.00" arrival="25379.00" arrivalLane="32038051#0_1" arrivalPos="89.25" arrivalSpeed="17.01" duration="42.00" routeLength="410.03" waitingTime="0.00" waitingCount="0" stopTime="0.00" timeLoss="11.54" rerouteNo="1" devices="tripinfo_161721_421_0 routing_161721_421_0" vType="pkw" speedFactor="0.88" vaporized=""/>
    <tripinfo id="130602_409_0" depart="25268.00" departLane="-32038056#3_0" departPos="4.40" departSpeed="0.00" departDelay="0.00" arrival="25442.00" arrivalLane="-28198821#4_0" arrivalPos="57.10" arrivalSpeed="13.55" duration="174.00" routeLength="437.47" waitingTime="132.00" waitingCount="1" stopTime="0.00" timeLoss="141.76" rerouteNo="0" devices="tripinfo_130602_409_0 routing_130602_409_0" vType="pkw" speedFactor="0.98" vaporized=""/>
    <tripinfo id="137244_412_0" depart="25297.00" departLane="-32038056#3_0" departPos="4.40" departSpeed="0.00" departDelay="3.00" arrival="25442.00" arrivalLane="-28198821#4_1" arrivalPos="57.10" arrivalSpeed="15.64" duration="145.00" routeLength="437.47" waitingTime="105.00" waitingCount="1" stopTime="0.00" timeLoss="117.27" rerouteNo="0" devices="tripinfo_137244_412_0 routing_137244_412_0" vType="pkw" speedFactor="1.14" vaporized=""/>
    <tripinfo id="136082_411_0" depart="25278.00" departLane="-32038056#3_0" departPos="4.40" departSpeed="0.00" departDelay="1.00" arrival="25444.00" arrivalLane="32038051#0_0" arrivalPos="89.25" arrivalSpeed="19.80" duration="166.00" routeLength="446.95" waitingTime="125.00" waitingCount="1" stopTime="0.00" timeLoss="137.48" rerouteNo="0" devices="tripinfo_136082_411_0 routing_136082_411_0" vType="pkw" speedFactor="1.08" vaporized=""/>
    <tripinfo id="142412_415_0" depart="25307.00" departLane="-32038056#3_0" departPos="4.40" departSpeed="0.00" departDelay="0.00" arrival="25444.00" arrivalLane="-28198821#4_1" arrivalPos="57.10" arrivalSpeed="13.23" duration="137.00" routeLength="437.47" waitingTime="97.00" waitingCount="1" stopTime="0.00" timeLoss="106.74" rerouteNo="0" devices="tripinfo_142412_415_0 routing_142412_415_0" vType="pkw" speedFactor="1.04" vaporized=""/>
    <tripinfo id="85818_390_0" depart="25281.00" departLane="-32038056#3_0" departPos="4.40" departSpeed="0.00" departDelay="1.00" arrival="25446.00" arrivalLane="32038051#0_0" arrivalPos="89.25" arrivalSpeed="18.88" duration="165.00" routeLength="446.95" waitingTime="121.00" waitingCount="1" stopTime="0.00" timeLoss="134.13" rerouteNo="0" devices="tripinfo_85818_390_0 routing_85818_390_0" vType="pkw" speedFactor="1.00" vaporized=""/>
    <tripinfo id="138220_412_0" depart="25309.00" departLane="-32038056#3_0" departPos="4.40" departSpeed="0.00" departDelay="0.00" arrival="25446.00" arrivalLane="-28198821#4_1" arrivalPos="57.10" arrivalSpeed="12.55" duration="137.00" routeLength="437.47" waitingTime="95.00" waitingCount="1" stopTime="0.00" timeLoss="104.75" rerouteNo="0" devices="tripinfo_138220_412_0 routing_138220_412_0" vType="pkw" speedFactor="0.98" vaporized=""/>
    <tripinfo id="86583_391_0" depart="25289.00" departLane="-32038056#3_0" departPos="4.40" departSpeed="0.00" departDelay="0.00" arrival="25498.00" arrivalLane="32038051#0_0" arrivalPos="89.25" arrivalSpeed="17.78" duration="209.00" routeLength="446.95" waitingTime="161.00" waitingCount="2" stopTime="0.00" timeLoss="177.77" rerouteNo="0" devices="tripinfo_86583_391_0 routing_86583_391_0" vType="pkw" speedFactor="0.97" vaporized=""/>
    <tripinfo id="167799_425_0" depart="25327.00" departLane="-32038056#3_0" departPos="4.40" departSpeed="0.00" departDelay="0.00" arrival="25498.00" arrivalLane="-28198821#4_0" arrivalPos="57.10" arrivalSpeed="14.85" duration="171.00" routeLength="437.47" waitingTime="127.00" waitingCount="2" stopTime="0.00" timeLoss="143.30" rerouteNo="0" devices="tripinfo_167799_425_0 routing_167799_425_0" vType="pkw" speedFactor="1.16" vaporized=""/>
    <tripinfo id="130372_409_0" depart="25329.00" departLane="-32038056#3_0" departPos="4.40" departSpeed="0.00" departDelay="2.00" arrival="25501.00" arrivalLane="32324544#0_1" arrivalPos="90.48" arrivalSpeed="17.06" duration="172.00" routeLength="465.51" waitingTime="121.00" waitingCount="2" stopTime="0.00" timeLoss="137.42" rerouteNo="0" devices="tripinfo_130372_409_0 routing_130372_409_0" vType="pkw" speedFactor="0.93" vaporized=""/>
    <tripinfo id="104806_398_0" depart="25332.00" departLane="-32038056#3_0" departPos="4.40" departSpeed="0.00" departDelay="3.00" arrival="25503.00" arrivalLane="32324544#0_1" arrivalPos="90.48" arrivalSpeed="18.35" duration="171.00" routeLength="465.51" waitingTime="118.00" waitingCount="2" stopTime="0.00" timeLoss="137.57" rerouteNo="0" devices="tripinfo_104806_398_0 routing_104806_398_0" vType="pkw" speedFactor="0.96" vaporized=""/>
    <tripinfo id="122376_406_0" depart="25261.00" departLane="23429231#1_0" departPos="4.40" departSpeed="0.00" departDelay="7.00" arrival="25522.00" arrivalLane="32038051#0_1" arrivalPos="89.25" arrivalSpeed="20.48" duration="261.00" routeLength="203.79" waitingTime="234.00" waitingCount="2" stopTime="0.00" timeLoss="250.82" rerouteNo="0" devices="tripinfo_122376_406_0 routing_122376_406_0" vType="pkw" speedFactor="1.08" vaporized=""/>
    <tripinfo id="102630_396_0" depart="25258.00" departLane="23429231#1_0" departPos="4.40" departSpeed="0.00" departDelay="6.00" arrival="25523.00" arrivalLane="32038051#0_0" arrivalPos="89.25" arrivalSpeed="16.16" duration="265.00" routeLength="203.79" waitingTime="235.00" waitingCount="2" stopTime="0.00" timeLoss="252.68" rerouteNo="0" devices="tripinfo_102630_396_0 routing_102630_396_0" vType="pkw" speedFactor="0.88" vaporized=""/>
    <tripinfo id="154290_420_0" depart="25431.00" departLane="27115123#2_0" departPos="4.40" departSpeed="0.00" departDelay="0.00" arrival="25523.00" arrivalLane="32324544#0_1" arrivalPos="90.48" arrivalSpeed="15.66" duration="92.00" routeLength="198.06" waitingTime="70.00" waitingCount="1" stopTime="0.00" timeLoss="80.27" rerouteNo="1" devices="tripinfo_154290_420_0 routing_154290_420_0" vType="pkw" speedFactor="0.87" vaporized=""/>
    <tripinfo id="135103_411_0" depart="25266.00" departLane="23429231#1_0" departPos="4.40" departSpeed="0.00" departDelay="10.00" arrival="25524.00" arrivalLane="32038051#0_1" arrivalPos="89.25" arrivalSpeed="21.31" duration="258.00" routeLength="203.79" waitingTime="227.00" waitingCount="2" stopTime="0.00" timeLoss="248.64" rerouteNo="0" devices="tripinfo_135103_411_0 routing_135103_411_0" vType="pkw" speedFactor="1.18" vaporized=""/>
    <tripinfo id="148629_417_0" depart="25284.00" departLane="27115123#2_0" departPos="4.40" departSpeed="0.00" departDelay="0.00" arrival="25524.00" arrivalLane="32324544#0_0" arrivalPos="90.48" arrivalSpeed="17.31" duration="240.00" routeLength="198.06" waitingTime="217.00" waitingCount="1" stopTime="0.00" timeLoss="229.18" rerouteNo="1" devices="tripinfo_148629_417_0 routing_148629_417_0" vType="pkw" speedFactor="1.02" vaporized=""/>
    <tripinfo id="122194_406_0" depart="25263.00" departLane="23429231#1_0" departPos="4.40" departSpeed="0.00" departDelay="8.00" arrival="25525.00" arrivalLane="32038051#0_0" arrivalPos="89.25" arrivalSpeed="20.78" duration="262.00" routeLength="203.79" waitingTime="231.00" waitingCount="2" stopTime="0.00" timeLoss="251.41" rerouteNo="0" devices="tripinfo_122194_406_0 routing_122194_406_0" vType="pkw" speedFactor="1.07" vaporized=""/>
    <tripinfo id="129330_408_0" depart="25433.00" departLane="27115123#2_0" departPos="4.40" departSpeed="0.00" departDelay="1.00" arrival="25525.00" arrivalLane="32324544#0_0" arrivalPos="90.48" arrivalSpeed="18.75" duration="92.00" routeLength="198.06" waitingTime="68.00" waitingCount="1" stopTime="0.00" timeLoss="82.48" rerouteNo="1" devices="tripinfo_129330_408_0 routing_129330_408_0" vType="pkw" speedFactor="1.09" vaporized=""/>
    <tripinfo id="125613_406_0" depart="25271.00" departLane="23429231#1_0" departPos="4.40" departSpeed="0.00" departDelay="13.00" arrival="25526.00" arrivalLane="32038051#0_1" arrivalPos="89.25" arrivalSpeed="16.66" duration="255.00" routeLength="203.79" waitingTime="224.00" waitingCount="2" stopTime="0.00" timeLoss="243.08" rerouteNo="0" devices="tripinfo_125613_406_0 routing_125613_406_0" vType="pkw" speedFactor="0.91" vaporized=""/>
    <tripinfo id="152958_419_0" depart="25269.00" departLane="23429231#1_0" departPos="4.40" departSpeed="0.00" departDelay="12.00" arrival="25527.00" arrivalLane="32038051#0_0" arrivalPos="89.25" arrivalSpeed="18.97" duration="258.00" routeLength="203.79" waitingTime="229.00" waitingCount="2" stopTime="0.00" timeLoss="247.12" rerouteNo="0" devices="tripinfo_152958_419_0 routing_152958_419_0" vType="pkw" speedFactor="1.03" vaporized=""/>
    <tripinfo id="153635_420_0" depart="25460.00" departLane="27115123#2_0" departPos="4.40" departSpeed="0.00" departDelay="0.00" arrival="25527.00" arrivalLane="32324544#0_0" arrivalPos="90.48" arrivalSpeed="17.92" duration="67.00" routeLength="198.06" waitingTime="42.00" waitingCount="1" stopTime="0.00" timeLoss="56.92" rerouteNo="1" devices="tripinfo_153635_420_0 routing_153635_420_0" vType="pkw" speedFactor="1.07" vaporized=""/>
    <tripinfo id="145855_416_0" depart="25469.00" departLane="27115123#2_0" departPos="4.40" departSpeed="0.00" departDelay="0.00" arrival="25527.00" arrivalLane="32324544#0_1" arrivalPos="90.48" arrivalSpeed="17.74" duration="58.00" routeLength="198.06" waitingTime="35.00" waitingCount="1" stopTime="0.00" timeLoss="46.46" rerouteNo="1" devices="tripinfo_145855_416_0 routing_145855_416_0" vType="pkw" speedFactor="0.94" vaporized=""/>
    <tripinfo id="133955_411_0" depart="25274.00" departLane="23429231#1_0" departPos="4.40" departSpeed="0.00" departDelay="15.00" arrival="25528.00" arrivalLane="32038051#0_0" arrivalPos="89.25" arrivalSpeed="18.44" duration="254.00" routeLength="203.79" waitingTime="221.00" waitingCount="2" stopTime="0.00" timeLoss="244.80" rerouteNo="0" devices="tripinfo_133955_411_0 routing_133955_411_0" vType="pkw" speedFactor="1.16" vaporized=""/>
    <tripinfo id="129253_408_0" depart="25276.00" departLane="23429231#1_0" departPos="4.40" departSpeed="0.00" departDelay="16.00" arrival="25528.00" arrivalLane="32038051#0_1" arrivalPos="89.25" arrivalSpeed="16.35" duration="252.00" routeLength="203.79" waitingTime="217.00" waitingCount="1" stopTime="0.00" timeLoss="239.27" rerouteNo="0" devices="tripinfo_129253_408_0 routing_129253_408_0" vType="pkw" speedFactor="0.85" vaporized=""/>
    <tripinfo id="164382_422_0" depart="25469.00" departLane="130165204_0" departPos="4.40" departSpeed="0.00" departDelay="0.00" arrival="25528.00" arrivalLane="32324544#0_1" arrivalPos="90.48" arrivalSpeed="19.37" duration="59.00" routeLength="411.68" waitingTime="17.00" waitingCount="1" stopTime="0.00" timeLoss="33.52" rerouteNo="1" devices="tripinfo_164382_422_0 routing_164382_422_0" vType="pkw" speedFactor="1.04" vaporized=""/>
    <tripinfo id="161689_421_0" depart="25467.00" departLane="130165204_0" departPos="4.40" departSpeed="0.00" departDelay="0.00" arrival="25529.00" arrivalLane="32324544#0_0" arrivalPos="90.48" arrivalSpeed="20.56" duration="62.00" routeLength="411.68" waitingTime="21.00" waitingCount="1" stopTime="0.00" timeLoss="36.82" rerouteNo="1" devices="tripinfo_161689_421_0 routing_161689_421_0" vType="pkw" speedFactor="1.06" vaporized=""/>
    <tripinfo id="120275_405_0" depart="25280.00" departLane="23429231#1_0" departPos="4.40" departSpeed="0.00" departDelay="19.00" arrival="25531.00" arrivalLane="32038051#0_0" arrivalPos="89.25" arrivalSpeed="13.86" duration="251.00" routeLength="203.79" waitingTime="218.00" waitingCount="1" stopTime="0.00" timeLoss="236.32" rerouteNo="0" devices="tripinfo_120275_405_0 routing_120275_405_0" vType="pkw" speedFactor="0.74" vaporized=""/>
    <tripinfo id="86189_391_0" depart="25287.00" departLane="23429231#1_0" departPos="4.40" departSpeed="0.00" departDelay="22.00" arrival="25531.00" arrivalLane="32038051#0_1" arrivalPos="89.25" arrivalSpeed="20.71" duration="244.00" routeLength="203.79" waitingTime="217.00" waitingCount="1" stopTime="0.00" timeLoss="233.89" rerouteNo="0" devices="tripinfo_86189_391_0 routing_86189_391_0" vType="pkw" speedFactor="1.11" vaporized=""/>
    <tripinfo id="100928_396_0" depart="25472.00" departLane="130165204_0" departPos="4.40" departSpeed="0.00" departDelay="0.00" arrival="25531.00" arrivalLane="32324544#0_0" arrivalPos="90.48" arrivalSpeed="17.40" duration="59.00" routeLength="411.68" waitingTime="15.00" waitingCount="1" stopTime="0.00" timeLoss="34.40" rerouteNo="1" devices="tripinfo_100928_396_0 routing_100928_396_0" vType="pkw" speedFactor="1.09" vaporized=""/>
    <tripinfo id="159287_421_0" depart="25503.00" departLane="27115123#2_0" departPos="4.40" departSpeed="0.00" departDelay="0.00" arrival="25531.00" arrivalLane="32324544#0_1" arrivalPos="90.48" arrivalSpeed="17.09" duration="28.00" routeLength="198.06" waitingTime="0.00" waitingCount="0" stopTime="0.00" timeLoss="15.46" rerouteNo="1" devices="tripinfo_159287_421_0 routing_159287_421_0" vType="pkw" speedFactor="0.88" vaporized=""/>
    <tripinfo id="135201_411_0" depart="25284.00" departLane="23429231#1_0" departPos="4.40" departSpeed="0.00" departDelay="20.00" arrival="25532.00" arrivalLane="32038051#0_0" arrivalPos="89.25" arrivalSpeed="16.51" duration="248.00" routeLength="203.79" waitingTime="217.00" waitingCount="1" stopTime="0.00" timeLoss="236.76" rerouteNo="0" devices="tripinfo_135201_411_0 routing_135201_411_0" vType="pkw" speedFactor="0.94" vaporized=""/>
    <tripinfo id="95692_394_0" depart="25510.00" departLane="27115123#2_0" departPos="4.40" departSpeed="0.00" departDelay="0.00" arrival="25532.00" arrivalLane="32324544#0_1" arrivalPos="90.48" arrivalSpeed="16.62" duration="22.00" routeLength="198.06" waitingTime="0.00" waitingCount="0" stopTime="0.00" timeLoss="9.79" rerouteNo="1" devices="tripinfo_95692_394_0 routing_95692_394_0" vType="pkw" speedFactor="0.87" vaporized=""/>
    <tripinfo id="129519_408_0" depart="25292.00" departLane="23429231#1_0" departPos="4.40" departSpeed="0.00" departDelay="25.00" arrival="25533.00" arrivalLane="32038051#0_1" arrivalPos="89.25" arrivalSpeed="17.78" duration="241.00" routeLength="203.79" waitingTime="215.00" waitingCount="1" stopTime="0.00" timeLoss="229.23" rerouteNo="0" devices="tripinfo_129519_408_0 routing_129519_408_0" vType="pkw" speedFactor="0.95" vaporized=""/>
    <tripinfo id="154948_420_0" depart="25506.00" departLane="27115123#2_0" departPos="4.40" departSpeed="0.00" departDelay="2.00" arrival="25533.00" arrivalLane="32324544#0_0" arrivalPos="90.48" arrivalSpeed="18.21" duration="27.00" routeLength="198.06" waitingTime="2.00" waitingCount="1" stopTime="0.00" timeLoss="16.28" rerouteNo="1" devices="tripinfo_154948_420_0 routing_154948_420_0" vType="pkw" speedFactor="1.03" vaporized=""/>
    <tripinfo id="57065_374_0" depart="25289.00" departLane="23429231#1_0" departPos="4.40" departSpeed="0.00" departDelay="23.00" arrival="25534.00" arrivalLane="32038051#0_0" arrivalPos="89.25" arrivalSpeed="14.91" duration="245.00" routeLength="203.79" waitingTime="217.00" waitingCount="2" stopTime="0.00" timeLoss="231.73" rerouteNo="0" devices="tripinfo_57065_374_0 routing_57065_374_0" vType="pkw" speedFactor="0.82" vaporized=""/>
    <tripinfo id="136204_411_0" depart="25298.00" departLane="23429231#1_0" departPos="4.40" departSpeed="0.00" departDelay="29.00" arrival="25534.00" arrivalLane="32038051#0_1" arrivalPos="89.25" arrivalSpeed="18.35" duration="236.00" routeLength="203.79" waitingTime="212.00" waitingCount="1" stopTime="0.00" timeLoss="224.71" rerouteNo="0" devices="tripinfo_136204_411_0 routing_136204_411_0" vType="pkw" speedFactor="0.95" vaporized=""/>
    <tripinfo id="160712_421_0" depart="25514.00" departLane="27115123#2_0" departPos="4.40" departSpeed="0.00" departDelay="0.00" arrival="25535.00" arrivalLane="32324544#0_0" arrivalPos="90.48" arrivalSpeed="16.45" duration="21.00" routeLength="198.06" waitingTime="0.00" waitingCount="0" stopTime="0.00" timeLoss="8.23" rerouteNo="1" devices="tripinfo_160712_421_0 routing_160712_421_0" vType="pkw" speedFactor="0.86" vaporized=""/>
    <tripinfo id="82015_389_0" depart="25295.00" departLane="23429231#1_0" departPos="4.40" departSpeed="0.00" departDelay="27.00" arrival="25536.00" arrivalLane="32038051#0_0" arrivalPos="89.25" arrivalSpeed="15.35" duration="241.00" routeLength="203.79" waitingTime="214.00" waitingCount="1" stopTime="0.00" timeLoss="227.20" rerouteNo="0" devices="tripinfo_82015_389_0 routing_82015_389_0" vType="pkw" speedFactor="0.81" vaporized=""/>
    <tripinfo id="146814_416_0" depart="25303.00" departLane="23429231#1_0" departPos="4.40" departSpeed="0.00" departDelay="32.00" arrival="25536.00" arrivalLane="32038051#0_1" arrivalPos="89.25" arrivalSpeed="19.99" duration="233.00" routeLength="203.79" waitingTime="208.00" waitingCount="1" stopTime="0.00" timeLoss="223.11" rerouteNo="0" devices="tripinfo_146814_416_0 routing_146814_416_0" vType="pkw" speedFactor="1.15" vaporized=""/>
    <tripinfo id="175864_428_0" depart="25490.00" departLane="130165204_0" departPos="4.40" departSpeed="0.00" departDelay="0.00" arrival="25536.00" arrivalLane="32324544#0_0" arrivalPos="90.48" arrivalSpeed="17.83" duration="46.00" routeLength="411.68" waitingTime="11.00" waitingCount="1" stopTime="0.00" timeLoss="24.02" rerouteNo="1" devices="tripinfo_175864_428_0 routing_175864_428_0" vType="pkw" speedFactor="1.22" vaporized=""/>
    <tripinfo id="135431_411_0" depart="25300.00" departLane="23429231#1_0" departPos="4.40" departSpeed="0.00" departDelay="31.00" arrival="25537.00" arrivalLane="32038051#0_0" arrivalPos="89.25" arrivalSpeed="17.31" duration="237.00" routeLength="203.79" waitingTime="211.00" waitingCount="1" stopTime="0.00" timeLoss="224.97" rerouteNo="0" devices="tripinfo_135431_411_0 routing_135431_411_0" vType="pkw" speedFactor="0.90" vaporized=""/>
    <tripinfo id="159698_421_0" depart="25493.00" departLane="130165204_0" departPos="4.40" departSpeed="0.00" departDelay="0.00" arrival="25537.00" arrivalLane="32324544#0_0" arrivalPos="90.48" arrivalSpeed="18.23" duration="44.00" routeLength="411.68" waitingTime="5.00" waitingCount="1" stopTime="0.00" timeLoss="18.09" rerouteNo="1" devices="tripinfo_159698_421_0 routing_159698_421_0" vType="pkw" speedFactor="1.02" vaporized=""/>