<?xml version="1.0" encoding="UTF-8"?>

<!-- generated on 2023-08-31 13:18:27 by Eclipse SUMO libsumo Version 1.18.0
<configuration xmlns:xsi="http://www.w3.org/2001/XMLSchema-instance" xsi:noNamespaceSchemaLocation="http://sumo.dlr.de/xsd/libsumoConfiguration.xsd">

    <input>
        <net-file value="/home/stefan/RESCO/./environments/cologne1/cologne1.net.xml"/>
        <route-files value="/home/stefan/RESCO/./environments/cologne1/cologne1.rou.xml"/>
    </input>

    <output>
        <tripinfo-output value="/home/stefan/results/RAINBOW-tr0-cologne1-0-drq_norm-wait_norm/tripinfo_70.xml"/>
        <tripinfo-output.write-unfinished value="true"/>
    </output>

    <time>
        <begin value="25200"/>
        <end value="28800"/>
    </time>

    <processing>
        <time-to-teleport value="-1"/>
    </processing>

    <report>
        <no-warnings value="True"/>
        <no-step-log value="True"/>
    </report>

    <random_number>
        <random value="true"/>
    </random_number>

</configuration>
-->

<tripinfos xmlns:xsi="http://www.w3.org/2001/XMLSchema-instance" xsi:noNamespaceSchemaLocation="http://sumo.dlr.de/xsd/tripinfo_file.xsd">
    <tripinfo id="124779_406_0" depart="25205.00" departLane="28198821#3_0" departPos="4.40" departSpeed="0.00" departDelay="0.00" arrival="25220.00" arrivalLane="32038051#0_1" arrivalPos="89.25" arrivalSpeed="20.96" duration="15.00" routeLength="170.57" waitingTime="0.00" waitingCount="0" stopTime="0.00" timeLoss="5.97" rerouteNo="0" devices="tripinfo_124779_406_0 routing_124779_406_0" vType="pkw" speedFactor="1.14" vaporized=""/>
    <tripinfo id="98305_395_0" depart="25211.00" departLane="28198821#3_0" departPos="4.40" departSpeed="0.00" departDelay="0.00" arrival="25227.00" arrivalLane="32038051#0_1" arrivalPos="89.25" arrivalSpeed="17.60" duration="16.00" routeLength="170.57" waitingTime="0.00" waitingCount="0" stopTime="0.00" timeLoss="5.43" rerouteNo="0" devices="tripinfo_98305_395_0 routing_98305_395_0" vType="pkw" speedFactor="0.94" vaporized=""/>
    <tripinfo id="102535_396_0" depart="25218.00" departLane="28198821#3_0" departPos="4.40" departSpeed="0.00" departDelay="0.00" arrival="25231.00" arrivalLane="32038051#0_1" arrivalPos="89.25" arrivalSpeed="22.69" duration="13.00" routeLength="170.57" waitingTime="0.00" waitingCount="0" stopTime="0.00" timeLoss="4.09" rerouteNo="0" devices="tripinfo_102535_396_0 routing_102535_396_0" vType="pkw" speedFactor="1.21" vaporized=""/>
    <tripinfo id="147209_416_0" depart="25220.00" departLane="28198821#3_0" departPos="4.40" departSpeed="0.00" departDelay="0.00" arrival="25234.00" arrivalLane="32038051#0_1" arrivalPos="89.25" arrivalSpeed="19.10" duration="14.00" routeLength="170.57" waitingTime="0.00" waitingCount="0" stopTime="0.00" timeLoss="3.90" rerouteNo="0" devices="tripinfo_147209_416_0 routing_147209_416_0" vType="pkw" speedFactor="1.03" vaporized=""/>
    <tripinfo id="151372_418_0" depart="25207.00" departLane="130165204_0" departPos="4.40" departSpeed="0.00" departDelay="0.00" arrival="25249.00" arrivalLane="32038051#0_1" arrivalPos="89.25" arrivalSpeed="17.90" duration="42.00" routeLength="410.03" waitingTime="2.00" waitingCount="1" stopTime="0.00" timeLoss="14.84" rerouteNo="1" devices="tripinfo_151372_418_0 routing_151372_418_0" vType="pkw" speedFactor="0.98" vaporized=""/>
    <tripinfo id="149029_417_0" depart="25236.00" departLane="27115123#2_0" departPos="4.40" departSpeed="0.00" departDelay="0.00" arrival="25251.00" arrivalLane="32038051#0_1" arrivalPos="89.25" arrivalSpeed="21.90" duration="15.00" routeLength="196.41" waitingTime="0.00" waitingCount="0" stopTime="0.00" timeLoss="6.02" rerouteNo="1" devices="tripinfo_149029_417_0 routing_149029_417_0" vType="pkw" speedFactor="1.13" vaporized=""/>
    <tripinfo id="123965_406_0" depart="25218.00" departLane="-32038056#3_0" departPos="4.40" departSpeed="0.00" departDelay="0.00" arrival="25258.00" arrivalLane="-28198821#4_0" arrivalPos="57.10" arrivalSpeed="13.08" duration="40.00" routeLength="437.47" waitingTime="0.00" waitingCount="0" stopTime="0.00" timeLoss="8.58" rerouteNo="0" devices="tripinfo_123965_406_0 routing_123965_406_0" vType="pkw" speedFactor="1.03" vaporized=""/>
    <tripinfo id="91582_392_0" depart="25221.00" departLane="-32038056#3_0" departPos="4.40" departSpeed="0.00" departDelay="3.00" arrival="25260.00" arrivalLane="32324544#0_1" arrivalPos="90.48" arrivalSpeed="16.78" duration="39.00" routeLength="465.51" waitingTime="0.00" waitingCount="0" stopTime="0.00" timeLoss="5.13" rerouteNo="0" devices="tripinfo_91582_392_0 routing_91582_392_0" vType="pkw" speedFactor="0.93" vaporized=""/>
    <tripinfo id="115444_403_0" depart="25294.00" departLane="28198821#3_0" departPos="4.40" departSpeed="0.00" departDelay="0.00" arrival="25311.00" arrivalLane="32038051#0_1" arrivalPos="89.25" arrivalSpeed="22.21" duration="17.00" routeLength="170.57" waitingTime="0.00" waitingCount="0" stopTime="0.00" timeLoss="7.64" rerouteNo="0" devices="tripinfo_115444_403_0 routing_115444_403_0" vType="pkw" speedFactor="1.15" vaporized=""/>
    <tripinfo id="103540_397_0" depart="25300.00" departLane="28198821#3_0" departPos="4.40" departSpeed="0.00" departDelay="0.00" arrival="25313.00" arrivalLane="32038051#0_1" arrivalPos="89.25" arrivalSpeed="19.29" duration="13.00" routeLength="170.57" waitingTime="0.00" waitingCount="0" stopTime="0.00" timeLoss="3.54" rerouteNo="0" devices="tripinfo_103540_397_0 routing_103540_397_0" vType="pkw" speedFactor="1.06" vaporized=""/>
    <tripinfo id="162096_421_0" depart="25306.00" departLane="130165204_0" departPos="4.40" departSpeed="0.00" departDelay="0.00" arrival="25349.00" arrivalLane="32038051#0_1" arrivalPos="89.25" arrivalSpeed="20.40" duration="43.00" routeLength="410.03" waitingTime="2.00" waitingCount="1" stopTime="0.00" timeLoss="17.58" rerouteNo="1" devices="tripinfo_162096_421_0 routing_162096_421_0" vType="pkw" speedFactor="1.07" vaporized=""/>
    <tripinfo id="175147_428_0" depart="25324.00" departLane="130165204_0" departPos="4.40" departSpeed="0.00" departDelay="0.00" arrival="25360.00" arrivalLane="32038051#0_1" arrivalPos="89.25" arrivalSpeed="18.16" duration="36.00" routeLength="410.03" waitingTime="0.00" waitingCount="0" stopTime="0.00" timeLoss="8.12" rerouteNo="1" devices="tripinfo_175147_428_0 routing_175147_428_0" vType="pkw" speedFactor="0.95" vaporized=""/>
    <tripinfo id="161721_421_0" depart="25337.00" departLane="130165204_0" departPos="4.40" departSpeed="0.00" departDelay="0.00" arrival="25379.00" arrivalLane="32038051#0_1" arrivalPos="89.25" arrivalSpeed="19.12" duration="42.00" routeLength="410.03" waitingTime="1.00" waitingCount="1" stopTime="0.00" timeLoss="16.08" rerouteNo="1" devices="tripinfo_161721_421_0 routing_161721_421_0" vType="pkw" speedFactor="1.03" vaporized=""/>
    <tripinfo id="160150_421_0" depart="25224.00" departLane="-32038056#3_0" departPos="4.40" departSpeed="0.00" departDelay="5.00" arrival="25459.00" arrivalLane="32038051#0_0" arrivalPos="89.25" arrivalSpeed="19.48" duration="235.00" routeLength="446.95" waitingTime="192.00" waitingCount="1" stopTime="0.00" timeLoss="205.43" rerouteNo="0" devices="tripinfo_160150_421_0 routing_160150_421_0" vType="pkw" speedFactor="1.05" vaporized=""/>
    <tripinfo id="130602_409_0" depart="25268.00" departLane="-32038056#3_0" departPos="4.40" departSpeed="0.00" departDelay="0.00" arrival="25459.00" arrivalLane="-28198821#4_1" arrivalPos="57.10" arrivalSpeed="13.07" duration="191.00" routeLength="437.47" waitingTime="148.00" waitingCount="1" stopTime="0.00" timeLoss="159.61" rerouteNo="0" devices="tripinfo_130602_409_0 routing_130602_409_0" vType="pkw" speedFactor="1.03" vaporized=""/>
    <tripinfo id="128446_408_0" depart="25273.00" departLane="-32038056#3_0" departPos="4.40" departSpeed="0.00" departDelay="0.00" arrival="25462.00" arrivalLane="32324544#0_1" arrivalPos="90.48" arrivalSpeed="15.97" duration="189.00" routeLength="465.51" waitingTime="141.00" waitingCount="1" stopTime="0.00" timeLoss="153.02" rerouteNo="0" devices="tripinfo_128446_408_0 routing_128446_408_0" vType="pkw" speedFactor="0.88" vaporized=""/>
    <tripinfo id="83516_390_0" depart="25275.00" departLane="-32038056#3_0" departPos="4.40" departSpeed="0.00" departDelay="0.00" arrival="25463.00" arrivalLane="32324544#0_1" arrivalPos="90.48" arrivalSpeed="18.71" duration="188.00" routeLength="465.51" waitingTime="139.00" waitingCount="1" stopTime="0.00" timeLoss="156.76" rerouteNo="0" devices="tripinfo_83516_390_0 routing_83516_390_0" vType="pkw" speedFactor="1.01" vaporized=""/>
    <tripinfo id="113303_402_0" depart="25283.00" departLane="-32038056#3_0" departPos="4.40" departSpeed="0.00" departDelay="0.00" arrival="25465.00" arrivalLane="32324544#0_1" arrivalPos="90.48" arrivalSpeed="16.58" duration="182.00" routeLength="465.51" waitingTime="134.00" waitingCount="2" stopTime="0.00" timeLoss="145.26" rerouteNo="0" devices="tripinfo_113303_402_0 routing_113303_402_0" vType="pkw" speedFactor="0.86" vaporized=""/>
    <tripinfo id="162814_422_0" depart="25233.00" departLane="-32038056#3_0" departPos="4.40" departSpeed="0.00" departDelay="0.00" arrival="25538.00" arrivalLane="32038051#0_0" arrivalPos="89.25" arrivalSpeed="20.14" duration="305.00" routeLength="446.95" waitingTime="259.00" waitingCount="2" stopTime="0.00" timeLoss="276.81" rerouteNo="0" devices="tripinfo_162814_422_0 routing_162814_422_0" vType="pkw" speedFactor="1.09" vaporized=""/>
    <tripinfo id="137244_412_0" depart="25297.00" departLane="-32038056#3_0" departPos="4.40" departSpeed="0.00" departDelay="3.00" arrival="25539.00" arrivalLane="-28198821#4_0" arrivalPos="57.10" arrivalSpeed="10.52" duration="242.00" routeLength="437.47" waitingTime="185.00" waitingCount="2" stopTime="0.00" timeLoss="202.87" rerouteNo="0" devices="tripinfo_137244_412_0 routing_137244_412_0" vType="pkw" speedFactor="0.81" vaporized=""/>
    <tripinfo id="121258_405_0" depart="25240.00" departLane="23429231#1_0" departPos="4.40" departSpeed="0.00" departDelay="0.00" arrival="25563.00" arrivalLane="32038051#0_0" arrivalPos="89.25" arrivalSpeed="18.60" duration="323.00" routeLength="203.79" waitingTime="300.00" waitingCount="1" stopTime="0.00" timeLoss="312.02" rerouteNo="0" devices="tripinfo_121258_405_0 routing_121258_405_0" vType="pkw" speedFactor="1.01" vaporized=""/>
    <tripinfo id="126742_407_0" depart="25243.00" departLane="23429231#1_0" departPos="4.40" departSpeed="0.00" departDelay="3.00" arrival="25563.00" arrivalLane="32038051#0_1" arrivalPos="89.25" arrivalSpeed="20.42" duration="320.00" routeLength="203.79" waitingTime="296.00" waitingCount="1" stopTime="0.00" timeLoss="310.62" rerouteNo="0" devices="tripinfo_126742_407_0 routing_126742_407_0" vType="pkw" speedFactor="1.14" vaporized=""/>
    <tripinfo id="148629_417_0" depart="25284.00" departLane="27115123#2_0" departPos="4.40" departSpeed="0.00" departDelay="0.00" arrival="25564.00" arrivalLane="32324544#0_0" arrivalPos="90.48" arrivalSpeed="16.57" duration="280.00" routeLength="198.06" waitingTime="258.00" waitingCount="1" stopTime="0.00" timeLoss="268.05" rerouteNo="1" devices="tripinfo_148629_417_0 routing_148629_417_0" vType="pkw" speedFactor="0.92" vaporized=""/>
    <tripinfo id="154290_420_0" depart="25431.00" departLane="27115123#2_0" departPos="4.40" departSpeed="0.00" departDelay="0.00" arrival="25564.00" arrivalLane="32324544#0_1" arrivalPos="90.48" arrivalSpeed="19.49" duration="133.00" routeLength="198.06" waitingTime="108.00" waitingCount="1" stopTime="0.00" timeLoss="122.48" rerouteNo="1" devices="tripinfo_154290_420_0 routing_154290_420_0" vType="pkw" speedFactor="1.06" vaporized=""/>
    <tripinfo id="102501_396_0" depart="25246.00" departLane="23429231#1_0" departPos="4.40" departSpeed="0.00" departDelay="2.00" arrival="25565.00" arrivalLane="32038051#0_0" arrivalPos="89.25" arrivalSpeed="17.80" duration="319.00" routeLength="203.79" waitingTime="295.00" waitingCount="1" stopTime="0.00" timeLoss="307.08" rerouteNo="0" devices="tripinfo_102501_396_0 routing_102501_396_0" vType="pkw" speedFactor="0.92" vaporized=""/>
    <tripinfo id="120663_405_0" depart="25249.00" departLane="23429231#1_0" departPos="4.40" departSpeed="0.00" departDelay="3.00" arrival="25565.00" arrivalLane="32038051#0_1" arrivalPos="89.25" arrivalSpeed="17.56" duration="316.00" routeLength="203.79" waitingTime="292.00" waitingCount="1" stopTime="0.00" timeLoss="304.95" rerouteNo="0" devices="tripinfo_120663_405_0 routing_120663_405_0" vType="pkw" speedFactor="0.95" vaporized=""/>
    <tripinfo id="130147_409_0" depart="25254.00" departLane="23429231#1_0" departPos="4.40" departSpeed="0.00" departDelay="3.00" arrival="25566.00" arrivalLane="32038051#0_0" arrivalPos="89.25" arrivalSpeed="18.10" duration="312.00" routeLength="203.79" waitingTime="289.00" waitingCount="1" stopTime="0.00" timeLoss="301.32" rerouteNo="0" devices="tripinfo_130147_409_0 routing_130147_409_0" vType="pkw" speedFactor="0.99" vaporized=""/>
    <tripinfo id="129330_408_0" depart="25433.00" departLane="27115123#2_0" departPos="4.40" departSpeed="0.00" departDelay="1.00" arrival="25566.00" arrivalLane="32324544#0_0" arrivalPos="90.48" arrivalSpeed="20.18" duration="133.00" routeLength="198.06" waitingTime="107.00" waitingCount="1" stopTime="0.00" timeLoss="122.67" rerouteNo="1" devices="tripinfo_129330_408_0 routing_129330_408_0" vType="pkw" speedFactor="1.06" vaporized=""/>
    <tripinfo id="153635_420_0" depart="25460.00" departLane="27115123#2_0" departPos="4.40" departSpeed="0.00" departDelay="0.00" arrival="25567.00" arrivalLane="32324544#0_0" arrivalPos="90.48" arrivalSpeed="18.26" duration="107.00" routeLength="198.06" waitingTime="84.00" waitingCount="1" stopTime="0.00" timeLoss="98.03" rerouteNo="1" devices="tripinfo_153635_420_0 routing_153635_420_0" vType="pkw" speedFactor="1.14" vaporized=""/>
    <tripinfo id="145855_416_0" depart="25469.00" departLane="27115123#2_0" departPos="4.40" departSpeed="0.00" departDelay="0.00" arrival="25567.00" arrivalLane="32324544#0_1" arrivalPos="90.48" arrivalSpeed="18.64" duration="98.00" routeLength="198.06" waitingTime="73.00" waitingCount="1" stopTime="0.00" timeLoss="86.77" rerouteNo="1" devices="tripinfo_145855_416_0 routing_145855_416_0" vType="pkw" speedFactor="0.96" vaporized=""/>
    <tripinfo id="113509_402_0" depart="25251.00" departLane="23429231#1_0" departPos="4.40" departSpeed="0.00" departDelay="3.00" arrival="25568.00" arrivalLane="-28198821#4_1" arrivalPos="57.10" arrivalSpeed="14.85" duration="317.00" routeLength="179.90" waitingTime="289.00" waitingCount="1" stopTime="0.00" timeLoss="306.73" rerouteNo="0" devices="tripinfo_113509_402_0 routing_113509_402_0" vType="pkw" speedFactor="1.12" vaporized=""/>
    <tripinfo id="137320_412_0" depart="25414.00" departLane="130165204_0" departPos="4.40" departSpeed="0.00" departDelay="0.00" arrival="25570.00" arrivalLane="32038051#0_1" arrivalPos="89.25" arrivalSpeed="19.60" duration="156.00" routeLength="410.03" waitingTime="107.00" waitingCount="2" stopTime="0.00" timeLoss="131.63" rerouteNo="1" devices="tripinfo_137320_412_0 routing_137320_412_0" vType="pkw" speedFactor="1.10" vaporized=""/>
    <tripinfo id="136669_411_0" depart="25566.00" departLane="28198821#3_0" departPos="4.40" departSpeed="0.00" departDelay="0.00" arrival="25581.00" arrivalLane="32038051#0_1" arrivalPos="89.25" arrivalSpeed="16.94" duration="15.00" routeLength="170.57" waitingTime="0.00" waitingCount="0" stopTime="0.00" timeLoss="3.12" rerouteNo="0" devices="tripinfo_136669_411_0 routing_136669_411_0" vType="pkw" speedFactor="0.88" vaporized=""/>
    <tripinfo id="102630_396_0" depart="25256.00" departLane="23429231#1_0" departPos="4.40" departSpeed="0.00" departDelay="4.00" arrival="25943.00" arrivalLane="32038051#0_0" arrivalPos="89.25" arrivalSpeed="19.96" duration="687.00" routeLength="203.79" waitingTime="657.00" waitingCount="2" stopTime="0.00" timeLoss="677.07" rerouteNo="0" devices="tripinfo_102630_396_0 routing_102630_396_0" vType="pkw" speedFactor="1.12" vaporized=""/>
    <tripinfo id="122376_406_0" depart="25259.00" departLane="23429231#1_0" departPos="4.40" departSpeed="0.00" departDelay="5.00" arrival="25943.00" arrivalLane="32038051#0_1" arrivalPos="89.25" arrivalSpeed="18.08" duration="684.00" routeLength="203.79" waitingTime="652.00" waitingCount="2" stopTime="0.00" timeLoss="672.73" rerouteNo="0" devices="tripinfo_122376_406_0 routing_122376_406_0" vType="pkw" speedFactor="0.95" vaporized=""/>
    <tripinfo id="161689_421_0" depart="25467.00" departLane="130165204_0" departPos="4.40" departSpeed="0.00" departDelay="0.00" arrival="25943.00" arrivalLane="32324544#0_0" arrivalPos="90.48" arrivalSpeed="18.69" duration="476.00" routeLength="411.68" waitingTime="428.00" waitingCount="2" stopTime="0.00" timeLoss="448.64" rerouteNo="1" devices="tripinfo_161689_421_0 routing_161689_421_0" vType="pkw" speedFactor="0.97" vaporized=""/>
    <tripinfo id="164382_422_0" depart="25469.00" departLane="130165204_0" departPos="4.40" departSpeed="0.00" departDelay="0.00" arrival="25943.00" arrivalLane="32324544#0_1" arrivalPos="90.48" arrivalSpeed="16.68" duration="474.00" routeLength="411.68" waitingTime="426.00" waitingCount="2" stopTime="0.00" timeLoss="444.68" rerouteNo="1" devices="tripinfo_164382_422_0 routing_164382_422_0" vType="pkw" speedFactor="0.91" vaporized=""/>
    <tripinfo id="122194_406_0" depart="25262.00" departLane="23429231#1_0" departPos="4.40" departSpeed="0.00" departDelay="7.00" arrival="25944.00" arrivalLane="32038051#0_0" arrivalPos="89.25" arrivalSpeed="19.32" duration="682.00" routeLength="203.79" waitingTime="652.00" waitingCount="2" stopTime="0.00" timeLoss="672.53" rerouteNo="0" devices="tripinfo_122194_406_0 routing_122194_406_0" vType="pkw" speedFactor="1.11" vaporized=""/>
    <tripinfo id="135103_411_0" depart="25265.00" departLane="23429231#1_0" departPos="4.40" departSpeed="0.00" departDelay="9.00" arrival="25945.00" arrivalLane="32038051#0_1" arrivalPos="89.25" arrivalSpeed="15.92" duration="680.00" routeLength="203.79" waitingTime="648.00" waitingCount="2" stopTime="0.00" timeLoss="667.68" rerouteNo="0" devices="tripinfo_135103_411_0 routing_135103_411_0" vType="pkw" speedFactor="0.88" vaporized=""/>
    <tripinfo id="100928_396_0" depart="25472.00" departLane="130165204_0" departPos="4.40" departSpeed="0.00" departDelay="0.00" arrival="25945.00" arrivalLane="32324544#0_0" arrivalPos="90.48" arrivalSpeed="18.89" duration="473.00" routeLength="411.68" waitingTime="425.00" waitingCount="2" stopTime="0.00" timeLoss="449.69" rerouteNo="1" devices="tripinfo_100928_396_0 routing_100928_396_0" vType="pkw" speedFactor="1.14" vaporized=""/>
    <tripinfo id="159287_421_0" depart="25503.00" departLane="27115123#2_0" departPos="4.40" departSpeed="0.00" departDelay="0.00" arrival="25945.00" arrivalLane="32324544#0_1" arrivalPos="90.48" arrivalSpeed="18.84" duration="442.00" routeLength="198.06" waitingTime="412.00" waitingCount="2" stopTime="0.00" timeLoss="431.19" rerouteNo="1" devices="tripinfo_159287_421_0 routing_159287_421_0" vType="pkw" speedFactor="1.02" vaporized=""/>
    <tripinfo id="152958_419_0" depart="25268.00" departLane="23429231#1_0" departPos="4.40" departSpeed="0.00" departDelay="11.00" arrival="25946.00" arrivalLane="32038051#0_0" arrivalPos="89.25" arrivalSpeed="15.86" duration="678.00" routeLength="203.79" waitingTime="649.00" waitingCount="2" stopTime="0.00" timeLoss="665.87" rerouteNo="0" devices="tripinfo_152958_419_0 routing_152958_419_0" vType="pkw" speedFactor="0.87" vaporized=""/>
    <tripinfo id="133955_411_0" depart="25273.00" departLane="23429231#1_0" departPos="4.40" departSpeed="0.00" departDelay="14.00" arrival="25946.00" arrivalLane="32038051#0_1" arrivalPos="89.25" arrivalSpeed="19.94" duration="673.00" routeLength="203.79" waitingTime="641.00" waitingCount="2" stopTime="0.00" timeLoss="663.24" rerouteNo="0" devices="tripinfo_133955_411_0 routing_133955_411_0" vType="pkw" speedFactor="1.09" vaporized=""/>
    <tripinfo id="95692_394_0" depart="25510.00" departLane="27115123#2_0" departPos="4.40" departSpeed="0.00" departDelay="0.00" arrival="25946.00" arrivalLane="32324544#0_1" arrivalPos="90.48" arrivalSpeed="20.56" duration="436.00" routeLength="198.06" waitingTime="405.00" waitingCount="2" stopTime="0.00" timeLoss="426.82" rerouteNo="1" devices="tripinfo_95692_394_0 routing_95692_394_0" vType="pkw" speedFactor="1.14" vaporized=""/>
    <tripinfo id="154948_420_0" depart="25506.00" departLane="27115123#2_0" departPos="4.40" departSpeed="0.00" departDelay="2.00" arrival="25947.00" arrivalLane="32324544#0_0" arrivalPos="90.48" arrivalSpeed="16.19" duration="441.00" routeLength="198.06" waitingTime="410.00" waitingCount="2" stopTime="0.00" timeLoss="429.05" rerouteNo="1" devices="tripinfo_154948_420_0 routing_154948_420_0" vType="pkw" speedFactor="0.88" vaporized=""/>
    <tripinfo id="125613_406_0" depart="25271.00" departLane="23429231#1_0" departPos="4.40" departSpeed="0.00" departDelay="13.00" arrival="25948.00" arrivalLane="32038051#0_0" arrivalPos="89.25" arrivalSpeed="18.89" duration="677.00" routeLength="203.79" waitingTime="646.00" waitingCount="2" stopTime="0.00" timeLoss="666.76" rerouteNo="0" devices="tripinfo_125613_406_0 routing_125613_406_0" vType="pkw" speedFactor="1.09" vaporized=""/>
    <tripinfo id="129253_408_0" depart="25276.00" departLane="23429231#1_0" departPos="4.40" departSpeed="0.00" departDelay="16.00" arrival="25948.00" arrivalLane="32038051#0_1" arrivalPos="89.25" arrivalSpeed="21.03" duration="672.00" routeLength="203.79" waitingTime="639.00" waitingCount="2" stopTime="0.00" timeLoss="661.95" rerouteNo="0" devices="tripinfo_129253_408_0 routing_129253_408_0" vType="pkw" speedFactor="1.11" vaporized=""/>
    <tripinfo id="160712_421_0" depart="25514.00" departLane="27115123#2_0" departPos="4.40" departSpeed="0.00" departDelay="0.00" arrival="25948.00" arrivalLane="32324544#0_0" arrivalPos="90.48" arrivalSpeed="17.80" duration="434.00" routeLength="198.06" waitingTime="402.00" waitingCount="2" stopTime="0.00" timeLoss="424.28" rerouteNo="1" devices="tripinfo_160712_421_0 routing_160712_421_0" vType="pkw" speedFactor="1.05" vaporized=""/>
    <tripinfo id="139907_414_0" depart="25535.00" departLane="27115123#2_0" departPos="4.40" departSpeed="0.00" departDelay="0.00" arrival="25948.00" arrivalLane="32324544#0_1" arrivalPos="90.48" arrivalSpeed="20.56" duration="413.00" routeLength="198.06" waitingTime="381.00" waitingCount="2" stopTime="0.00" timeLoss="402.79" rerouteNo="1" devices="tripinfo_139907_414_0 routing_139907_414_0" vType="pkw" speedFactor="1.07" vaporized=""/>
    <tripinfo id="120275_405_0" depart="25278.00" departLane="23429231#1_0" departPos="4.40" departSpeed="0.00" departDelay="17.00" arrival="25949.00" arrivalLane="32038051#0_0" arrivalPos="89.25" arrivalSpeed="16.62" duration="671.00" routeLength="203.79" waitingTime="641.00" waitingCount="2" stopTime="0.00" timeLoss="659.29" rerouteNo="0" devices="tripinfo_120275_405_0 routing_120275_405_0" vType="pkw" speedFactor="0.90" vaporized=""/>
    <tripinfo id="159698_421_0" depart="25493.00" departLane="130165204_0" departPos="4.40" departSpeed="0.00" departDelay="0.00" arrival="25949.00" arrivalLane="32324544#0_1" arrivalPos="90.48" arrivalSpeed="17.97" duration="456.00" routeLength="411.68" waitingTime="409.00" waitingCount="2" stopTime="0.00" timeLoss="428.83" rerouteNo="1" devices="tripinfo_159698_421_0 routing_159698_421_0" vType="pkw" speedFactor="0.97" vaporized=""/>
    <tripinfo id="86189_391_0" depart="25286.00" departLane="23429231#1_0" departPos="4.40" departSpeed="0.00" departDelay="21.00" arrival="25950.00" arrivalLane="32038051#0_1" arrivalPos="89.25" arrivalSpeed="20.53" duration="664.00" routeLength="203.79" waitingTime="628.00" waitingCount="2" stopTime="0.00" timeLoss="654.31" rerouteNo="0" devices="tripinfo_86189_391_0 routing_86189_391_0" vType="pkw" speedFactor="1.10" vaporized=""/>
    <tripinfo id="175864_428_0" depart="25490.00" departLane="130165204_0" departPos="4.40" departSpeed="0.00" departDelay="0.00" arrival="25950.00" arrivalLane="32324544#0_0" arrivalPos="90.48" arrivalSpeed="17.98" duration="460.00" routeLength="411.68" waitingTime="412.00" waitingCount="2" stopTime="0.00" timeLoss="432.92" rerouteNo="1" devices="tripinfo_175864_428_0 routing_175864_428_0" vType="pkw" speedFactor="0.99" vaporized=""/>
    <tripinfo id="135201_411_0" depart="25284.00" departLane="23429231#1_0" departPos="4.40" departSpeed="0.00" departDelay="20.00" arrival="25951.00" arrivalLane="32038051#0_0" arrivalPos="89.25" arrivalSpeed="17.33" duration="667.00" routeLength="203.79" waitingTime="635.00" waitingCount="3" stopTime="0.00" timeLoss="655.41" rerouteNo="0" devices="tripinfo_135201_411_0 routing_135201_411_0" vType="pkw" speedFactor="0.94" vaporized=""/>
    <tripinfo id="183802_431_0" depart="25498.00" departLane="130165204_0" departPos="4.40" departSpeed="0.00" departDelay="0.00" arrival="25951.00" arrivalLane="32324544#0_0" arrivalPos="90.48" arrivalSpeed="19.00" duration="453.00" routeLength="411.68" waitingTime="406.00" waitingCount="2" stopTime="0.00" timeLoss="426.91" rerouteNo="1" devices="tripinfo_183802_431_0 routing_183802_431_0" vType="pkw" speedFactor="1.01" vaporized=""/>
    <tripinfo id="134807_411_0" depart="25281.00" departLane="23429231#1_0" departPos="4.40" departSpeed="0.00" departDelay="19.00" arrival="25952.00" arrivalLane="32324544#0_1" arrivalPos="90.48" arrivalSpeed="16.96" duration="671.00" routeLength="203.50" waitingTime="636.00" waitingCount="3" stopTime="0.00" timeLoss="659.52" rerouteNo="0" devices="tripinfo_134807_411_0 routing_134807_411_0" vType="pkw" speedFactor="0.92" vaporized=""/>
    <tripinfo id="57065_374_0" depart="25289.00" departLane="23429231#1_0" departPos="4.40" departSpeed="0.00" departDelay="23.00" arrival="25952.00" arrivalLane="32038051#0_0" arrivalPos="89.25" arrivalSpeed="18.38" duration="663.00" routeLength="203.79" waitingTime="630.00" waitingCount="2" stopTime="0.00" timeLoss="652.15" rerouteNo="0" devices="tripinfo_57065_374_0 routing_57065_374_0" vType="pkw" speedFactor="0.97" vaporized=""/>
    <tripinfo id="129519_408_0" depart="25292.00" departLane="23429231#1_0" departPos="4.40" departSpeed="0.00" departDelay="25.00" arrival="25952.00" arrivalLane="32038051#0_1" arrivalPos="89.25" arrivalSpeed="21.81" duration="660.00" routeLength="203.79" waitingTime="626.00" waitingCount="2" stopTime="0.00" timeLoss="650.27" rerouteNo="0" devices="tripinfo_129519_408_0 routing_129519_408_0" vType="pkw" speedFactor="1.15" vaporized=""/>
    <tripinfo id="82015_389_0" depart="25295.00" departLane="23429231#1_0" departPos="4.40" departSpeed="0.00" departDelay="27.00" arrival="25954.00" arrivalLane="32038051#0_0" arrivalPos="89.25" arrivalSpeed="21.64" duration="659.00" routeLength="203.79" waitingTime="624.00" waitingCount="2" stopTime="0.00" timeLoss="648.95" rerouteNo="0" devices="tripinfo_82015_389_0 routing_82015_389_0" vType="pkw" speedFactor="1.11" vaporized=""/>
    <tripinfo id="136204_411_0" depart="25299.00" departLane="23429231#1_0" departPos="4.40" departSpeed="0.00" departDelay="30.00" arrival="25955.00" arrivalLane="32038051#0_1" arrivalPos="89.25" arrivalSpeed="15.17" duration="656.00" routeLength="203.79" waitingTime="623.00" waitingCount="2" stopTime="0.00" timeLoss="642.66" rerouteNo="0" devices="tripinfo_136204_411_0 routing_136204_411_0" vType="pkw" speedFactor="0.83" vaporized=""/>
    <tripinfo id="135431_411_0" depart="25301.00" departLane="23429231#1_0" departPos="4.40" departSpeed="0.00" departDelay="32.00" arrival="25956.00" arrivalLane="32038051#0_0" arrivalPos="89.25" arrivalSpeed="19.41" duration="655.00" routeLength="203.79" waitingTime="620.00" waitingCount="2" stopTime="0.00" timeLoss="644.20" rerouteNo="0" devices="tripinfo_135431_411_0 routing_135431_411_0" vType="pkw" speedFactor="1.05" vaporized=""/>
    <tripinfo id="146814_416_0" depart="25304.00" departLane="23429231#1_0" departPos="4.40" departSpeed="0.00" departDelay="33.00" arrival="25956.00" arrivalLane="32038051#0_1" arrivalPos="89.25" arrivalSpeed="18.00" duration="652.00" routeLength="203.79" waitingTime="617.00" waitingCount="2" stopTime="0.00" timeLoss="640.33" rerouteNo="0" devices="tripinfo_146814_416_0 routing_146814_416_0" vType="pkw" speedFactor="0.93" vaporized=""/>
    <tripinfo id="116532_404_0" depart="25579.00" departLane="27115123#2_0" departPos="4.40" departSpeed="0.00" departDelay="0.00" arrival="25956.00" arrivalLane="32324544#0_0" arrivalPos="90.48" arrivalSpeed="18.69" duration="377.00" routeLength="198.06" waitingTime="355.00" waitingCount="1" stopTime="0.00" timeLoss="366.21" rerouteNo="1" devices="tripinfo_116532_404_0 routing_116532_404_0" vType="pkw" speedFactor="1.01" vaporized=""/>
    <tripinfo id="125316_406_0" depart="25306.00" departLane="23429231#1_0" departPos="4.40" departSpeed="0.00" departDelay="35.00" arrival="25957.00" arrivalLane="32038051#0_0" arrivalPos="89.25" arrivalSpeed="18.28" duration="651.00" routeLength="203.79" waitingTime="617.00" waitingCount="2" stopTime="0.00" timeLoss="640.68" rerouteNo="0" devices="tripinfo_125316_406_0 routing_125316_406_0" vType="pkw" speedFactor="1.04" vaporized=""/>
    <tripinfo id="163672_422_0" depart="25501.00" departLane="130165204_0" departPos="4.40" departSpeed="0.00" departDelay="0.00" arrival="25960.00" arrivalLane="32038051#0_1" arrivalPos="89.25" arrivalSpeed="19.10" duration="459.00" routeLength="410.03" waitingTime="408.00" waitingCount="3" stopTime="0.00" timeLoss="432.59" rerouteNo="1" devices="tripinfo_163672_422_0 routing_163672_422_0" vType="pkw" speedFactor="1.02" vaporized=""/>