<?xml version="1.0" encoding="UTF-8"?>

<!-- generated on 2023-08-31 13:21:17 by Eclipse SUMO libsumo Version 1.18.0
<configuration xmlns:xsi="http://www.w3.org/2001/XMLSchema-instance" xsi:noNamespaceSchemaLocation="http://sumo.dlr.de/xsd/libsumoConfiguration.xsd">

    <input>
        <net-file value="/home/stefan/RESCO/./environments/cologne1/cologne1.net.xml"/>
        <route-files value="/home/stefan/RESCO/./environments/cologne1/cologne1.rou.xml"/>
    </input>

    <output>
        <tripinfo-output value="/home/stefan/results/RAINBOW-tr0-cologne1-0-drq_norm-wait_norm/tripinfo_98.xml"/>
        <tripinfo-output.write-unfinished value="true"/>
    </output>

    <time>
        <begin value="25200"/>
        <end value="28800"/>
    </time>

    <processing>
        <time-to-teleport value="-1"/>
    </processing>

    <report>
        <no-warnings value="True"/>
        <no-step-log value="True"/>
    </report>

    <random_number>
        <random value="true"/>
    </random_number>

</configuration>
-->

<tripinfos xmlns:xsi="http://www.w3.org/2001/XMLSchema-instance" xsi:noNamespaceSchemaLocation="http://sumo.dlr.de/xsd/tripinfo_file.xsd">
    <tripinfo id="124779_406_0" depart="25205.00" departLane="28198821#3_0" departPos="4.40" departSpeed="0.00" departDelay="0.00" arrival="25221.00" arrivalLane="32038051#0_1" arrivalPos="89.25" arrivalSpeed="20.03" duration="16.00" routeLength="170.57" waitingTime="0.00" waitingCount="0" stopTime="0.00" timeLoss="5.88" rerouteNo="0" devices="tripinfo_124779_406_0 routing_124779_406_0" vType="pkw" speedFactor="1.08" vaporized=""/>
    <tripinfo id="98305_395_0" depart="25211.00" departLane="28198821#3_0" departPos="4.40" departSpeed="0.00" departDelay="0.00" arrival="25227.00" arrivalLane="32038051#0_1" arrivalPos="89.25" arrivalSpeed="19.35" duration="16.00" routeLength="170.57" waitingTime="0.00" waitingCount="0" stopTime="0.00" timeLoss="6.37" rerouteNo="0" devices="tripinfo_98305_395_0 routing_98305_395_0" vType="pkw" speedFactor="1.05" vaporized=""/>
    <tripinfo id="102535_396_0" depart="25218.00" departLane="28198821#3_0" departPos="4.40" departSpeed="0.00" departDelay="0.00" arrival="25233.00" arrivalLane="32038051#0_1" arrivalPos="89.25" arrivalSpeed="17.45" duration="15.00" routeLength="170.57" waitingTime="0.00" waitingCount="0" stopTime="0.00" timeLoss="4.05" rerouteNo="0" devices="tripinfo_102535_396_0 routing_102535_396_0" vType="pkw" speedFactor="0.91" vaporized=""/>
    <tripinfo id="147209_416_0" depart="25220.00" departLane="28198821#3_0" departPos="4.40" departSpeed="0.00" departDelay="0.00" arrival="25235.00" arrivalLane="32038051#0_1" arrivalPos="89.25" arrivalSpeed="19.96" duration="15.00" routeLength="170.57" waitingTime="0.00" waitingCount="0" stopTime="0.00" timeLoss="5.36" rerouteNo="0" devices="tripinfo_147209_416_0 routing_147209_416_0" vType="pkw" speedFactor="1.10" vaporized=""/>
    <tripinfo id="151372_418_0" depart="25207.00" departLane="130165204_0" departPos="4.40" departSpeed="0.00" departDelay="0.00" arrival="25249.00" arrivalLane="32038051#0_1" arrivalPos="89.25" arrivalSpeed="18.70" duration="42.00" routeLength="410.03" waitingTime="0.00" waitingCount="0" stopTime="0.00" timeLoss="14.75" rerouteNo="1" devices="tripinfo_151372_418_0 routing_151372_418_0" vType="pkw" speedFactor="0.99" vaporized=""/>
    <tripinfo id="149029_417_0" depart="25236.00" departLane="27115123#2_0" departPos="4.40" departSpeed="0.00" departDelay="0.00" arrival="25259.00" arrivalLane="32038051#0_1" arrivalPos="89.25" arrivalSpeed="19.12" duration="23.00" routeLength="196.41" waitingTime="0.00" waitingCount="0" stopTime="0.00" timeLoss="12.39" rerouteNo="1" devices="tripinfo_149029_417_0 routing_149029_417_0" vType="pkw" speedFactor="1.01" vaporized=""/>
    <tripinfo id="91582_392_0" depart="25221.00" departLane="-32038056#3_0" departPos="4.40" departSpeed="0.00" departDelay="3.00" arrival="25262.00" arrivalLane="32324544#0_1" arrivalPos="90.48" arrivalSpeed="18.98" duration="41.00" routeLength="465.51" waitingTime="0.00" waitingCount="0" stopTime="0.00" timeLoss="10.37" rerouteNo="0" devices="tripinfo_91582_392_0 routing_91582_392_0" vType="pkw" speedFactor="1.02" vaporized=""/>
    <tripinfo id="115444_403_0" depart="25294.00" departLane="28198821#3_0" departPos="4.40" departSpeed="0.00" departDelay="0.00" arrival="25311.00" arrivalLane="32038051#0_1" arrivalPos="89.25" arrivalSpeed="17.32" duration="17.00" routeLength="170.57" waitingTime="0.00" waitingCount="0" stopTime="0.00" timeLoss="6.04" rerouteNo="0" devices="tripinfo_115444_403_0 routing_115444_403_0" vType="pkw" speedFactor="0.92" vaporized=""/>
    <tripinfo id="103540_397_0" depart="25300.00" departLane="28198821#3_0" departPos="4.40" departSpeed="0.00" departDelay="0.00" arrival="25315.00" arrivalLane="32038051#0_1" arrivalPos="89.25" arrivalSpeed="17.95" duration="15.00" routeLength="170.57" waitingTime="0.00" waitingCount="0" stopTime="0.00" timeLoss="3.93" rerouteNo="0" devices="tripinfo_103540_397_0 routing_103540_397_0" vType="pkw" speedFactor="0.95" vaporized=""/>
    <tripinfo id="162096_421_0" depart="25306.00" departLane="130165204_0" departPos="4.40" departSpeed="0.00" departDelay="0.00" arrival="25351.00" arrivalLane="32038051#0_1" arrivalPos="89.25" arrivalSpeed="18.21" duration="45.00" routeLength="410.03" waitingTime="2.00" waitingCount="1" stopTime="0.00" timeLoss="17.60" rerouteNo="1" devices="tripinfo_162096_421_0 routing_162096_421_0" vType="pkw" speedFactor="0.97" vaporized=""/>
    <tripinfo id="175147_428_0" depart="25324.00" departLane="130165204_0" departPos="4.40" departSpeed="0.00" departDelay="0.00" arrival="25370.00" arrivalLane="32038051#0_1" arrivalPos="89.25" arrivalSpeed="17.16" duration="46.00" routeLength="410.03" waitingTime="3.00" waitingCount="1" stopTime="0.00" timeLoss="15.35" rerouteNo="1" devices="tripinfo_175147_428_0 routing_175147_428_0" vType="pkw" speedFactor="0.88" vaporized=""/>
    <tripinfo id="161721_421_0" depart="25337.00" departLane="130165204_0" departPos="4.40" departSpeed="0.00" departDelay="0.00" arrival="25379.00" arrivalLane="32038051#0_1" arrivalPos="89.25" arrivalSpeed="19.45" duration="42.00" routeLength="410.03" waitingTime="2.00" waitingCount="1" stopTime="0.00" timeLoss="15.94" rerouteNo="1" devices="tripinfo_161721_421_0 routing_161721_421_0" vType="pkw" speedFactor="1.03" vaporized=""/>
    <tripinfo id="136669_411_0" depart="25566.00" departLane="28198821#3_0" departPos="4.40" departSpeed="0.00" departDelay="0.00" arrival="25581.00" arrivalLane="32038051#0_1" arrivalPos="89.25" arrivalSpeed="18.11" duration="15.00" routeLength="170.57" waitingTime="0.00" waitingCount="0" stopTime="0.00" timeLoss="3.92" rerouteNo="0" devices="tripinfo_136669_411_0 routing_136669_411_0" vType="pkw" speedFactor="0.98" vaporized=""/>
    <tripinfo id="121258_405_0" depart="25240.00" departLane="23429231#1_0" departPos="4.40" departSpeed="0.00" departDelay="0.00" arrival="25813.00" arrivalLane="32038051#0_0" arrivalPos="89.25" arrivalSpeed="17.76" duration="573.00" routeLength="203.79" waitingTime="549.00" waitingCount="1" stopTime="0.00" timeLoss="563.33" rerouteNo="0" devices="tripinfo_121258_405_0 routing_121258_405_0" vType="pkw" speedFactor="1.11" vaporized=""/>
    <tripinfo id="126742_407_0" depart="25243.00" departLane="23429231#1_0" departPos="4.40" departSpeed="0.00" departDelay="3.00" arrival="25813.00" arrivalLane="32038051#0_1" arrivalPos="89.25" arrivalSpeed="19.48" duration="570.00" routeLength="203.79" waitingTime="546.00" waitingCount="1" stopTime="0.00" timeLoss="559.66" rerouteNo="0" devices="tripinfo_126742_407_0 routing_126742_407_0" vType="pkw" speedFactor="1.07" vaporized=""/>
    <tripinfo id="148629_417_0" depart="25284.00" departLane="27115123#2_0" departPos="4.40" departSpeed="0.00" departDelay="0.00" arrival="25813.00" arrivalLane="32324544#0_0" arrivalPos="90.48" arrivalSpeed="14.96" duration="529.00" routeLength="198.06" waitingTime="504.00" waitingCount="1" stopTime="0.00" timeLoss="516.45" rerouteNo="1" devices="tripinfo_148629_417_0 routing_148629_417_0" vType="pkw" speedFactor="0.82" vaporized=""/>
    <tripinfo id="154290_420_0" depart="25431.00" departLane="27115123#2_0" departPos="4.40" departSpeed="0.00" departDelay="0.00" arrival="25813.00" arrivalLane="32324544#0_1" arrivalPos="90.48" arrivalSpeed="19.46" duration="382.00" routeLength="198.06" waitingTime="358.00" waitingCount="1" stopTime="0.00" timeLoss="372.76" rerouteNo="1" devices="tripinfo_154290_420_0 routing_154290_420_0" vType="pkw" speedFactor="1.12" vaporized=""/>
    <tripinfo id="120663_405_0" depart="25249.00" departLane="23429231#1_0" departPos="4.40" departSpeed="0.00" departDelay="3.00" arrival="25815.00" arrivalLane="32038051#0_1" arrivalPos="89.25" arrivalSpeed="22.15" duration="566.00" routeLength="203.79" waitingTime="541.00" waitingCount="1" stopTime="0.00" timeLoss="556.52" rerouteNo="0" devices="tripinfo_120663_405_0 routing_120663_405_0" vType="pkw" speedFactor="1.19" vaporized=""/>
    <tripinfo id="129330_408_0" depart="25434.00" departLane="27115123#2_0" departPos="4.40" departSpeed="0.00" departDelay="2.00" arrival="25815.00" arrivalLane="32324544#0_0" arrivalPos="90.48" arrivalSpeed="18.27" duration="381.00" routeLength="198.06" waitingTime="357.00" waitingCount="1" stopTime="0.00" timeLoss="369.67" rerouteNo="1" devices="tripinfo_129330_408_0 routing_129330_408_0" vType="pkw" speedFactor="0.95" vaporized=""/>
    <tripinfo id="102501_396_0" depart="25246.00" departLane="23429231#1_0" departPos="4.40" departSpeed="0.00" departDelay="2.00" arrival="25816.00" arrivalLane="32038051#0_0" arrivalPos="89.25" arrivalSpeed="15.73" duration="570.00" routeLength="203.79" waitingTime="545.00" waitingCount="1" stopTime="0.00" timeLoss="556.68" rerouteNo="0" devices="tripinfo_102501_396_0 routing_102501_396_0" vType="pkw" speedFactor="0.84" vaporized=""/>
    <tripinfo id="130147_409_0" depart="25255.00" departLane="23429231#1_0" departPos="4.40" departSpeed="0.00" departDelay="4.00" arrival="25817.00" arrivalLane="32038051#0_0" arrivalPos="89.25" arrivalSpeed="17.76" duration="562.00" routeLength="203.79" waitingTime="537.00" waitingCount="1" stopTime="0.00" timeLoss="551.24" rerouteNo="0" devices="tripinfo_130147_409_0 routing_130147_409_0" vType="pkw" speedFactor="1.01" vaporized=""/>
    <tripinfo id="153635_420_0" depart="25460.00" departLane="27115123#2_0" departPos="4.40" departSpeed="0.00" departDelay="0.00" arrival="25817.00" arrivalLane="32324544#0_0" arrivalPos="90.48" arrivalSpeed="17.73" duration="357.00" routeLength="198.06" waitingTime="333.00" waitingCount="1" stopTime="0.00" timeLoss="345.14" rerouteNo="1" devices="tripinfo_153635_420_0 routing_153635_420_0" vType="pkw" speedFactor="0.91" vaporized=""/>
    <tripinfo id="145855_416_0" depart="25469.00" departLane="27115123#2_0" departPos="4.40" departSpeed="0.00" departDelay="0.00" arrival="25817.00" arrivalLane="32324544#0_1" arrivalPos="90.48" arrivalSpeed="21.45" duration="348.00" routeLength="198.06" waitingTime="324.00" waitingCount="1" stopTime="0.00" timeLoss="338.61" rerouteNo="1" devices="tripinfo_145855_416_0 routing_145855_416_0" vType="pkw" speedFactor="1.18" vaporized=""/>
    <tripinfo id="122376_406_0" depart="25260.00" departLane="23429231#1_0" departPos="4.40" departSpeed="0.00" departDelay="6.00" arrival="25818.00" arrivalLane="32038051#0_1" arrivalPos="89.25" arrivalSpeed="18.47" duration="558.00" routeLength="203.79" waitingTime="532.00" waitingCount="1" stopTime="0.00" timeLoss="547.17" rerouteNo="0" devices="tripinfo_122376_406_0 routing_122376_406_0" vType="pkw" speedFactor="0.99" vaporized=""/>
    <tripinfo id="161689_421_0" depart="25467.00" departLane="130165204_0" departPos="4.40" departSpeed="0.00" departDelay="0.00" arrival="25818.00" arrivalLane="32324544#0_0" arrivalPos="90.48" arrivalSpeed="17.54" duration="351.00" routeLength="411.68" waitingTime="310.00" waitingCount="1" stopTime="0.00" timeLoss="322.90" rerouteNo="1" devices="tripinfo_161689_421_0 routing_161689_421_0" vType="pkw" speedFactor="0.94" vaporized=""/>
    <tripinfo id="102630_396_0" depart="25257.00" departLane="23429231#1_0" departPos="4.40" departSpeed="0.00" departDelay="5.00" arrival="25819.00" arrivalLane="32038051#0_0" arrivalPos="89.25" arrivalSpeed="20.10" duration="562.00" routeLength="203.79" waitingTime="537.00" waitingCount="1" stopTime="0.00" timeLoss="551.64" rerouteNo="0" devices="tripinfo_102630_396_0 routing_102630_396_0" vType="pkw" speedFactor="1.08" vaporized=""/>
    <tripinfo id="164382_422_0" depart="25469.00" departLane="130165204_0" departPos="4.40" departSpeed="0.00" departDelay="0.00" arrival="25819.00" arrivalLane="32324544#0_1" arrivalPos="90.48" arrivalSpeed="17.66" duration="350.00" routeLength="411.68" waitingTime="304.00" waitingCount="1" stopTime="0.00" timeLoss="321.56" rerouteNo="1" devices="tripinfo_164382_422_0 routing_164382_422_0" vType="pkw" speedFactor="0.95" vaporized=""/>
    <tripinfo id="122194_406_0" depart="25263.00" departLane="23429231#1_0" departPos="4.40" departSpeed="0.00" departDelay="8.00" arrival="25820.00" arrivalLane="32038051#0_0" arrivalPos="89.25" arrivalSpeed="18.97" duration="557.00" routeLength="203.79" waitingTime="533.00" waitingCount="1" stopTime="0.00" timeLoss="547.15" rerouteNo="0" devices="tripinfo_122194_406_0 routing_122194_406_0" vType="pkw" speedFactor="1.08" vaporized=""/>
    <tripinfo id="135103_411_0" depart="25265.00" departLane="23429231#1_0" departPos="4.40" departSpeed="0.00" departDelay="9.00" arrival="25820.00" arrivalLane="32038051#0_1" arrivalPos="89.25" arrivalSpeed="19.20" duration="555.00" routeLength="203.79" waitingTime="528.00" waitingCount="1" stopTime="0.00" timeLoss="544.06" rerouteNo="0" devices="tripinfo_135103_411_0 routing_135103_411_0" vType="pkw" speedFactor="1.03" vaporized=""/>
    <tripinfo id="100928_396_0" depart="25472.00" departLane="130165204_0" departPos="4.40" departSpeed="0.00" departDelay="0.00" arrival="25820.00" arrivalLane="32324544#0_0" arrivalPos="90.48" arrivalSpeed="17.39" duration="348.00" routeLength="411.68" waitingTime="304.00" waitingCount="1" stopTime="0.00" timeLoss="319.68" rerouteNo="1" devices="tripinfo_100928_396_0 routing_100928_396_0" vType="pkw" speedFactor="0.95" vaporized=""/>
    <tripinfo id="159287_421_0" depart="25503.00" departLane="27115123#2_0" departPos="4.40" departSpeed="0.00" departDelay="0.00" arrival="25820.00" arrivalLane="32324544#0_1" arrivalPos="90.48" arrivalSpeed="19.04" duration="317.00" routeLength="198.06" waitingTime="292.00" waitingCount="1" stopTime="0.00" timeLoss="306.73" rerouteNo="1" devices="tripinfo_159287_421_0 routing_159287_421_0" vType="pkw" speedFactor="1.02" vaporized=""/>
    <tripinfo id="125613_406_0" depart="25271.00" departLane="23429231#1_0" departPos="4.40" departSpeed="0.00" departDelay="13.00" arrival="25821.00" arrivalLane="32038051#0_1" arrivalPos="89.25" arrivalSpeed="18.54" duration="550.00" routeLength="203.79" waitingTime="526.00" waitingCount="1" stopTime="0.00" timeLoss="539.03" rerouteNo="0" devices="tripinfo_125613_406_0 routing_125613_406_0" vType="pkw" speedFactor="0.96" vaporized=""/>
    <tripinfo id="152958_419_0" depart="25268.00" departLane="23429231#1_0" departPos="4.40" departSpeed="0.00" departDelay="11.00" arrival="25822.00" arrivalLane="32038051#0_0" arrivalPos="89.25" arrivalSpeed="17.74" duration="554.00" routeLength="203.79" waitingTime="529.00" waitingCount="1" stopTime="0.00" timeLoss="542.76" rerouteNo="0" devices="tripinfo_152958_419_0 routing_152958_419_0" vType="pkw" speedFactor="0.96" vaporized=""/>
    <tripinfo id="175864_428_0" depart="25490.00" departLane="130165204_0" departPos="4.40" departSpeed="0.00" departDelay="0.00" arrival="25822.00" arrivalLane="32324544#0_1" arrivalPos="90.48" arrivalSpeed="18.80" duration="332.00" routeLength="411.68" waitingTime="290.00" waitingCount="1" stopTime="0.00" timeLoss="304.84" rerouteNo="1" devices="tripinfo_175864_428_0 routing_175864_428_0" vType="pkw" speedFactor="1.00" vaporized=""/>
    <tripinfo id="154948_420_0" depart="25506.00" departLane="27115123#2_0" departPos="4.40" departSpeed="0.00" departDelay="2.00" arrival="25822.00" arrivalLane="32324544#0_0" arrivalPos="90.48" arrivalSpeed="15.24" duration="316.00" routeLength="198.06" waitingTime="291.00" waitingCount="1" stopTime="0.00" timeLoss="303.19" rerouteNo="1" devices="tripinfo_154948_420_0 routing_154948_420_0" vType="pkw" speedFactor="0.85" vaporized=""/>
    <tripinfo id="129253_408_0" depart="25276.00" departLane="23429231#1_0" departPos="4.40" departSpeed="0.00" departDelay="16.00" arrival="25823.00" arrivalLane="32038051#0_1" arrivalPos="89.25" arrivalSpeed="22.06" duration="547.00" routeLength="203.79" waitingTime="521.00" waitingCount="1" stopTime="0.00" timeLoss="537.32" rerouteNo="0" devices="tripinfo_129253_408_0 routing_129253_408_0" vType="pkw" speedFactor="1.16" vaporized=""/>
    <tripinfo id="95692_394_0" depart="25510.00" departLane="27115123#2_0" departPos="4.40" departSpeed="0.00" departDelay="0.00" arrival="25823.00" arrivalLane="32324544#0_0" arrivalPos="90.48" arrivalSpeed="18.04" duration="313.00" routeLength="198.06" waitingTime="287.00" waitingCount="1" stopTime="0.00" timeLoss="304.01" rerouteNo="1" devices="tripinfo_95692_394_0 routing_95692_394_0" vType="pkw" speedFactor="1.17" vaporized=""/>
    <tripinfo id="160712_421_0" depart="25514.00" departLane="27115123#2_0" departPos="4.40" departSpeed="0.00" departDelay="0.00" arrival="25823.00" arrivalLane="32324544#0_1" arrivalPos="90.48" arrivalSpeed="18.48" duration="309.00" routeLength="198.06" waitingTime="284.00" waitingCount="1" stopTime="0.00" timeLoss="298.20" rerouteNo="1" devices="tripinfo_160712_421_0 routing_160712_421_0" vType="pkw" speedFactor="0.97" vaporized=""/>
    <tripinfo id="133955_411_0" depart="25273.00" departLane="23429231#1_0" departPos="4.40" departSpeed="0.00" departDelay="14.00" arrival="25824.00" arrivalLane="32038051#0_0" arrivalPos="89.25" arrivalSpeed="17.58" duration="551.00" routeLength="203.79" waitingTime="526.00" waitingCount="1" stopTime="0.00" timeLoss="538.94" rerouteNo="0" devices="tripinfo_133955_411_0 routing_133955_411_0" vType="pkw" speedFactor="0.94" vaporized=""/>
    <tripinfo id="120275_405_0" depart="25278.00" departLane="23429231#1_0" departPos="4.40" departSpeed="0.00" departDelay="17.00" arrival="25825.00" arrivalLane="32038051#0_0" arrivalPos="89.25" arrivalSpeed="17.21" duration="547.00" routeLength="203.79" waitingTime="521.00" waitingCount="1" stopTime="0.00" timeLoss="535.50" rerouteNo="0" devices="tripinfo_120275_405_0 routing_120275_405_0" vType="pkw" speedFactor="0.92" vaporized=""/>
    <tripinfo id="139907_414_0" depart="25535.00" departLane="27115123#2_0" departPos="4.40" departSpeed="0.00" departDelay="0.00" arrival="25825.00" arrivalLane="32324544#0_0" arrivalPos="90.48" arrivalSpeed="19.51" duration="290.00" routeLength="198.06" waitingTime="266.00" waitingCount="1" stopTime="0.00" timeLoss="280.15" rerouteNo="1" devices="tripinfo_139907_414_0 routing_139907_414_0" vType="pkw" speedFactor="1.12" vaporized=""/>
    <tripinfo id="86189_391_0" depart="25285.00" departLane="23429231#1_0" departPos="4.40" departSpeed="0.00" departDelay="20.00" arrival="25826.00" arrivalLane="32038051#0_1" arrivalPos="89.25" arrivalSpeed="19.56" duration="541.00" routeLength="203.79" waitingTime="517.00" waitingCount="1" stopTime="0.00" timeLoss="530.29" rerouteNo="0" devices="tripinfo_86189_391_0 routing_86189_391_0" vType="pkw" speedFactor="1.03" vaporized=""/>
    <tripinfo id="116532_404_0" depart="25579.00" departLane="27115123#2_0" departPos="4.40" departSpeed="0.00" departDelay="0.00" arrival="25826.00" arrivalLane="32324544#0_0" arrivalPos="90.48" arrivalSpeed="19.81" duration="247.00" routeLength="198.06" waitingTime="224.00" waitingCount="1" stopTime="0.00" timeLoss="236.56" rerouteNo="1" devices="tripinfo_116532_404_0 routing_116532_404_0" vType="pkw" speedFactor="1.02" vaporized=""/>
    <tripinfo id="102993_397_0" depart="25585.00" departLane="27115123#2_0" departPos="4.40" departSpeed="0.00" departDelay="0.00" arrival="25826.00" arrivalLane="32324544#0_1" arrivalPos="90.48" arrivalSpeed="19.60" duration="241.00" routeLength="198.06" waitingTime="217.00" waitingCount="1" stopTime="0.00" timeLoss="230.85" rerouteNo="1" devices="tripinfo_102993_397_0 routing_102993_397_0" vType="pkw" speedFactor="1.06" vaporized=""/>
    <tripinfo id="135201_411_0" depart="25283.00" departLane="23429231#1_0" departPos="4.40" departSpeed="0.00" departDelay="19.00" arrival="25827.00" arrivalLane="32038051#0_0" arrivalPos="89.25" arrivalSpeed="20.37" duration="544.00" routeLength="203.79" waitingTime="518.00" waitingCount="1" stopTime="0.00" timeLoss="534.01" rerouteNo="0" devices="tripinfo_135201_411_0 routing_135201_411_0" vType="pkw" speedFactor="1.12" vaporized=""/>
    <tripinfo id="57065_374_0" depart="25288.00" departLane="23429231#1_0" departPos="4.40" departSpeed="0.00" departDelay="22.00" arrival="25828.00" arrivalLane="32038051#0_0" arrivalPos="89.25" arrivalSpeed="18.40" duration="540.00" routeLength="203.79" waitingTime="514.00" waitingCount="1" stopTime="0.00" timeLoss="529.29" rerouteNo="0" devices="tripinfo_57065_374_0 routing_57065_374_0" vType="pkw" speedFactor="1.00" vaporized=""/>
    <tripinfo id="129519_408_0" depart="25291.00" departLane="23429231#1_0" departPos="4.40" departSpeed="0.00" departDelay="24.00" arrival="25828.00" arrivalLane="32038051#0_1" arrivalPos="89.25" arrivalSpeed="18.56" duration="537.00" routeLength="203.79" waitingTime="511.00" waitingCount="1" stopTime="0.00" timeLoss="525.78" rerouteNo="0" devices="tripinfo_129519_408_0 routing_129519_408_0" vType="pkw" speedFactor="1.00" vaporized=""/>
    <tripinfo id="135158_411_0" depart="25587.00" departLane="27115123#2_0" departPos="4.40" departSpeed="0.00" departDelay="0.00" arrival="25828.00" arrivalLane="32324544#0_0" arrivalPos="90.48" arrivalSpeed="16.53" duration="241.00" routeLength="198.06" waitingTime="218.00" waitingCount="1" stopTime="0.00" timeLoss="228.76" rerouteNo="1" devices="tripinfo_135158_411_0 routing_135158_411_0" vType="pkw" speedFactor="0.88" vaporized=""/>
    <tripinfo id="136204_411_0" depart="25296.00" departLane="23429231#1_0" departPos="4.40" departSpeed="0.00" departDelay="27.00" arrival="25829.00" arrivalLane="32038051#0_1" arrivalPos="89.25" arrivalSpeed="19.05" duration="533.00" routeLength="203.79" waitingTime="510.00" waitingCount="1" stopTime="0.00" timeLoss="522.82" rerouteNo="0" devices="tripinfo_136204_411_0 routing_136204_411_0" vType="pkw" speedFactor="1.04" vaporized=""/>
    <tripinfo id="130800_409_0" depart="25602.00" departLane="27115123#2_0" departPos="4.40" departSpeed="0.00" departDelay="0.00" arrival="25829.00" arrivalLane="32324544#0_0" arrivalPos="90.48" arrivalSpeed="18.86" duration="227.00" routeLength="198.06" waitingTime="203.00" waitingCount="1" stopTime="0.00" timeLoss="216.24" rerouteNo="1" devices="tripinfo_130800_409_0 routing_130800_409_0" vType="pkw" speedFactor="0.98" vaporized=""/>
    <tripinfo id="82015_389_0" depart="25294.00" departLane="23429231#1_0" departPos="4.40" departSpeed="0.00" departDelay="26.00" arrival="25830.00" arrivalLane="32038051#0_0" arrivalPos="89.25" arrivalSpeed="19.14" duration="536.00" routeLength="203.79" waitingTime="510.00" waitingCount="1" stopTime="0.00" timeLoss="524.90" rerouteNo="0" devices="tripinfo_82015_389_0 routing_82015_389_0" vType="pkw" speedFactor="1.02" vaporized=""/>
    <tripinfo id="135431_411_0" depart="25299.00" departLane="23429231#1_0" departPos="4.40" departSpeed="0.00" departDelay="30.00" arrival="25831.00" arrivalLane="32038051#0_0" arrivalPos="89.25" arrivalSpeed="17.16" duration="532.00" routeLength="203.79" waitingTime="507.00" waitingCount="1" stopTime="0.00" timeLoss="520.57" rerouteNo="0" devices="tripinfo_135431_411_0 routing_135431_411_0" vType="pkw" speedFactor="0.92" vaporized=""/>
    <tripinfo id="146814_416_0" depart="25302.00" departLane="23429231#1_0" departPos="4.40" departSpeed="0.00" departDelay="31.00" arrival="25831.00" arrivalLane="32038051#0_1" arrivalPos="89.25" arrivalSpeed="21.09" duration="529.00" routeLength="203.79" waitingTime="504.00" waitingCount="1" stopTime="0.00" timeLoss="518.67" rerouteNo="0" devices="tripinfo_146814_416_0 routing_146814_416_0" vType="pkw" speedFactor="1.10" vaporized=""/>
    <tripinfo id="115551_403_0" depart="25605.00" departLane="27115123#2_0" departPos="4.40" departSpeed="0.00" departDelay="0.00" arrival="25831.00" arrivalLane="32324544#0_1" arrivalPos="90.48" arrivalSpeed="18.74" duration="226.00" routeLength="198.06" waitingTime="202.00" waitingCount="1" stopTime="0.00" timeLoss="215.32" rerouteNo="1" devices="tripinfo_115551_403_0 routing_115551_403_0" vType="pkw" speedFactor="1.01" vaporized=""/>
    <tripinfo id="83429_390_0" depart="25608.00" departLane="27115123#2_0" departPos="4.40" departSpeed="0.00" departDelay="0.00" arrival="25831.00" arrivalLane="32324544#0_0" arrivalPos="90.48" arrivalSpeed="16.40" duration="223.00" routeLength="198.06" waitingTime="201.00" waitingCount="1" stopTime="0.00" timeLoss="211.05" rerouteNo="1" devices="tripinfo_83429_390_0 routing_83429_390_0" vType="pkw" speedFactor="0.90" vaporized=""/>
    <tripinfo id="118286_405_0" depart="25307.00" departLane="23429231#1_0" departPos="4.40" departSpeed="0.00" departDelay="34.00" arrival="25832.00" arrivalLane="32038051#0_1" arrivalPos="89.25" arrivalSpeed="19.49" duration="525.00" routeLength="203.79" waitingTime="502.00" waitingCount="1" stopTime="0.00" timeLoss="514.57" rerouteNo="0" devices="tripinfo_118286_405_0 routing_118286_405_0" vType="pkw" speedFactor="1.03" vaporized=""/>
    <tripinfo id="125316_406_0" depart="25304.00" departLane="23429231#1_0" departPos="4.40" departSpeed="0.00" departDelay="33.00" arrival="25833.00" arrivalLane="32038051#0_0" arrivalPos="89.25" arrivalSpeed="20.28" duration="529.00" routeLength="203.79" waitingTime="505.00" waitingCount="1" stopTime="0.00" timeLoss="518.38" rerouteNo="0" devices="tripinfo_125316_406_0 routing_125316_406_0" vType="pkw" speedFactor="1.05" vaporized=""/>
    <tripinfo id="159698_421_0" depart="25493.00" departLane="130165204_0" departPos="4.40" departSpeed="0.00" departDelay="0.00" arrival="25833.00" arrivalLane="32324544#0_0" arrivalPos="90.48" arrivalSpeed="20.49" duration="340.00" routeLength="411.68" waitingTime="303.00" waitingCount="1" stopTime="0.00" timeLoss="316.01" rerouteNo="1" devices="tripinfo_159698_421_0 routing_159698_421_0" vType="pkw" speedFactor="1.10" vaporized=""/>
    <tripinfo id="134435_411_0" depart="25309.00" departLane="23429231#1_0" departPos="4.40" departSpeed="0.00" departDelay="36.00" arrival="25834.00" arrivalLane="32038051#0_0" arrivalPos="89.25" arrivalSpeed="17.19" duration="525.00" routeLength="203.79" waitingTime="501.00" waitingCount="1" stopTime="0.00" timeLoss="515.95" rerouteNo="0" devices="tripinfo_134435_411_0 routing_134435_411_0" vType="pkw" speedFactor="1.17" vaporized=""/>
    <tripinfo id="108236_400_0" depart="25311.00" departLane="23429231#1_0" departPos="4.40" departSpeed="0.00" departDelay="37.00" arrival="25834.00" arrivalLane="32038051#0_1" arrivalPos="89.25" arrivalSpeed="17.61" duration="523.00" routeLength="203.79" waitingTime="498.00" waitingCount="1" stopTime="0.00" timeLoss="511.40" rerouteNo="0" devices="tripinfo_108236_400_0 routing_108236_400_0" vType="pkw" speedFactor="0.91" vaporized=""/>
    <tripinfo id="146536_416_0" depart="25313.00" departLane="23429231#1_0" departPos="4.40" departSpeed="0.00" departDelay="38.00" arrival="25836.00" arrivalLane="32038051#0_0" arrivalPos="89.25" arrivalSpeed="20.91" duration="523.00" routeLength="203.79" waitingTime="499.00" waitingCount="1" stopTime="0.00" timeLoss="512.62" rerouteNo="0" devices="tripinfo_146536_416_0 routing_146536_416_0" vType="pkw" speedFactor="1.09" vaporized=""/>
    <tripinfo id="134807_411_0" depart="25281.00" departLane="23429231#1_0" departPos="4.40" departSpeed="0.00" departDelay="19.00" arrival="25837.00" arrivalLane="32324544#0_1" arrivalPos="90.48" arrivalSpeed="17.43" duration="556.00" routeLength="203.50" waitingTime="524.00" waitingCount="2" stopTime="0.00" timeLoss="544.19" rerouteNo="0" devices="tripinfo_134807_411_0 routing_134807_411_0" vType="pkw" speedFactor="0.91" vaporized=""/>
    <tripinfo id="110905_401_0" depart="25316.00" departLane="23429231#1_0" departPos="4.40" departSpeed="0.00" departDelay="40.00" arrival="25837.00" arrivalLane="32038051#0_1" arrivalPos="89.25" arrivalSpeed="15.32" duration="521.00" routeLength="203.79" waitingTime="498.00" waitingCount="1" stopTime="0.00" timeLoss="507.72" rerouteNo="0" devices="tripinfo_110905_401_0 routing_110905_401_0" vType="pkw" speedFactor="0.84" vaporized=""/>
    <tripinfo id="113509_402_0" depart="25252.00" departLane="23429231#1_0" departPos="4.40" departSpeed="0.00" departDelay="4.00" arrival="25838.00" arrivalLane="-28198821#4_1" arrivalPos="57.10" arrivalSpeed="8.39" duration="586.00" routeLength="179.90" waitingTime="557.00" waitingCount="2" stopTime="0.00" timeLoss="574.25" rerouteNo="0" devices="tripinfo_113509_402_0 routing_113509_402_0" vType="pkw" speedFactor="0.95" vaporized=""/>
    <tripinfo id="118931_405_0" depart="25317.00" departLane="23429231#1_0" departPos="4.40" departSpeed="0.00" departDelay="40.00" arrival="25838.00" arrivalLane="32038051#0_1" arrivalPos="89.25" arrivalSpeed="17.35" duration="521.00" routeLength="203.79" waitingTime="498.00" waitingCount="1" stopTime="0.00" timeLoss="509.01" rerouteNo="0" devices="tripinfo_118931_405_0 routing_118931_405_0" vType="pkw" speedFactor="0.91" vaporized=""/>