<?xml version="1.0" encoding="UTF-8"?>

<!-- generated on 2023-08-31 13:19:34 by Eclipse SUMO libsumo Version 1.18.0
<configuration xmlns:xsi="http://www.w3.org/2001/XMLSchema-instance" xsi:noNamespaceSchemaLocation="http://sumo.dlr.de/xsd/libsumoConfiguration.xsd">

    <input>
        <net-file value="/home/stefan/RESCO/./environments/cologne1/cologne1.net.xml"/>
        <route-files value="/home/stefan/RESCO/./environments/cologne1/cologne1.rou.xml"/>
    </input>

    <output>
        <tripinfo-output value="/home/stefan/results/RAINBOW-tr0-cologne1-0-drq_norm-wait_norm/tripinfo_82.xml"/>
        <tripinfo-output.write-unfinished value="true"/>
    </output>

    <time>
        <begin value="25200"/>
        <end value="28800"/>
    </time>

    <processing>
        <time-to-teleport value="-1"/>
    </processing>

    <report>
        <no-warnings value="True"/>
        <no-step-log value="True"/>
    </report>

    <random_number>
        <random value="true"/>
    </random_number>

</configuration>
-->

<tripinfos xmlns:xsi="http://www.w3.org/2001/XMLSchema-instance" xsi:noNamespaceSchemaLocation="http://sumo.dlr.de/xsd/tripinfo_file.xsd">
    <tripinfo id="124779_406_0" depart="25205.00" departLane="28198821#3_0" departPos="4.40" departSpeed="0.00" departDelay="0.00" arrival="25221.00" arrivalLane="32038051#0_1" arrivalPos="89.25" arrivalSpeed="17.98" duration="16.00" routeLength="170.57" waitingTime="0.00" waitingCount="0" stopTime="0.00" timeLoss="5.14" rerouteNo="0" devices="tripinfo_124779_406_0 routing_124779_406_0" vType="pkw" speedFactor="0.99" vaporized=""/>
    <tripinfo id="98305_395_0" depart="25211.00" departLane="28198821#3_0" departPos="4.40" departSpeed="0.00" departDelay="0.00" arrival="25227.00" arrivalLane="32038051#0_1" arrivalPos="89.25" arrivalSpeed="19.91" duration="16.00" routeLength="170.57" waitingTime="0.00" waitingCount="0" stopTime="0.00" timeLoss="6.51" rerouteNo="0" devices="tripinfo_98305_395_0 routing_98305_395_0" vType="pkw" speedFactor="1.06" vaporized=""/>
    <tripinfo id="102535_396_0" depart="25218.00" departLane="28198821#3_0" departPos="4.40" departSpeed="0.00" departDelay="0.00" arrival="25232.00" arrivalLane="32038051#0_1" arrivalPos="89.25" arrivalSpeed="17.88" duration="14.00" routeLength="170.57" waitingTime="0.00" waitingCount="0" stopTime="0.00" timeLoss="3.32" rerouteNo="0" devices="tripinfo_102535_396_0 routing_102535_396_0" vType="pkw" speedFactor="0.94" vaporized=""/>
    <tripinfo id="147209_416_0" depart="25220.00" departLane="28198821#3_0" departPos="4.40" departSpeed="0.00" departDelay="0.00" arrival="25235.00" arrivalLane="32038051#0_1" arrivalPos="89.25" arrivalSpeed="17.08" duration="15.00" routeLength="170.57" waitingTime="0.00" waitingCount="0" stopTime="0.00" timeLoss="3.99" rerouteNo="0" devices="tripinfo_147209_416_0 routing_147209_416_0" vType="pkw" speedFactor="0.91" vaporized=""/>
    <tripinfo id="151372_418_0" depart="25207.00" departLane="130165204_0" departPos="4.40" departSpeed="0.00" departDelay="0.00" arrival="25249.00" arrivalLane="32038051#0_1" arrivalPos="89.25" arrivalSpeed="18.39" duration="42.00" routeLength="410.03" waitingTime="1.00" waitingCount="1" stopTime="0.00" timeLoss="13.78" rerouteNo="1" devices="tripinfo_151372_418_0 routing_151372_418_0" vType="pkw" speedFactor="0.96" vaporized=""/>
    <tripinfo id="149029_417_0" depart="25236.00" departLane="27115123#2_0" departPos="4.40" departSpeed="0.00" departDelay="0.00" arrival="25259.00" arrivalLane="32038051#0_1" arrivalPos="89.25" arrivalSpeed="17.13" duration="23.00" routeLength="196.41" waitingTime="0.00" waitingCount="0" stopTime="0.00" timeLoss="11.36" rerouteNo="1" devices="tripinfo_149029_417_0 routing_149029_417_0" vType="pkw" speedFactor="0.93" vaporized=""/>
    <tripinfo id="123965_406_0" depart="25218.00" departLane="-32038056#3_0" departPos="4.40" departSpeed="0.00" departDelay="0.00" arrival="25268.00" arrivalLane="-28198821#4_0" arrivalPos="57.10" arrivalSpeed="14.86" duration="50.00" routeLength="437.47" waitingTime="9.00" waitingCount="1" stopTime="0.00" timeLoss="20.57" rerouteNo="0" devices="tripinfo_123965_406_0 routing_123965_406_0" vType="pkw" speedFactor="1.09" vaporized=""/>
    <tripinfo id="91582_392_0" depart="25221.00" departLane="-32038056#3_0" departPos="4.40" departSpeed="0.00" departDelay="3.00" arrival="25269.00" arrivalLane="32324544#0_1" arrivalPos="90.48" arrivalSpeed="17.64" duration="48.00" routeLength="465.51" waitingTime="5.00" waitingCount="1" stopTime="0.00" timeLoss="15.04" rerouteNo="0" devices="tripinfo_91582_392_0 routing_91582_392_0" vType="pkw" speedFactor="0.96" vaporized=""/>
    <tripinfo id="160150_421_0" depart="25224.00" departLane="-32038056#3_0" departPos="4.40" departSpeed="0.00" departDelay="5.00" arrival="25279.00" arrivalLane="32038051#0_0" arrivalPos="89.25" arrivalSpeed="17.47" duration="55.00" routeLength="446.95" waitingTime="6.00" waitingCount="2" stopTime="0.00" timeLoss="20.72" rerouteNo="0" devices="tripinfo_160150_421_0 routing_160150_421_0" vType="pkw" speedFactor="0.91" vaporized=""/>
    <tripinfo id="162814_422_0" depart="25233.00" departLane="-32038056#3_0" departPos="4.40" departSpeed="0.00" departDelay="0.00" arrival="25289.00" arrivalLane="32038051#0_0" arrivalPos="89.25" arrivalSpeed="18.71" duration="56.00" routeLength="446.95" waitingTime="9.00" waitingCount="2" stopTime="0.00" timeLoss="24.54" rerouteNo="0" devices="tripinfo_162814_422_0 routing_162814_422_0" vType="pkw" speedFactor="0.98" vaporized=""/>
    <tripinfo id="130602_409_0" depart="25268.00" departLane="-32038056#3_0" departPos="4.40" departSpeed="0.00" departDelay="0.00" arrival="25307.00" arrivalLane="-28198821#4_0" arrivalPos="57.10" arrivalSpeed="14.17" duration="39.00" routeLength="437.47" waitingTime="0.00" waitingCount="0" stopTime="0.00" timeLoss="8.18" rerouteNo="0" devices="tripinfo_130602_409_0 routing_130602_409_0" vType="pkw" speedFactor="1.04" vaporized=""/>
    <tripinfo id="128446_408_0" depart="25273.00" departLane="-32038056#3_0" departPos="4.40" departSpeed="0.00" departDelay="0.00" arrival="25310.00" arrivalLane="32324544#0_1" arrivalPos="90.48" arrivalSpeed="19.55" duration="37.00" routeLength="465.51" waitingTime="0.00" waitingCount="0" stopTime="0.00" timeLoss="7.80" rerouteNo="0" devices="tripinfo_128446_408_0 routing_128446_408_0" vType="pkw" speedFactor="1.07" vaporized=""/>
    <tripinfo id="115444_403_0" depart="25294.00" departLane="28198821#3_0" departPos="4.40" departSpeed="0.00" departDelay="0.00" arrival="25310.00" arrivalLane="32038051#0_1" arrivalPos="89.25" arrivalSpeed="18.83" duration="16.00" routeLength="170.57" waitingTime="0.00" waitingCount="0" stopTime="0.00" timeLoss="5.73" rerouteNo="0" devices="tripinfo_115444_403_0 routing_115444_403_0" vType="pkw" speedFactor="0.98" vaporized=""/>
    <tripinfo id="103540_397_0" depart="25300.00" departLane="28198821#3_0" departPos="4.40" departSpeed="0.00" departDelay="0.00" arrival="25314.00" arrivalLane="32038051#0_1" arrivalPos="89.25" arrivalSpeed="19.97" duration="14.00" routeLength="170.57" waitingTime="0.00" waitingCount="0" stopTime="0.00" timeLoss="3.70" rerouteNo="0" devices="tripinfo_103540_397_0 routing_103540_397_0" vType="pkw" speedFactor="1.03" vaporized=""/>
    <tripinfo id="83516_390_0" depart="25275.00" departLane="-32038056#3_0" departPos="4.40" departSpeed="0.00" departDelay="0.00" arrival="25315.00" arrivalLane="32324544#0_1" arrivalPos="90.48" arrivalSpeed="16.75" duration="40.00" routeLength="465.51" waitingTime="0.00" waitingCount="0" stopTime="0.00" timeLoss="4.41" rerouteNo="0" devices="tripinfo_83516_390_0 routing_83516_390_0" vType="pkw" speedFactor="0.88" vaporized=""/>
    <tripinfo id="113303_402_0" depart="25283.00" departLane="-32038056#3_0" departPos="4.40" departSpeed="0.00" departDelay="0.00" arrival="25326.00" arrivalLane="32324544#0_1" arrivalPos="90.48" arrivalSpeed="15.50" duration="43.00" routeLength="465.51" waitingTime="0.00" waitingCount="0" stopTime="0.00" timeLoss="5.22" rerouteNo="0" devices="tripinfo_113303_402_0 routing_113303_402_0" vType="pkw" speedFactor="0.85" vaporized=""/>
    <tripinfo id="162096_421_0" depart="25306.00" departLane="130165204_0" departPos="4.40" departSpeed="0.00" departDelay="0.00" arrival="25349.00" arrivalLane="32038051#0_1" arrivalPos="89.25" arrivalSpeed="19.21" duration="43.00" routeLength="410.03" waitingTime="2.00" waitingCount="1" stopTime="0.00" timeLoss="16.29" rerouteNo="1" devices="tripinfo_162096_421_0 routing_162096_421_0" vType="pkw" speedFactor="0.99" vaporized=""/>
    <tripinfo id="175147_428_0" depart="25324.00" departLane="130165204_0" departPos="4.40" departSpeed="0.00" departDelay="0.00" arrival="25360.00" arrivalLane="32038051#0_1" arrivalPos="89.25" arrivalSpeed="18.04" duration="36.00" routeLength="410.03" waitingTime="0.00" waitingCount="0" stopTime="0.00" timeLoss="8.31" rerouteNo="1" devices="tripinfo_175147_428_0 routing_175147_428_0" vType="pkw" speedFactor="0.96" vaporized=""/>
    <tripinfo id="161721_421_0" depart="25337.00" departLane="130165204_0" departPos="4.40" departSpeed="0.00" departDelay="0.00" arrival="25378.00" arrivalLane="32038051#0_1" arrivalPos="89.25" arrivalSpeed="19.68" duration="41.00" routeLength="410.03" waitingTime="4.00" waitingCount="1" stopTime="0.00" timeLoss="16.39" rerouteNo="1" devices="tripinfo_161721_421_0 routing_161721_421_0" vType="pkw" speedFactor="1.07" vaporized=""/>
    <tripinfo id="136669_411_0" depart="25566.00" departLane="28198821#3_0" departPos="4.40" departSpeed="0.00" departDelay="0.00" arrival="25580.00" arrivalLane="32038051#0_1" arrivalPos="89.25" arrivalSpeed="20.54" duration="14.00" routeLength="170.57" waitingTime="0.00" waitingCount="0" stopTime="0.00" timeLoss="4.20" rerouteNo="0" devices="tripinfo_136669_411_0 routing_136669_411_0" vType="pkw" speedFactor="1.10" vaporized=""/>
    <tripinfo id="126742_407_0" depart="25243.00" departLane="23429231#1_0" departPos="4.40" departSpeed="0.00" departDelay="3.00" arrival="26612.00" arrivalLane="32038051#0_1" arrivalPos="89.25" arrivalSpeed="19.36" duration="1369.00" routeLength="203.79" waitingTime="1345.00" waitingCount="1" stopTime="0.00" timeLoss="1358.48" rerouteNo="0" devices="tripinfo_126742_407_0 routing_126742_407_0" vType="pkw" speedFactor="1.00" vaporized=""/>
    <tripinfo id="121258_405_0" depart="25240.00" departLane="23429231#1_0" departPos="4.40" departSpeed="0.00" departDelay="0.00" arrival="26613.00" arrivalLane="32038051#0_0" arrivalPos="89.25" arrivalSpeed="17.09" duration="1373.00" routeLength="203.79" waitingTime="1350.00" waitingCount="1" stopTime="0.00" timeLoss="1360.75" rerouteNo="0" devices="tripinfo_121258_405_0 routing_121258_405_0" vType="pkw" speedFactor="0.91" vaporized=""/>
    <tripinfo id="148629_417_0" depart="25284.00" departLane="27115123#2_0" departPos="4.40" departSpeed="0.00" departDelay="0.00" arrival="26613.00" arrivalLane="32324544#0_0" arrivalPos="90.48" arrivalSpeed="17.46" duration="1329.00" routeLength="198.06" waitingTime="1307.00" waitingCount="1" stopTime="0.00" timeLoss="1317.41" rerouteNo="1" devices="tripinfo_148629_417_0 routing_148629_417_0" vType="pkw" speedFactor="0.94" vaporized=""/>
    <tripinfo id="154290_420_0" depart="25431.00" departLane="27115123#2_0" departPos="4.40" departSpeed="0.00" departDelay="0.00" arrival="26613.00" arrivalLane="32324544#0_1" arrivalPos="90.48" arrivalSpeed="20.52" duration="1182.00" routeLength="198.06" waitingTime="1158.00" waitingCount="1" stopTime="0.00" timeLoss="1171.57" rerouteNo="1" devices="tripinfo_154290_420_0 routing_154290_420_0" vType="pkw" speedFactor="1.06" vaporized=""/>
    <tripinfo id="102501_396_0" depart="25246.00" departLane="23429231#1_0" departPos="4.40" departSpeed="0.00" departDelay="2.00" arrival="26615.00" arrivalLane="32038051#0_0" arrivalPos="89.25" arrivalSpeed="21.24" duration="1369.00" routeLength="203.79" waitingTime="1345.00" waitingCount="1" stopTime="0.00" timeLoss="1359.17" rerouteNo="0" devices="tripinfo_102501_396_0 routing_102501_396_0" vType="pkw" speedFactor="1.14" vaporized=""/>
    <tripinfo id="129330_408_0" depart="25434.00" departLane="27115123#2_0" departPos="4.40" departSpeed="0.00" departDelay="2.00" arrival="26615.00" arrivalLane="32324544#0_0" arrivalPos="90.48" arrivalSpeed="20.71" duration="1181.00" routeLength="198.06" waitingTime="1158.00" waitingCount="1" stopTime="0.00" timeLoss="1171.08" rerouteNo="1" devices="tripinfo_129330_408_0 routing_129330_408_0" vType="pkw" speedFactor="1.08" vaporized=""/>
    <tripinfo id="130147_409_0" depart="25253.00" departLane="23429231#1_0" departPos="4.40" departSpeed="0.00" departDelay="2.00" arrival="26616.00" arrivalLane="32038051#0_1" arrivalPos="89.25" arrivalSpeed="17.62" duration="1363.00" routeLength="203.79" waitingTime="1339.00" waitingCount="1" stopTime="0.00" timeLoss="1351.68" rerouteNo="0" devices="tripinfo_130147_409_0 routing_130147_409_0" vType="pkw" speedFactor="0.94" vaporized=""/>
    <tripinfo id="120663_405_0" depart="25248.00" departLane="23429231#1_0" departPos="4.40" departSpeed="0.00" departDelay="2.00" arrival="26617.00" arrivalLane="32038051#0_0" arrivalPos="89.25" arrivalSpeed="15.94" duration="1369.00" routeLength="203.79" waitingTime="1344.00" waitingCount="1" stopTime="0.00" timeLoss="1355.89" rerouteNo="0" devices="tripinfo_120663_405_0 routing_120663_405_0" vType="pkw" speedFactor="0.83" vaporized=""/>
    <tripinfo id="153635_420_0" depart="25460.00" departLane="27115123#2_0" departPos="4.40" departSpeed="0.00" departDelay="0.00" arrival="26617.00" arrivalLane="32324544#0_0" arrivalPos="90.48" arrivalSpeed="18.58" duration="1157.00" routeLength="198.06" waitingTime="1133.00" waitingCount="1" stopTime="0.00" timeLoss="1145.79" rerouteNo="1" devices="tripinfo_153635_420_0 routing_153635_420_0" vType="pkw" speedFactor="0.96" vaporized=""/>
    <tripinfo id="145855_416_0" depart="25469.00" departLane="27115123#2_0" departPos="4.40" departSpeed="0.00" departDelay="0.00" arrival="26617.00" arrivalLane="32324544#0_1" arrivalPos="90.48" arrivalSpeed="16.51" duration="1148.00" routeLength="198.06" waitingTime="1123.00" waitingCount="1" stopTime="0.00" timeLoss="1135.68" rerouteNo="1" devices="tripinfo_145855_416_0 routing_145855_416_0" vType="pkw" speedFactor="0.85" vaporized=""/>
    <tripinfo id="102630_396_0" depart="25255.00" departLane="23429231#1_0" departPos="4.40" departSpeed="0.00" departDelay="3.00" arrival="26618.00" arrivalLane="32038051#0_0" arrivalPos="89.25" arrivalSpeed="18.72" duration="1363.00" routeLength="203.79" waitingTime="1338.00" waitingCount="1" stopTime="0.00" timeLoss="1352.69" rerouteNo="0" devices="tripinfo_102630_396_0 routing_102630_396_0" vType="pkw" speedFactor="1.02" vaporized=""/>
    <tripinfo id="122376_406_0" depart="25258.00" departLane="23429231#1_0" departPos="4.40" departSpeed="0.00" departDelay="4.00" arrival="26618.00" arrivalLane="32038051#0_1" arrivalPos="89.25" arrivalSpeed="19.80" duration="1360.00" routeLength="203.79" waitingTime="1336.00" waitingCount="1" stopTime="0.00" timeLoss="1349.31" rerouteNo="0" devices="tripinfo_122376_406_0 routing_122376_406_0" vType="pkw" speedFactor="1.05" vaporized=""/>
    <tripinfo id="161689_421_0" depart="25467.00" departLane="130165204_0" departPos="4.40" departSpeed="0.00" departDelay="0.00" arrival="26618.00" arrivalLane="32324544#0_0" arrivalPos="90.48" arrivalSpeed="18.90" duration="1151.00" routeLength="411.68" waitingTime="1110.00" waitingCount="1" stopTime="0.00" timeLoss="1126.28" rerouteNo="1" devices="tripinfo_161689_421_0 routing_161689_421_0" vType="pkw" speedFactor="1.07" vaporized=""/>
    <tripinfo id="164382_422_0" depart="25470.00" departLane="130165204_0" departPos="4.40" departSpeed="0.00" departDelay="1.00" arrival="26619.00" arrivalLane="32324544#0_1" arrivalPos="90.48" arrivalSpeed="17.23" duration="1149.00" routeLength="411.68" waitingTime="1105.00" waitingCount="1" stopTime="0.00" timeLoss="1120.36" rerouteNo="1" devices="tripinfo_164382_422_0 routing_164382_422_0" vType="pkw" speedFactor="0.95" vaporized=""/>
    <tripinfo id="122194_406_0" depart="25261.00" departLane="23429231#1_0" departPos="4.40" departSpeed="0.00" departDelay="6.00" arrival="26620.00" arrivalLane="32038051#0_0" arrivalPos="89.25" arrivalSpeed="16.89" duration="1359.00" routeLength="203.79" waitingTime="1335.00" waitingCount="1" stopTime="0.00" timeLoss="1347.22" rerouteNo="0" devices="tripinfo_122194_406_0 routing_122194_406_0" vType="pkw" speedFactor="0.93" vaporized=""/>
    <tripinfo id="135103_411_0" depart="25263.00" departLane="23429231#1_0" departPos="4.40" departSpeed="0.00" departDelay="7.00" arrival="26620.00" arrivalLane="32038051#0_1" arrivalPos="89.25" arrivalSpeed="15.77" duration="1357.00" routeLength="203.79" waitingTime="1331.00" waitingCount="1" stopTime="0.00" timeLoss="1343.95" rerouteNo="0" devices="tripinfo_135103_411_0 routing_135103_411_0" vType="pkw" speedFactor="0.82" vaporized=""/>
    <tripinfo id="100928_396_0" depart="25473.00" departLane="130165204_0" departPos="4.40" departSpeed="0.00" departDelay="1.00" arrival="26620.00" arrivalLane="32324544#0_0" arrivalPos="90.48" arrivalSpeed="19.89" duration="1147.00" routeLength="411.68" waitingTime="1105.00" waitingCount="1" stopTime="0.00" timeLoss="1125.52" rerouteNo="1" devices="tripinfo_100928_396_0 routing_100928_396_0" vType="pkw" speedFactor="1.25" vaporized=""/>
    <tripinfo id="159287_421_0" depart="25503.00" departLane="27115123#2_0" departPos="4.40" departSpeed="0.00" departDelay="0.00" arrival="26620.00" arrivalLane="32324544#0_1" arrivalPos="90.48" arrivalSpeed="16.54" duration="1117.00" routeLength="198.06" waitingTime="1092.00" waitingCount="1" stopTime="0.00" timeLoss="1105.29" rerouteNo="1" devices="tripinfo_159287_421_0 routing_159287_421_0" vType="pkw" speedFactor="0.90" vaporized=""/>
    <tripinfo id="152958_419_0" depart="25266.00" departLane="23429231#1_0" departPos="4.40" departSpeed="0.00" departDelay="9.00" arrival="26621.00" arrivalLane="32038051#0_0" arrivalPos="89.25" arrivalSpeed="20.59" duration="1355.00" routeLength="203.79" waitingTime="1331.00" waitingCount="1" stopTime="0.00" timeLoss="1345.60" rerouteNo="0" devices="tripinfo_152958_419_0 routing_152958_419_0" vType="pkw" speedFactor="1.14" vaporized=""/>
    <tripinfo id="154948_420_0" depart="25506.00" departLane="27115123#2_0" departPos="4.40" departSpeed="0.00" departDelay="2.00" arrival="26621.00" arrivalLane="32324544#0_0" arrivalPos="90.48" arrivalSpeed="21.04" duration="1115.00" routeLength="198.06" waitingTime="1091.00" waitingCount="1" stopTime="0.00" timeLoss="1105.90" rerouteNo="1" devices="tripinfo_154948_420_0 routing_154948_420_0" vType="pkw" speedFactor="1.12" vaporized=""/>
    <tripinfo id="125613_406_0" depart="25269.00" departLane="23429231#1_0" departPos="4.40" departSpeed="0.00" departDelay="11.00" arrival="26622.00" arrivalLane="32038051#0_1" arrivalPos="89.25" arrivalSpeed="19.89" duration="1353.00" routeLength="203.79" waitingTime="1327.00" waitingCount="1" stopTime="0.00" timeLoss="1342.47" rerouteNo="0" devices="tripinfo_125613_406_0 routing_125613_406_0" vType="pkw" speedFactor="1.07" vaporized=""/>
    <tripinfo id="95692_394_0" depart="25510.00" departLane="27115123#2_0" departPos="4.40" departSpeed="0.00" departDelay="0.00" arrival="26622.00" arrivalLane="32324544#0_1" arrivalPos="90.48" arrivalSpeed="21.67" duration="1112.00" routeLength="198.06" waitingTime="1087.00" waitingCount="1" stopTime="0.00" timeLoss="1102.39" rerouteNo="1" devices="tripinfo_95692_394_0 routing_95692_394_0" vType="pkw" speedFactor="1.15" vaporized=""/>
    <tripinfo id="133955_411_0" depart="25271.00" departLane="23429231#1_0" departPos="4.40" departSpeed="0.00" departDelay="12.00" arrival="26623.00" arrivalLane="32038051#0_1" arrivalPos="89.25" arrivalSpeed="18.60" duration="1352.00" routeLength="203.79" waitingTime="1326.00" waitingCount="1" stopTime="0.00" timeLoss="1342.00" rerouteNo="0" devices="tripinfo_133955_411_0 routing_133955_411_0" vType="pkw" speedFactor="1.07" vaporized=""/>
    <tripinfo id="129253_408_0" depart="25274.00" departLane="23429231#1_0" departPos="4.40" departSpeed="0.00" departDelay="14.00" arrival="26623.00" arrivalLane="32038051#0_0" arrivalPos="89.25" arrivalSpeed="19.75" duration="1349.00" routeLength="203.79" waitingTime="1324.00" waitingCount="1" stopTime="0.00" timeLoss="1339.48" rerouteNo="0" devices="tripinfo_129253_408_0 routing_129253_408_0" vType="pkw" speedFactor="1.15" vaporized=""/>
    <tripinfo id="160712_421_0" depart="25514.00" departLane="27115123#2_0" departPos="4.40" departSpeed="0.00" departDelay="0.00" arrival="26623.00" arrivalLane="32324544#0_0" arrivalPos="90.48" arrivalSpeed="20.33" duration="1109.00" routeLength="198.06" waitingTime="1085.00" waitingCount="1" stopTime="0.00" timeLoss="1098.76" rerouteNo="1" devices="tripinfo_160712_421_0 routing_160712_421_0" vType="pkw" speedFactor="1.05" vaporized=""/>
    <tripinfo id="120275_405_0" depart="25276.00" departLane="23429231#1_0" departPos="4.40" departSpeed="0.00" departDelay="15.00" arrival="26624.00" arrivalLane="32038051#0_0" arrivalPos="89.25" arrivalSpeed="20.59" duration="1348.00" routeLength="203.79" waitingTime="1323.00" waitingCount="1" stopTime="0.00" timeLoss="1338.30" rerouteNo="0" devices="tripinfo_120275_405_0 routing_120275_405_0" vType="pkw" speedFactor="1.08" vaporized=""/>
    <tripinfo id="139907_414_0" depart="25535.00" departLane="27115123#2_0" departPos="4.40" departSpeed="0.00" departDelay="0.00" arrival="26624.00" arrivalLane="32324544#0_1" arrivalPos="90.48" arrivalSpeed="16.25" duration="1089.00" routeLength="198.06" waitingTime="1063.00" waitingCount="1" stopTime="0.00" timeLoss="1076.42" rerouteNo="1" devices="tripinfo_139907_414_0 routing_139907_414_0" vType="pkw" speedFactor="0.85" vaporized=""/>
    <tripinfo id="116532_404_0" depart="25579.00" departLane="27115123#2_0" departPos="4.40" departSpeed="0.00" departDelay="0.00" arrival="26625.00" arrivalLane="32324544#0_0" arrivalPos="90.48" arrivalSpeed="17.27" duration="1046.00" routeLength="198.06" waitingTime="1023.00" waitingCount="1" stopTime="0.00" timeLoss="1034.92" rerouteNo="1" devices="tripinfo_116532_404_0 routing_116532_404_0" vType="pkw" speedFactor="0.98" vaporized=""/>
    <tripinfo id="135201_411_0" depart="25280.00" departLane="23429231#1_0" departPos="4.40" departSpeed="0.00" departDelay="16.00" arrival="26626.00" arrivalLane="32038051#0_0" arrivalPos="89.25" arrivalSpeed="20.19" duration="1346.00" routeLength="203.79" waitingTime="1320.00" waitingCount="1" stopTime="0.00" timeLoss="1335.67" rerouteNo="0" devices="tripinfo_135201_411_0 routing_135201_411_0" vType="pkw" speedFactor="1.07" vaporized=""/>
    <tripinfo id="86189_391_0" depart="25282.00" departLane="23429231#1_0" departPos="4.40" departSpeed="0.00" departDelay="17.00" arrival="26626.00" arrivalLane="32038051#0_1" arrivalPos="89.25" arrivalSpeed="22.11" duration="1344.00" routeLength="203.79" waitingTime="1319.00" waitingCount="1" stopTime="0.00" timeLoss="1334.09" rerouteNo="0" devices="tripinfo_86189_391_0 routing_86189_391_0" vType="pkw" speedFactor="1.14" vaporized=""/>
    <tripinfo id="102993_397_0" depart="25585.00" departLane="27115123#2_0" departPos="4.40" departSpeed="0.00" departDelay="0.00" arrival="26626.00" arrivalLane="32324544#0_0" arrivalPos="90.48" arrivalSpeed="16.58" duration="1041.00" routeLength="198.06" waitingTime="1019.00" waitingCount="1" stopTime="0.00" timeLoss="1029.32" rerouteNo="1" devices="tripinfo_102993_397_0 routing_102993_397_0" vType="pkw" speedFactor="0.88" vaporized=""/>
    <tripinfo id="135158_411_0" depart="25587.00" departLane="27115123#2_0" departPos="4.40" departSpeed="0.00" departDelay="0.00" arrival="26627.00" arrivalLane="32324544#0_1" arrivalPos="90.48" arrivalSpeed="19.51" duration="1040.00" routeLength="198.06" waitingTime="1016.00" waitingCount="1" stopTime="0.00" timeLoss="1029.68" rerouteNo="1" devices="tripinfo_135158_411_0 routing_135158_411_0" vType="pkw" speedFactor="1.01" vaporized=""/>
    <tripinfo id="57065_374_0" depart="25285.00" departLane="23429231#1_0" departPos="4.40" departSpeed="0.00" departDelay="19.00" arrival="26628.00" arrivalLane="32038051#0_0" arrivalPos="89.25" arrivalSpeed="15.21" duration="1343.00" routeLength="203.79" waitingTime="1316.00" waitingCount="1" stopTime="0.00" timeLoss="1329.86" rerouteNo="0" devices="tripinfo_57065_374_0 routing_57065_374_0" vType="pkw" speedFactor="0.80" vaporized=""/>
    <tripinfo id="129519_408_0" depart="25288.00" departLane="23429231#1_0" departPos="4.40" departSpeed="0.00" departDelay="21.00" arrival="26628.00" arrivalLane="32038051#0_1" arrivalPos="89.25" arrivalSpeed="21.16" duration="1340.00" routeLength="203.79" waitingTime="1315.00" waitingCount="1" stopTime="0.00" timeLoss="1329.56" rerouteNo="0" devices="tripinfo_129519_408_0 routing_129519_408_0" vType="pkw" speedFactor="1.09" vaporized=""/>
    <tripinfo id="130800_409_0" depart="25602.00" departLane="27115123#2_0" departPos="4.40" departSpeed="0.00" departDelay="0.00" arrival="26628.00" arrivalLane="32324544#0_0" arrivalPos="90.48" arrivalSpeed="16.49" duration="1026.00" routeLength="198.06" waitingTime="1003.00" waitingCount="1" stopTime="0.00" timeLoss="1014.17" rerouteNo="1" devices="tripinfo_130800_409_0 routing_130800_409_0" vType="pkw" speedFactor="0.91" vaporized=""/>
    <tripinfo id="115551_403_0" depart="25605.00" departLane="27115123#2_0" departPos="4.40" departSpeed="0.00" departDelay="0.00" arrival="26629.00" arrivalLane="32324544#0_0" arrivalPos="90.48" arrivalSpeed="19.32" duration="1024.00" routeLength="198.06" waitingTime="1001.00" waitingCount="1" stopTime="0.00" timeLoss="1014.75" rerouteNo="1" devices="tripinfo_115551_403_0 routing_115551_403_0" vType="pkw" speedFactor="1.13" vaporized=""/>
    <tripinfo id="82015_389_0" depart="25291.00" departLane="23429231#1_0" departPos="4.40" departSpeed="0.00" departDelay="23.00" arrival="26630.00" arrivalLane="32038051#0_0" arrivalPos="89.25" arrivalSpeed="17.85" duration="1339.00" routeLength="203.79" waitingTime="1314.00" waitingCount="1" stopTime="0.00" timeLoss="1327.40" rerouteNo="0" devices="tripinfo_82015_389_0 routing_82015_389_0" vType="pkw" speedFactor="0.95" vaporized=""/>
    <tripinfo id="136204_411_0" depart="25293.00" departLane="23429231#1_0" departPos="4.40" departSpeed="0.00" departDelay="24.00" arrival="26630.00" arrivalLane="32038051#0_1" arrivalPos="89.25" arrivalSpeed="17.05" duration="1337.00" routeLength="203.79" waitingTime="1311.00" waitingCount="1" stopTime="0.00" timeLoss="1324.51" rerouteNo="0" devices="tripinfo_136204_411_0 routing_136204_411_0" vType="pkw" speedFactor="0.88" vaporized=""/>
    <tripinfo id="135431_411_0" depart="25296.00" departLane="23429231#1_0" departPos="4.40" departSpeed="0.00" departDelay="27.00" arrival="26631.00" arrivalLane="32038051#0_0" arrivalPos="89.25" arrivalSpeed="18.10" duration="1335.00" routeLength="203.79" waitingTime="1309.00" waitingCount="1" stopTime="0.00" timeLoss="1325.08" rerouteNo="0" devices="tripinfo_135431_411_0 routing_135431_411_0" vType="pkw" speedFactor="1.06" vaporized=""/>
    <tripinfo id="146814_416_0" depart="25299.00" departLane="23429231#1_0" departPos="4.40" departSpeed="0.00" departDelay="28.00" arrival="26631.00" arrivalLane="32038051#0_1" arrivalPos="89.25" arrivalSpeed="17.66" duration="1332.00" routeLength="203.79" waitingTime="1309.00" waitingCount="1" stopTime="0.00" timeLoss="1320.94" rerouteNo="0" devices="tripinfo_146814_416_0 routing_146814_416_0" vType="pkw" speedFactor="0.96" vaporized=""/>
    <tripinfo id="83429_390_0" depart="25608.00" departLane="27115123#2_0" departPos="4.40" departSpeed="0.00" departDelay="0.00" arrival="26632.00" arrivalLane="32324544#0_1" arrivalPos="90.48" arrivalSpeed="23.22" duration="1024.00" routeLength="198.06" waitingTime="999.00" waitingCount="1" stopTime="0.00" timeLoss="1015.19" rerouteNo="1" devices="tripinfo_83429_390_0 routing_83429_390_0" vType="pkw" speedFactor="1.28" vaporized=""/>
    <tripinfo id="125316_406_0" depart="25301.00" departLane="23429231#1_0" departPos="4.40" departSpeed="0.00" departDelay="30.00" arrival="26633.00" arrivalLane="32038051#0_0" arrivalPos="89.25" arrivalSpeed="17.88" duration="1332.00" routeLength="203.79" waitingTime="1306.00" waitingCount="1" stopTime="0.00" timeLoss="1321.02" rerouteNo="0" devices="tripinfo_125316_406_0 routing_125316_406_0" vType="pkw" speedFactor="1.00" vaporized=""/>
    <tripinfo id="118286_405_0" depart="25304.00" departLane="23429231#1_0" departPos="4.40" departSpeed="0.00" departDelay="31.00" arrival="26633.00" arrivalLane="32038051#0_1" arrivalPos="89.25" arrivalSpeed="17.36" duration="1329.00" routeLength="203.79" waitingTime="1304.00" waitingCount="1" stopTime="0.00" timeLoss="1317.41" rerouteNo="0" devices="tripinfo_118286_405_0 routing_118286_405_0" vType="pkw" speedFactor="0.95" vaporized=""/>
    <tripinfo id="175864_428_0" depart="25490.00" departLane="130165204_0" departPos="4.40" departSpeed="0.00" departDelay="0.00" arrival="26633.00" arrivalLane="32324544#0_0" arrivalPos="90.48" arrivalSpeed="15.06" duration="1143.00" routeLength="411.68" waitingTime="1100.00" waitingCount="1" stopTime="0.00" timeLoss="1110.60" rerouteNo="1" devices="tripinfo_175864_428_0 routing_175864_428_0" vType="pkw" speedFactor="0.83" vaporized=""/>
    <tripinfo id="108236_400_0" depart="25309.00" departLane="23429231#1_0" departPos="4.40" departSpeed="0.00" departDelay="35.00" arrival="26634.00" arrivalLane="32038051#0_1" arrivalPos="89.25" arrivalSpeed="19.05" duration="1325.00" routeLength="203.79" waitingTime="1303.00" waitingCount="1" stopTime="0.00" timeLoss="1314.45" rerouteNo="0" devices="tripinfo_108236_400_0 routing_108236_400_0" vType="pkw" speedFactor="1.00" vaporized=""/>