<?xml version="1.0" encoding="UTF-8"?>

<!-- generated on 2023-08-31 13:17:35 by Eclipse SUMO libsumo Version 1.18.0
<configuration xmlns:xsi="http://www.w3.org/2001/XMLSchema-instance" xsi:noNamespaceSchemaLocation="http://sumo.dlr.de/xsd/libsumoConfiguration.xsd">

    <input>
        <net-file value="/home/stefan/RESCO/./environments/cologne1/cologne1.net.xml"/>
        <route-files value="/home/stefan/RESCO/./environments/cologne1/cologne1.rou.xml"/>
    </input>

    <output>
        <tripinfo-output value="/home/stefan/results/RAINBOW-tr0-cologne1-0-drq_norm-wait_norm/tripinfo_61.xml"/>
        <tripinfo-output.write-unfinished value="true"/>
    </output>

    <time>
        <begin value="25200"/>
        <end value="28800"/>
    </time>

    <processing>
        <time-to-teleport value="-1"/>
    </processing>

    <report>
        <no-warnings value="True"/>
        <no-step-log value="True"/>
    </report>

    <random_number>
        <random value="true"/>
    </random_number>

</configuration>
-->

<tripinfos xmlns:xsi="http://www.w3.org/2001/XMLSchema-instance" xsi:noNamespaceSchemaLocation="http://sumo.dlr.de/xsd/tripinfo_file.xsd">
    <tripinfo id="124779_406_0" depart="25205.00" departLane="28198821#3_0" departPos="4.40" departSpeed="0.00" departDelay="0.00" arrival="25220.00" arrivalLane="32038051#0_1" arrivalPos="89.25" arrivalSpeed="20.78" duration="15.00" routeLength="170.57" waitingTime="0.00" waitingCount="0" stopTime="0.00" timeLoss="5.69" rerouteNo="0" devices="tripinfo_124779_406_0 routing_124779_406_0" vType="pkw" speedFactor="1.09" vaporized=""/>
    <tripinfo id="98305_395_0" depart="25211.00" departLane="28198821#3_0" departPos="4.40" departSpeed="0.00" departDelay="0.00" arrival="25225.00" arrivalLane="32038051#0_1" arrivalPos="89.25" arrivalSpeed="18.87" duration="14.00" routeLength="170.57" waitingTime="0.00" waitingCount="0" stopTime="0.00" timeLoss="3.38" rerouteNo="0" devices="tripinfo_98305_395_0 routing_98305_395_0" vType="pkw" speedFactor="1.00" vaporized=""/>
    <tripinfo id="102535_396_0" depart="25218.00" departLane="28198821#3_0" departPos="4.40" departSpeed="0.00" departDelay="0.00" arrival="25232.00" arrivalLane="32038051#0_1" arrivalPos="89.25" arrivalSpeed="19.83" duration="14.00" routeLength="170.57" waitingTime="0.00" waitingCount="0" stopTime="0.00" timeLoss="3.98" rerouteNo="0" devices="tripinfo_102535_396_0 routing_102535_396_0" vType="pkw" speedFactor="1.07" vaporized=""/>
    <tripinfo id="147209_416_0" depart="25220.00" departLane="28198821#3_0" departPos="4.40" departSpeed="0.00" departDelay="0.00" arrival="25234.00" arrivalLane="32038051#0_1" arrivalPos="89.25" arrivalSpeed="19.71" duration="14.00" routeLength="170.57" waitingTime="0.00" waitingCount="0" stopTime="0.00" timeLoss="3.86" rerouteNo="0" devices="tripinfo_147209_416_0 routing_147209_416_0" vType="pkw" speedFactor="1.05" vaporized=""/>
    <tripinfo id="151372_418_0" depart="25207.00" departLane="130165204_0" departPos="4.40" departSpeed="0.00" departDelay="0.00" arrival="25249.00" arrivalLane="32038051#0_1" arrivalPos="89.25" arrivalSpeed="18.00" duration="42.00" routeLength="410.03" waitingTime="1.00" waitingCount="1" stopTime="0.00" timeLoss="14.23" rerouteNo="1" devices="tripinfo_151372_418_0 routing_151372_418_0" vType="pkw" speedFactor="0.96" vaporized=""/>
    <tripinfo id="149029_417_0" depart="25236.00" departLane="27115123#2_0" departPos="4.40" departSpeed="0.00" departDelay="0.00" arrival="25259.00" arrivalLane="32038051#0_1" arrivalPos="89.25" arrivalSpeed="18.95" duration="23.00" routeLength="196.41" waitingTime="0.00" waitingCount="0" stopTime="0.00" timeLoss="12.30" rerouteNo="1" devices="tripinfo_149029_417_0 routing_149029_417_0" vType="pkw" speedFactor="1.01" vaporized=""/>
    <tripinfo id="91582_392_0" depart="25221.00" departLane="-32038056#3_0" departPos="4.40" departSpeed="0.00" departDelay="3.00" arrival="25261.00" arrivalLane="32324544#0_1" arrivalPos="90.48" arrivalSpeed="18.07" duration="40.00" routeLength="465.51" waitingTime="0.00" waitingCount="0" stopTime="0.00" timeLoss="7.40" rerouteNo="0" devices="tripinfo_91582_392_0 routing_91582_392_0" vType="pkw" speedFactor="0.96" vaporized=""/>
    <tripinfo id="123965_406_0" depart="25218.00" departLane="-32038056#3_0" departPos="4.40" departSpeed="0.00" departDelay="0.00" arrival="25279.00" arrivalLane="-28198821#4_0" arrivalPos="57.10" arrivalSpeed="13.53" duration="61.00" routeLength="437.47" waitingTime="19.00" waitingCount="1" stopTime="0.00" timeLoss="29.31" rerouteNo="0" devices="tripinfo_123965_406_0 routing_123965_406_0" vType="pkw" speedFactor="1.02" vaporized=""/>
    <tripinfo id="160150_421_0" depart="25224.00" departLane="-32038056#3_0" departPos="4.40" departSpeed="0.00" departDelay="5.00" arrival="25281.00" arrivalLane="32038051#0_0" arrivalPos="89.25" arrivalSpeed="16.95" duration="57.00" routeLength="446.95" waitingTime="12.00" waitingCount="1" stopTime="0.00" timeLoss="23.40" rerouteNo="0" devices="tripinfo_160150_421_0 routing_160150_421_0" vType="pkw" speedFactor="0.91" vaporized=""/>
    <tripinfo id="162814_422_0" depart="25233.00" departLane="-32038056#3_0" departPos="4.40" departSpeed="0.00" departDelay="0.00" arrival="25282.00" arrivalLane="32038051#0_0" arrivalPos="89.25" arrivalSpeed="19.68" duration="49.00" routeLength="446.95" waitingTime="7.00" waitingCount="1" stopTime="0.00" timeLoss="19.48" rerouteNo="0" devices="tripinfo_162814_422_0 routing_162814_422_0" vType="pkw" speedFactor="1.03" vaporized=""/>
    <tripinfo id="148629_417_0" depart="25284.00" departLane="27115123#2_0" departPos="4.40" departSpeed="0.00" departDelay="0.00" arrival="25300.00" arrivalLane="32324544#0_0" arrivalPos="90.48" arrivalSpeed="17.09" duration="16.00" routeLength="198.06" waitingTime="0.00" waitingCount="0" stopTime="0.00" timeLoss="4.51" rerouteNo="1" devices="tripinfo_148629_417_0 routing_148629_417_0" vType="pkw" speedFactor="0.91" vaporized=""/>
    <tripinfo id="121258_405_0" depart="25240.00" departLane="23429231#1_0" departPos="4.40" departSpeed="0.00" departDelay="0.00" arrival="25303.00" arrivalLane="32038051#0_0" arrivalPos="89.25" arrivalSpeed="18.79" duration="63.00" routeLength="203.79" waitingTime="40.00" waitingCount="1" stopTime="0.00" timeLoss="52.52" rerouteNo="0" devices="tripinfo_121258_405_0 routing_121258_405_0" vType="pkw" speedFactor="1.06" vaporized=""/>
    <tripinfo id="126742_407_0" depart="25243.00" departLane="23429231#1_0" departPos="4.40" departSpeed="0.00" departDelay="3.00" arrival="25303.00" arrivalLane="32038051#0_1" arrivalPos="89.25" arrivalSpeed="18.91" duration="60.00" routeLength="203.79" waitingTime="37.00" waitingCount="1" stopTime="0.00" timeLoss="48.53" rerouteNo="0" devices="tripinfo_126742_407_0 routing_126742_407_0" vType="pkw" speedFactor="0.99" vaporized=""/>
    <tripinfo id="102501_396_0" depart="25246.00" departLane="23429231#1_0" departPos="4.40" departSpeed="0.00" departDelay="2.00" arrival="25305.00" arrivalLane="32038051#0_0" arrivalPos="89.25" arrivalSpeed="18.68" duration="59.00" routeLength="203.79" waitingTime="36.00" waitingCount="1" stopTime="0.00" timeLoss="47.71" rerouteNo="0" devices="tripinfo_102501_396_0 routing_102501_396_0" vType="pkw" speedFactor="0.99" vaporized=""/>
    <tripinfo id="113509_402_0" depart="25251.00" departLane="23429231#1_0" departPos="4.40" departSpeed="0.00" departDelay="3.00" arrival="25305.00" arrivalLane="-28198821#4_1" arrivalPos="57.10" arrivalSpeed="12.31" duration="54.00" routeLength="179.90" waitingTime="30.00" waitingCount="1" stopTime="0.00" timeLoss="41.80" rerouteNo="0" devices="tripinfo_113509_402_0 routing_113509_402_0" vType="pkw" speedFactor="0.94" vaporized=""/>
    <tripinfo id="120663_405_0" depart="25248.00" departLane="23429231#1_0" departPos="4.40" departSpeed="0.00" departDelay="2.00" arrival="25306.00" arrivalLane="32038051#0_0" arrivalPos="89.25" arrivalSpeed="18.94" duration="58.00" routeLength="203.79" waitingTime="33.00" waitingCount="1" stopTime="0.00" timeLoss="49.44" rerouteNo="0" devices="tripinfo_120663_405_0 routing_120663_405_0" vType="pkw" speedFactor="1.25" vaporized=""/>
    <tripinfo id="130147_409_0" depart="25253.00" departLane="23429231#1_0" departPos="4.40" departSpeed="0.00" departDelay="2.00" arrival="25306.00" arrivalLane="32038051#0_1" arrivalPos="89.25" arrivalSpeed="18.40" duration="53.00" routeLength="203.79" waitingTime="29.00" waitingCount="1" stopTime="0.00" timeLoss="41.93" rerouteNo="0" devices="tripinfo_130147_409_0 routing_130147_409_0" vType="pkw" speedFactor="1.00" vaporized=""/>
    <tripinfo id="115444_403_0" depart="25294.00" departLane="28198821#3_0" departPos="4.40" departSpeed="0.00" departDelay="0.00" arrival="25311.00" arrivalLane="32038051#0_1" arrivalPos="89.25" arrivalSpeed="18.28" duration="17.00" routeLength="170.57" waitingTime="0.00" waitingCount="0" stopTime="0.00" timeLoss="6.26" rerouteNo="0" devices="tripinfo_115444_403_0 routing_115444_403_0" vType="pkw" speedFactor="0.95" vaporized=""/>
    <tripinfo id="128446_408_0" depart="25273.00" departLane="-32038056#3_0" departPos="4.40" departSpeed="0.00" departDelay="0.00" arrival="25312.00" arrivalLane="32324544#0_1" arrivalPos="90.48" arrivalSpeed="19.49" duration="39.00" routeLength="465.51" waitingTime="0.00" waitingCount="0" stopTime="0.00" timeLoss="8.38" rerouteNo="0" devices="tripinfo_128446_408_0 routing_128446_408_0" vType="pkw" speedFactor="1.05" vaporized=""/>
    <tripinfo id="83516_390_0" depart="25276.00" departLane="-32038056#3_0" departPos="4.40" departSpeed="0.00" departDelay="1.00" arrival="25313.00" arrivalLane="32324544#0_1" arrivalPos="90.48" arrivalSpeed="19.17" duration="37.00" routeLength="465.51" waitingTime="0.00" waitingCount="0" stopTime="0.00" timeLoss="6.63" rerouteNo="0" devices="tripinfo_83516_390_0 routing_83516_390_0" vType="pkw" speedFactor="1.04" vaporized=""/>
    <tripinfo id="103540_397_0" depart="25300.00" departLane="28198821#3_0" departPos="4.40" departSpeed="0.00" departDelay="0.00" arrival="25314.00" arrivalLane="32038051#0_1" arrivalPos="89.25" arrivalSpeed="19.04" duration="14.00" routeLength="170.57" waitingTime="0.00" waitingCount="0" stopTime="0.00" timeLoss="3.15" rerouteNo="0" devices="tripinfo_103540_397_0 routing_103540_397_0" vType="pkw" speedFactor="0.99" vaporized=""/>
    <tripinfo id="113303_402_0" depart="25284.00" departLane="-32038056#3_0" departPos="4.40" departSpeed="0.00" departDelay="1.00" arrival="25324.00" arrivalLane="32324544#0_1" arrivalPos="90.48" arrivalSpeed="16.96" duration="40.00" routeLength="465.51" waitingTime="0.00" waitingCount="0" stopTime="0.00" timeLoss="6.04" rerouteNo="0" devices="tripinfo_113303_402_0 routing_113303_402_0" vType="pkw" speedFactor="0.92" vaporized=""/>
    <tripinfo id="162096_421_0" depart="25306.00" departLane="130165204_0" departPos="4.40" departSpeed="0.00" departDelay="0.00" arrival="25340.00" arrivalLane="32038051#0_1" arrivalPos="89.25" arrivalSpeed="17.53" duration="34.00" routeLength="410.03" waitingTime="0.00" waitingCount="0" stopTime="0.00" timeLoss="5.35" rerouteNo="1" devices="tripinfo_162096_421_0 routing_162096_421_0" vType="pkw" speedFactor="0.92" vaporized=""/>
    <tripinfo id="130602_409_0" depart="25268.00" departLane="-32038056#3_0" departPos="4.40" departSpeed="0.00" departDelay="0.00" arrival="25348.00" arrivalLane="-28198821#4_0" arrivalPos="57.10" arrivalSpeed="14.52" duration="80.00" routeLength="437.47" waitingTime="39.00" waitingCount="1" stopTime="0.00" timeLoss="50.92" rerouteNo="0" devices="tripinfo_130602_409_0 routing_130602_409_0" vType="pkw" speedFactor="1.09" vaporized=""/>
    <tripinfo id="137244_412_0" depart="25298.00" departLane="-32038056#3_0" departPos="4.40" departSpeed="0.00" departDelay="4.00" arrival="25349.00" arrivalLane="-28198821#4_1" arrivalPos="57.10" arrivalSpeed="12.44" duration="51.00" routeLength="437.47" waitingTime="6.00" waitingCount="1" stopTime="0.00" timeLoss="17.12" rerouteNo="0" devices="tripinfo_137244_412_0 routing_137244_412_0" vType="pkw" speedFactor="0.95" vaporized=""/>
    <tripinfo id="175147_428_0" depart="25324.00" departLane="130165204_0" departPos="4.40" departSpeed="0.00" departDelay="0.00" arrival="25358.00" arrivalLane="32038051#0_1" arrivalPos="89.25" arrivalSpeed="20.74" duration="34.00" routeLength="410.03" waitingTime="0.00" waitingCount="0" stopTime="0.00" timeLoss="9.51" rerouteNo="1" devices="tripinfo_175147_428_0 routing_175147_428_0" vType="pkw" speedFactor="1.09" vaporized=""/>
    <tripinfo id="161721_421_0" depart="25337.00" departLane="130165204_0" departPos="4.40" departSpeed="0.00" departDelay="0.00" arrival="25379.00" arrivalLane="32038051#0_1" arrivalPos="89.25" arrivalSpeed="18.57" duration="42.00" routeLength="410.03" waitingTime="2.00" waitingCount="1" stopTime="0.00" timeLoss="15.38" rerouteNo="1" devices="tripinfo_161721_421_0 routing_161721_421_0" vType="pkw" speedFactor="1.01" vaporized=""/>
    <tripinfo id="136082_411_0" depart="25279.00" departLane="-32038056#3_0" departPos="4.40" departSpeed="0.00" departDelay="2.00" arrival="25448.00" arrivalLane="32038051#0_0" arrivalPos="89.25" arrivalSpeed="20.08" duration="169.00" routeLength="446.95" waitingTime="126.00" waitingCount="2" stopTime="0.00" timeLoss="139.67" rerouteNo="0" devices="tripinfo_136082_411_0 routing_136082_411_0" vType="pkw" speedFactor="1.05" vaporized=""/>
    <tripinfo id="138220_412_0" depart="25309.00" departLane="-32038056#3_0" departPos="4.40" departSpeed="0.00" departDelay="0.00" arrival="25448.00" arrivalLane="-28198821#4_1" arrivalPos="57.10" arrivalSpeed="14.68" duration="139.00" routeLength="437.47" waitingTime="95.00" waitingCount="1" stopTime="0.00" timeLoss="110.55" rerouteNo="0" devices="tripinfo_138220_412_0 routing_138220_412_0" vType="pkw" speedFactor="1.13" vaporized=""/>
    <tripinfo id="85818_390_0" depart="25282.00" departLane="-32038056#3_0" departPos="4.40" departSpeed="0.00" departDelay="2.00" arrival="25522.00" arrivalLane="32038051#0_0" arrivalPos="89.25" arrivalSpeed="19.12" duration="240.00" routeLength="446.95" waitingTime="191.00" waitingCount="3" stopTime="0.00" timeLoss="210.15" rerouteNo="0" devices="tripinfo_85818_390_0 routing_85818_390_0" vType="pkw" speedFactor="1.02" vaporized=""/>
    <tripinfo id="142412_415_0" depart="25307.00" departLane="-32038056#3_0" departPos="4.40" departSpeed="0.00" departDelay="0.00" arrival="25523.00" arrivalLane="-28198821#4_0" arrivalPos="57.10" arrivalSpeed="10.64" duration="216.00" routeLength="437.47" waitingTime="166.00" waitingCount="2" stopTime="0.00" timeLoss="178.05" rerouteNo="0" devices="tripinfo_142412_415_0 routing_142412_415_0" vType="pkw" speedFactor="0.84" vaporized=""/>
    <tripinfo id="86583_391_0" depart="25289.00" departLane="-32038056#3_0" departPos="4.40" departSpeed="0.00" departDelay="0.00" arrival="25524.00" arrivalLane="32038051#0_0" arrivalPos="89.25" arrivalSpeed="19.08" duration="235.00" routeLength="446.95" waitingTime="184.00" waitingCount="3" stopTime="0.00" timeLoss="204.33" rerouteNo="0" devices="tripinfo_86583_391_0 routing_86583_391_0" vType="pkw" speedFactor="1.00" vaporized=""/>
    <tripinfo id="130372_409_0" depart="25329.00" departLane="-32038056#3_0" departPos="4.40" departSpeed="0.00" departDelay="2.00" arrival="25525.00" arrivalLane="32324544#0_1" arrivalPos="90.48" arrivalSpeed="21.72" duration="196.00" routeLength="465.51" waitingTime="151.00" waitingCount="2" stopTime="0.00" timeLoss="168.24" rerouteNo="0" devices="tripinfo_130372_409_0 routing_130372_409_0" vType="pkw" speedFactor="1.13" vaporized=""/>
    <tripinfo id="120878_405_0" depart="25292.00" departLane="-32038056#3_0" departPos="4.40" departSpeed="0.00" departDelay="1.00" arrival="25526.00" arrivalLane="32038051#0_0" arrivalPos="89.25" arrivalSpeed="17.36" duration="234.00" routeLength="446.95" waitingTime="177.00" waitingCount="3" stopTime="0.00" timeLoss="200.09" rerouteNo="0" devices="tripinfo_120878_405_0 routing_120878_405_0" vType="pkw" speedFactor="0.90" vaporized=""/>
    <tripinfo id="167799_425_0" depart="25327.00" departLane="-32038056#3_0" departPos="4.40" departSpeed="0.00" departDelay="0.00" arrival="25527.00" arrivalLane="-28198821#4_1" arrivalPos="57.10" arrivalSpeed="12.74" duration="200.00" routeLength="437.47" waitingTime="149.00" waitingCount="2" stopTime="0.00" timeLoss="167.06" rerouteNo="0" devices="tripinfo_167799_425_0 routing_167799_425_0" vType="pkw" speedFactor="0.97" vaporized=""/>
    <tripinfo id="104806_398_0" depart="25332.00" departLane="-32038056#3_0" departPos="4.40" departSpeed="0.00" departDelay="3.00" arrival="25529.00" arrivalLane="32324544#0_1" arrivalPos="90.48" arrivalSpeed="17.23" duration="197.00" routeLength="465.51" waitingTime="147.00" waitingCount="2" stopTime="0.00" timeLoss="163.04" rerouteNo="0" devices="tripinfo_104806_398_0 routing_104806_398_0" vType="pkw" speedFactor="0.92" vaporized=""/>
    <tripinfo id="85922_391_0" depart="25295.00" departLane="-32038056#3_0" departPos="4.40" departSpeed="0.00" departDelay="2.00" arrival="25562.00" arrivalLane="32038051#0_0" arrivalPos="89.25" arrivalSpeed="19.61" duration="267.00" routeLength="446.95" waitingTime="205.00" waitingCount="4" stopTime="0.00" timeLoss="237.74" rerouteNo="0" devices="tripinfo_85922_391_0 routing_85922_391_0" vType="pkw" speedFactor="1.05" vaporized=""/>
    <tripinfo id="122154_406_0" depart="25337.00" departLane="-32038056#3_0" departPos="4.40" departSpeed="0.00" departDelay="0.00" arrival="25562.00" arrivalLane="-28198821#4_0" arrivalPos="57.10" arrivalSpeed="13.98" duration="225.00" routeLength="437.47" waitingTime="171.00" waitingCount="3" stopTime="0.00" timeLoss="193.63" rerouteNo="0" devices="tripinfo_122154_406_0 routing_122154_406_0" vType="pkw" speedFactor="1.02" vaporized=""/>
    <tripinfo id="135138_411_0" depart="25350.00" departLane="-32038056#3_0" departPos="4.40" departSpeed="0.00" departDelay="1.00" arrival="25563.00" arrivalLane="-28198821#4_1" arrivalPos="57.10" arrivalSpeed="15.67" duration="213.00" routeLength="437.47" waitingTime="160.00" waitingCount="3" stopTime="0.00" timeLoss="185.38" rerouteNo="0" devices="tripinfo_135138_411_0 routing_135138_411_0" vType="pkw" speedFactor="1.15" vaporized=""/>
    <tripinfo id="125917_406_0" depart="25547.00" departLane="28198821#3_0" departPos="4.40" departSpeed="0.00" departDelay="0.00" arrival="25563.00" arrivalLane="32324544#0_0" arrivalPos="90.48" arrivalSpeed="14.20" duration="16.00" routeLength="155.13" waitingTime="0.00" waitingCount="0" stopTime="0.00" timeLoss="3.24" rerouteNo="0" devices="tripinfo_125917_406_0 routing_125917_406_0" vType="pkw" speedFactor="0.75" vaporized=""/>
    <tripinfo id="118963_405_0" depart="25304.00" departLane="-32038056#3_0" departPos="4.40" departSpeed="0.00" departDelay="0.00" arrival="25564.00" arrivalLane="32038051#0_0" arrivalPos="89.25" arrivalSpeed="17.55" duration="260.00" routeLength="446.95" waitingTime="197.00" waitingCount="4" stopTime="0.00" timeLoss="228.70" rerouteNo="0" devices="tripinfo_118963_405_0 routing_118963_405_0" vType="pkw" speedFactor="0.97" vaporized=""/>
    <tripinfo id="136152_411_0" depart="25313.00" departLane="-32038056#3_0" departPos="4.40" departSpeed="0.00" departDelay="0.00" arrival="25566.00" arrivalLane="32038051#0_0" arrivalPos="89.25" arrivalSpeed="18.45" duration="253.00" routeLength="446.95" waitingTime="186.00" waitingCount="4" stopTime="0.00" timeLoss="222.10" rerouteNo="0" devices="tripinfo_136152_411_0 routing_136152_411_0" vType="pkw" speedFactor="0.99" vaporized=""/>
    <tripinfo id="150753_418_0" depart="25353.00" departLane="-32038056#3_0" departPos="4.40" departSpeed="0.00" departDelay="2.00" arrival="25567.00" arrivalLane="32324544#0_1" arrivalPos="90.48" arrivalSpeed="18.37" duration="214.00" routeLength="465.51" waitingTime="156.00" waitingCount="3" stopTime="0.00" timeLoss="182.07" rerouteNo="0" devices="tripinfo_150753_418_0 routing_150753_418_0" vType="pkw" speedFactor="0.99" vaporized=""/>
    <tripinfo id="148536_417_0" depart="25361.00" departLane="-32038056#3_0" departPos="4.40" departSpeed="0.00" departDelay="0.00" arrival="25569.00" arrivalLane="32324544#0_1" arrivalPos="90.48" arrivalSpeed="22.34" duration="208.00" routeLength="465.51" waitingTime="150.00" waitingCount="3" stopTime="0.00" timeLoss="181.26" rerouteNo="0" devices="tripinfo_148536_417_0 routing_148536_417_0" vType="pkw" speedFactor="1.18" vaporized=""/>
    <tripinfo id="136669_411_0" depart="25566.00" departLane="28198821#3_0" departPos="4.40" departSpeed="0.00" departDelay="0.00" arrival="25580.00" arrivalLane="32038051#0_1" arrivalPos="89.25" arrivalSpeed="18.01" duration="14.00" routeLength="170.57" waitingTime="0.00" waitingCount="0" stopTime="0.00" timeLoss="3.46" rerouteNo="0" devices="tripinfo_136669_411_0 routing_136669_411_0" vType="pkw" speedFactor="0.95" vaporized=""/>
    <tripinfo id="184119_431_0" depart="25582.00" departLane="28198821#3_0" departPos="4.40" departSpeed="0.00" departDelay="0.00" arrival="25595.00" arrivalLane="32324544#0_0" arrivalPos="90.48" arrivalSpeed="20.79" duration="13.00" routeLength="155.13" waitingTime="0.00" waitingCount="0" stopTime="0.00" timeLoss="4.30" rerouteNo="0" devices="tripinfo_184119_431_0 routing_184119_431_0" vType="pkw" speedFactor="1.11" vaporized=""/>
    <tripinfo id="121091_405_0" depart="25345.00" departLane="-32038056#3_0" departPos="4.40" departSpeed="0.00" departDelay="0.00" arrival="25598.00" arrivalLane="32038051#0_0" arrivalPos="89.25" arrivalSpeed="18.55" duration="253.00" routeLength="446.95" waitingTime="189.00" waitingCount="4" stopTime="0.00" timeLoss="223.29" rerouteNo="0" devices="tripinfo_121091_405_0 routing_121091_405_0" vType="pkw" speedFactor="1.03" vaporized=""/>
    <tripinfo id="167170_425_0" depart="25367.00" departLane="-32038056#3_0" departPos="4.40" departSpeed="0.00" departDelay="3.00" arrival="25598.00" arrivalLane="-28198821#4_0" arrivalPos="57.10" arrivalSpeed="13.89" duration="231.00" routeLength="437.47" waitingTime="165.00" waitingCount="4" stopTime="0.00" timeLoss="199.58" rerouteNo="0" devices="tripinfo_167170_425_0 routing_167170_425_0" vType="pkw" speedFactor="1.02" vaporized=""/>
    <tripinfo id="165043_423_0" depart="25370.00" departLane="-32038056#3_0" departPos="4.40" departSpeed="0.00" departDelay="4.00" arrival="25601.00" arrivalLane="32324544#0_1" arrivalPos="90.48" arrivalSpeed="20.80" duration="231.00" routeLength="465.51" waitingTime="163.00" waitingCount="4" stopTime="0.00" timeLoss="203.31" rerouteNo="0" devices="tripinfo_165043_423_0 routing_165043_423_0" vType="pkw" speedFactor="1.15" vaporized=""/>
    <tripinfo id="163503_422_0" depart="25383.00" departLane="-32038056#3_0" departPos="4.40" departSpeed="0.00" departDelay="8.00" arrival="25638.00" arrivalLane="-28198821#4_0" arrivalPos="57.10" arrivalSpeed="13.50" duration="255.00" routeLength="437.47" waitingTime="182.00" waitingCount="5" stopTime="0.00" timeLoss="222.69" rerouteNo="0" devices="tripinfo_163503_422_0 routing_163503_422_0" vType="pkw" speedFactor="0.99" vaporized=""/>
    <tripinfo id="169772_426_0" depart="25348.00" departLane="-32038056#3_0" departPos="4.40" departSpeed="0.00" departDelay="1.00" arrival="25639.00" arrivalLane="32038051#0_0" arrivalPos="89.25" arrivalSpeed="15.99" duration="291.00" routeLength="446.95" waitingTime="219.00" waitingCount="5" stopTime="0.00" timeLoss="253.95" rerouteNo="0" devices="tripinfo_169772_426_0 routing_169772_426_0" vType="pkw" speedFactor="0.83" vaporized=""/>
    <tripinfo id="129962_409_0" depart="25622.00" departLane="28198821#3_0" departPos="4.40" departSpeed="0.00" departDelay="0.00" arrival="25642.00" arrivalLane="32038051#0_1" arrivalPos="89.25" arrivalSpeed="16.04" duration="20.00" routeLength="170.57" waitingTime="0.00" waitingCount="0" stopTime="0.00" timeLoss="8.13" rerouteNo="0" devices="tripinfo_129962_409_0 routing_129962_409_0" vType="pkw" speedFactor="0.89" vaporized=""/>
    <tripinfo id="147215_416_0" depart="25603.00" departLane="28198821#3_0" departPos="4.40" departSpeed="0.00" departDelay="0.00" arrival="25657.00" arrivalLane="32038056#0_0" arrivalPos="352.87" arrivalSpeed="16.05" duration="54.00" routeLength="439.14" waitingTime="17.00" waitingCount="1" stopTime="0.00" timeLoss="25.94" rerouteNo="0" devices="tripinfo_147215_416_0 routing_147215_416_0" vType="pkw" speedFactor="1.17" vaporized=""/>
    <tripinfo id="121463_406_0" depart="25610.00" departLane="28198821#3_0" departPos="4.40" departSpeed="0.00" departDelay="0.00" arrival="25662.00" arrivalLane="32038056#0_0" arrivalPos="352.87" arrivalSpeed="12.21" duration="52.00" routeLength="439.14" waitingTime="8.00" waitingCount="1" stopTime="0.00" timeLoss="18.57" rerouteNo="0" devices="tripinfo_121463_406_0 routing_121463_406_0" vType="pkw" speedFactor="0.95" vaporized=""/>
    <tripinfo id="114183_402_0" depart="25359.00" departLane="-32038056#3_0" departPos="4.40" departSpeed="0.00" departDelay="0.00" arrival="25668.00" arrivalLane="32038051#0_0" arrivalPos="89.25" arrivalSpeed="17.18" duration="309.00" routeLength="446.95" waitingTime="232.00" waitingCount="6" stopTime="0.00" timeLoss="276.89" rerouteNo="0" devices="tripinfo_114183_402_0 routing_114183_402_0" vType="pkw" speedFactor="0.95" vaporized=""/>
    <tripinfo id="95948_394_0" depart="25385.00" departLane="-32038056#3_0" departPos="4.40" departSpeed="0.00" departDelay="9.00" arrival="25668.00" arrivalLane="-28198821#4_0" arrivalPos="57.10" arrivalSpeed="12.99" duration="283.00" routeLength="437.47" waitingTime="204.00" waitingCount="6" stopTime="0.00" timeLoss="249.65" rerouteNo="0" devices="tripinfo_95948_394_0 routing_95948_394_0" vType="pkw" speedFactor="0.95" vaporized=""/>
    <tripinfo id="136800_411_0" depart="25618.00" departLane="28198821#3_0" departPos="4.40" departSpeed="0.00" departDelay="0.00" arrival="25668.00" arrivalLane="32324544#0_0" arrivalPos="90.48" arrivalSpeed="18.18" duration="50.00" routeLength="155.13" waitingTime="27.00" waitingCount="2" stopTime="0.00" timeLoss="39.91" rerouteNo="0" devices="tripinfo_136800_411_0 routing_136800_411_0" vType="pkw" speedFactor="0.94" vaporized=""/>
    <tripinfo id="153000_419_0" depart="25636.00" departLane="28198821#3_0" departPos="4.40" departSpeed="0.00" departDelay="1.00" arrival="25671.00" arrivalLane="32038051#0_1" arrivalPos="89.25" arrivalSpeed="19.28" duration="35.00" routeLength="170.57" waitingTime="14.00" waitingCount="1" stopTime="0.00" timeLoss="25.36" rerouteNo="0" devices="tripinfo_153000_419_0 routing_153000_419_0" vType="pkw" speedFactor="1.06" vaporized=""/>
    <tripinfo id="183244_431_0" depart="25637.00" departLane="28198821#3_0" departPos="4.40" departSpeed="0.00" departDelay="0.00" arrival="25673.00" arrivalLane="32038051#0_1" arrivalPos="89.25" arrivalSpeed="20.35" duration="36.00" routeLength="170.57" waitingTime="13.00" waitingCount="2" stopTime="0.00" timeLoss="26.22" rerouteNo="0" devices="tripinfo_183244_431_0 routing_183244_431_0" vType="pkw" speedFactor="1.11" vaporized=""/>
    <tripinfo id="183534_431_0" depart="25639.00" departLane="28198821#3_0" departPos="4.40" departSpeed="0.00" departDelay="0.00" arrival="25675.00" arrivalLane="32038051#0_1" arrivalPos="89.25" arrivalSpeed="18.15" duration="36.00" routeLength="170.57" waitingTime="10.00" waitingCount="1" stopTime="0.00" timeLoss="24.72" rerouteNo="0" devices="tripinfo_183534_431_0 routing_183534_431_0" vType="pkw" speedFactor="0.96" vaporized=""/>
    <tripinfo id="115533_403_0" depart="25644.00" departLane="28198821#3_0" departPos="4.40" departSpeed="0.00" departDelay="2.00" arrival="25683.00" arrivalLane="32038051#0_1" arrivalPos="89.25" arrivalSpeed="18.97" duration="39.00" routeLength="170.57" waitingTime="12.00" waitingCount="2" stopTime="0.00" timeLoss="28.70" rerouteNo="0" devices="tripinfo_115533_403_0 routing_115533_403_0" vType="pkw" speedFactor="1.04" vaporized=""/>
    <tripinfo id="153446_420_0" depart="25624.00" departLane="28198821#3_0" departPos="4.40" departSpeed="0.00" departDelay="0.00" arrival="25685.00" arrivalLane="32038056#0_1" arrivalPos="352.87" arrivalSpeed="17.59" duration="61.00" routeLength="439.14" waitingTime="22.00" waitingCount="1" stopTime="0.00" timeLoss="36.21" rerouteNo="0" devices="tripinfo_153446_420_0 routing_153446_420_0" vType="pkw" speedFactor="1.28" vaporized=""/>
    <tripinfo id="162832_422_0" depart="25647.00" departLane="28198821#3_0" departPos="4.40" departSpeed="0.00" departDelay="1.00" arrival="25685.00" arrivalLane="32038051#0_1" arrivalPos="89.25" arrivalSpeed="18.99" duration="38.00" routeLength="170.57" waitingTime="10.00" waitingCount="2" stopTime="0.00" timeLoss="27.69" rerouteNo="0" devices="tripinfo_162832_422_0 routing_162832_422_0" vType="pkw" speedFactor="1.04" vaporized=""/>
    <tripinfo id="84905_390_0" depart="25649.00" departLane="28198821#3_0" departPos="4.40" departSpeed="0.00" departDelay="1.00" arrival="25688.00" arrivalLane="32038051#0_1" arrivalPos="89.25" arrivalSpeed="20.60" duration="39.00" routeLength="170.57" waitingTime="7.00" waitingCount="1" stopTime="0.00" timeLoss="29.16" rerouteNo="0" devices="tripinfo_84905_390_0 routing_84905_390_0" vType="pkw" speedFactor="1.09" vaporized=""/>
    <tripinfo id="102630_396_0" depart="25255.00" departLane="23429231#1_0" departPos="4.40" departSpeed="0.00" departDelay="3.00" arrival="25763.00" arrivalLane="32038051#0_0" arrivalPos="89.25" arrivalSpeed="18.37" duration="508.00" routeLength="203.79" waitingTime="479.00" waitingCount="2" stopTime="0.00" timeLoss="497.03" rerouteNo="0" devices="tripinfo_102630_396_0 routing_102630_396_0" vType="pkw" speedFactor="0.99" vaporized=""/>