<?xml version="1.0" encoding="UTF-8"?>

<!-- generated on 2023-08-31 13:13:55 by Eclipse SUMO libsumo Version 1.18.0
<configuration xmlns:xsi="http://www.w3.org/2001/XMLSchema-instance" xsi:noNamespaceSchemaLocation="http://sumo.dlr.de/xsd/libsumoConfiguration.xsd">

    <input>
        <net-file value="/home/stefan/RESCO/./environments/cologne1/cologne1.net.xml"/>
        <route-files value="/home/stefan/RESCO/./environments/cologne1/cologne1.rou.xml"/>
    </input>

    <output>
        <tripinfo-output value="/home/stefan/results/RAINBOW-tr0-cologne1-0-drq_norm-wait_norm/tripinfo_18.xml"/>
        <tripinfo-output.write-unfinished value="true"/>
    </output>

    <time>
        <begin value="25200"/>
        <end value="28800"/>
    </time>

    <processing>
        <time-to-teleport value="-1"/>
    </processing>

    <report>
        <no-warnings value="True"/>
        <no-step-log value="True"/>
    </report>

    <random_number>
        <random value="true"/>
    </random_number>

</configuration>
-->

<tripinfos xmlns:xsi="http://www.w3.org/2001/XMLSchema-instance" xsi:noNamespaceSchemaLocation="http://sumo.dlr.de/xsd/tripinfo_file.xsd">
    <tripinfo id="124779_406_0" depart="25205.00" departLane="28198821#3_0" departPos="4.40" departSpeed="0.00" departDelay="0.00" arrival="25233.00" arrivalLane="32038051#0_1" arrivalPos="89.25" arrivalSpeed="20.52" duration="28.00" routeLength="170.57" waitingTime="8.00" waitingCount="1" stopTime="0.00" timeLoss="17.83" rerouteNo="0" devices="tripinfo_124779_406_0 routing_124779_406_0" vType="pkw" speedFactor="1.06" vaporized=""/>
    <tripinfo id="98305_395_0" depart="25211.00" departLane="28198821#3_0" departPos="4.40" departSpeed="0.00" departDelay="0.00" arrival="25235.00" arrivalLane="32038051#0_1" arrivalPos="89.25" arrivalSpeed="19.57" duration="24.00" routeLength="170.57" waitingTime="4.00" waitingCount="1" stopTime="0.00" timeLoss="13.51" rerouteNo="0" devices="tripinfo_98305_395_0 routing_98305_395_0" vType="pkw" speedFactor="1.01" vaporized=""/>
    <tripinfo id="102535_396_0" depart="25218.00" departLane="28198821#3_0" departPos="4.40" departSpeed="0.00" departDelay="0.00" arrival="25237.00" arrivalLane="32038051#0_1" arrivalPos="89.25" arrivalSpeed="16.54" duration="19.00" routeLength="170.57" waitingTime="0.00" waitingCount="0" stopTime="0.00" timeLoss="7.13" rerouteNo="0" devices="tripinfo_102535_396_0 routing_102535_396_0" vType="pkw" speedFactor="0.91" vaporized=""/>
    <tripinfo id="147209_416_0" depart="25220.00" departLane="28198821#3_0" departPos="4.40" departSpeed="0.00" departDelay="0.00" arrival="25243.00" arrivalLane="32038051#0_1" arrivalPos="89.25" arrivalSpeed="17.89" duration="23.00" routeLength="170.57" waitingTime="2.00" waitingCount="1" stopTime="0.00" timeLoss="11.68" rerouteNo="0" devices="tripinfo_147209_416_0 routing_147209_416_0" vType="pkw" speedFactor="0.92" vaporized=""/>
    <tripinfo id="151372_418_0" depart="25207.00" departLane="130165204_0" departPos="4.40" departSpeed="0.00" departDelay="0.00" arrival="25254.00" arrivalLane="32038051#0_1" arrivalPos="89.25" arrivalSpeed="17.90" duration="47.00" routeLength="410.03" waitingTime="5.00" waitingCount="1" stopTime="0.00" timeLoss="19.09" rerouteNo="1" devices="tripinfo_151372_418_0 routing_151372_418_0" vType="pkw" speedFactor="0.95" vaporized=""/>
    <tripinfo id="121258_405_0" depart="25240.00" departLane="23429231#1_0" departPos="4.40" departSpeed="0.00" departDelay="0.00" arrival="25256.00" arrivalLane="32038051#0_0" arrivalPos="89.25" arrivalSpeed="17.86" duration="16.00" routeLength="203.79" waitingTime="0.00" waitingCount="0" stopTime="0.00" timeLoss="4.27" rerouteNo="0" devices="tripinfo_121258_405_0 routing_121258_405_0" vType="pkw" speedFactor="0.92" vaporized=""/>
    <tripinfo id="149029_417_0" depart="25236.00" departLane="27115123#2_0" departPos="4.40" departSpeed="0.00" departDelay="0.00" arrival="25260.00" arrivalLane="32038051#0_1" arrivalPos="89.25" arrivalSpeed="18.85" duration="24.00" routeLength="196.41" waitingTime="0.00" waitingCount="0" stopTime="0.00" timeLoss="13.16" rerouteNo="1" devices="tripinfo_149029_417_0 routing_149029_417_0" vType="pkw" speedFactor="1.00" vaporized=""/>
    <tripinfo id="123965_406_0" depart="25218.00" departLane="-32038056#3_0" departPos="4.40" departSpeed="0.00" departDelay="0.00" arrival="25262.00" arrivalLane="-28198821#4_0" arrivalPos="57.10" arrivalSpeed="12.94" duration="44.00" routeLength="437.47" waitingTime="3.00" waitingCount="1" stopTime="0.00" timeLoss="13.07" rerouteNo="0" devices="tripinfo_123965_406_0 routing_123965_406_0" vType="pkw" speedFactor="1.02" vaporized=""/>
    <tripinfo id="91582_392_0" depart="25220.00" departLane="-32038056#3_0" departPos="4.40" departSpeed="0.00" departDelay="2.00" arrival="25263.00" arrivalLane="32324544#0_1" arrivalPos="90.48" arrivalSpeed="17.43" duration="43.00" routeLength="465.51" waitingTime="1.00" waitingCount="1" stopTime="0.00" timeLoss="8.45" rerouteNo="0" devices="tripinfo_91582_392_0 routing_91582_392_0" vType="pkw" speedFactor="0.92" vaporized=""/>
    <tripinfo id="160150_421_0" depart="25223.00" departLane="-32038056#3_0" departPos="4.40" departSpeed="0.00" departDelay="4.00" arrival="25264.00" arrivalLane="32038051#0_0" arrivalPos="89.25" arrivalSpeed="18.67" duration="41.00" routeLength="446.95" waitingTime="0.00" waitingCount="0" stopTime="0.00" timeLoss="9.43" rerouteNo="0" devices="tripinfo_160150_421_0 routing_160150_421_0" vType="pkw" speedFactor="0.98" vaporized=""/>
    <tripinfo id="162814_422_0" depart="25233.00" departLane="-32038056#3_0" departPos="4.40" departSpeed="0.00" departDelay="0.00" arrival="25265.00" arrivalLane="32038051#0_0" arrivalPos="89.25" arrivalSpeed="21.54" duration="32.00" routeLength="446.95" waitingTime="0.00" waitingCount="0" stopTime="0.00" timeLoss="4.88" rerouteNo="0" devices="tripinfo_162814_422_0 routing_162814_422_0" vType="pkw" speedFactor="1.11" vaporized=""/>
    <tripinfo id="130602_409_0" depart="25268.00" departLane="-32038056#3_0" departPos="4.40" departSpeed="0.00" departDelay="0.00" arrival="25306.00" arrivalLane="-28198821#4_0" arrivalPos="57.10" arrivalSpeed="12.58" duration="38.00" routeLength="437.47" waitingTime="0.00" waitingCount="0" stopTime="0.00" timeLoss="6.23" rerouteNo="0" devices="tripinfo_130602_409_0 routing_130602_409_0" vType="pkw" speedFactor="0.99" vaporized=""/>
    <tripinfo id="115444_403_0" depart="25294.00" departLane="28198821#3_0" departPos="4.40" departSpeed="0.00" departDelay="0.00" arrival="25312.00" arrivalLane="32038051#0_1" arrivalPos="89.25" arrivalSpeed="19.28" duration="18.00" routeLength="170.57" waitingTime="0.00" waitingCount="0" stopTime="0.00" timeLoss="7.22" rerouteNo="0" devices="tripinfo_115444_403_0 routing_115444_403_0" vType="pkw" speedFactor="1.01" vaporized=""/>
    <tripinfo id="136082_411_0" depart="25278.00" departLane="-32038056#3_0" departPos="4.40" departSpeed="0.00" departDelay="1.00" arrival="25315.00" arrivalLane="32038051#0_0" arrivalPos="89.25" arrivalSpeed="17.74" duration="37.00" routeLength="446.95" waitingTime="0.00" waitingCount="0" stopTime="0.00" timeLoss="5.49" rerouteNo="0" devices="tripinfo_136082_411_0 routing_136082_411_0" vType="pkw" speedFactor="0.96" vaporized=""/>
    <tripinfo id="128446_408_0" depart="25273.00" departLane="-32038056#3_0" departPos="4.40" departSpeed="0.00" departDelay="0.00" arrival="25317.00" arrivalLane="32324544#0_1" arrivalPos="90.48" arrivalSpeed="15.51" duration="44.00" routeLength="465.51" waitingTime="0.00" waitingCount="0" stopTime="0.00" timeLoss="6.89" rerouteNo="0" devices="tripinfo_128446_408_0 routing_128446_408_0" vType="pkw" speedFactor="0.86" vaporized=""/>
    <tripinfo id="103540_397_0" depart="25300.00" departLane="28198821#3_0" departPos="4.40" departSpeed="0.00" departDelay="0.00" arrival="25317.00" arrivalLane="32038051#0_1" arrivalPos="89.25" arrivalSpeed="17.79" duration="17.00" routeLength="170.57" waitingTime="0.00" waitingCount="0" stopTime="0.00" timeLoss="6.19" rerouteNo="0" devices="tripinfo_103540_397_0 routing_103540_397_0" vType="pkw" speedFactor="0.93" vaporized=""/>
    <tripinfo id="83516_390_0" depart="25275.00" departLane="-32038056#3_0" departPos="4.40" departSpeed="0.00" departDelay="0.00" arrival="25318.00" arrivalLane="32324544#0_1" arrivalPos="90.48" arrivalSpeed="18.06" duration="43.00" routeLength="465.51" waitingTime="0.00" waitingCount="0" stopTime="0.00" timeLoss="14.92" rerouteNo="0" devices="tripinfo_83516_390_0 routing_83516_390_0" vType="pkw" speedFactor="1.13" vaporized=""/>
    <tripinfo id="113303_402_0" depart="25284.00" departLane="-32038056#3_0" departPos="4.40" departSpeed="0.00" departDelay="1.00" arrival="25320.00" arrivalLane="32324544#0_1" arrivalPos="90.48" arrivalSpeed="20.49" duration="36.00" routeLength="465.51" waitingTime="0.00" waitingCount="0" stopTime="0.00" timeLoss="5.74" rerouteNo="0" devices="tripinfo_113303_402_0 routing_113303_402_0" vType="pkw" speedFactor="1.06" vaporized=""/>
    <tripinfo id="85818_390_0" depart="25281.00" departLane="-32038056#3_0" departPos="4.40" departSpeed="0.00" departDelay="1.00" arrival="25338.00" arrivalLane="32038051#0_0" arrivalPos="89.25" arrivalSpeed="17.96" duration="57.00" routeLength="446.95" waitingTime="14.00" waitingCount="1" stopTime="0.00" timeLoss="25.16" rerouteNo="0" devices="tripinfo_85818_390_0 routing_85818_390_0" vType="pkw" speedFactor="0.96" vaporized=""/>
    <tripinfo id="137244_412_0" depart="25297.00" departLane="-32038056#3_0" departPos="4.40" departSpeed="0.00" departDelay="3.00" arrival="25338.00" arrivalLane="-28198821#4_1" arrivalPos="57.10" arrivalSpeed="15.16" duration="41.00" routeLength="437.47" waitingTime="1.00" waitingCount="1" stopTime="0.00" timeLoss="13.74" rerouteNo="0" devices="tripinfo_137244_412_0 routing_137244_412_0" vType="pkw" speedFactor="1.18" vaporized=""/>
    <tripinfo id="86583_391_0" depart="25289.00" departLane="-32038056#3_0" departPos="4.40" departSpeed="0.00" departDelay="0.00" arrival="25340.00" arrivalLane="32038051#0_0" arrivalPos="89.25" arrivalSpeed="19.45" duration="51.00" routeLength="446.95" waitingTime="10.00" waitingCount="1" stopTime="0.00" timeLoss="20.00" rerouteNo="0" devices="tripinfo_86583_391_0 routing_86583_391_0" vType="pkw" speedFactor="1.00" vaporized=""/>
    <tripinfo id="120878_405_0" depart="25291.00" departLane="-32038056#3_0" departPos="4.40" departSpeed="0.00" departDelay="0.00" arrival="25341.00" arrivalLane="32038051#0_0" arrivalPos="89.25" arrivalSpeed="18.79" duration="50.00" routeLength="446.95" waitingTime="8.00" waitingCount="2" stopTime="0.00" timeLoss="18.54" rerouteNo="0" devices="tripinfo_120878_405_0 routing_120878_405_0" vType="pkw" speedFactor="0.97" vaporized=""/>
    <tripinfo id="85922_391_0" depart="25295.00" departLane="-32038056#3_0" departPos="4.40" departSpeed="0.00" departDelay="2.00" arrival="25343.00" arrivalLane="32038051#0_0" arrivalPos="89.25" arrivalSpeed="20.51" duration="48.00" routeLength="446.95" waitingTime="6.00" waitingCount="1" stopTime="0.00" timeLoss="19.81" rerouteNo="0" devices="tripinfo_85922_391_0 routing_85922_391_0" vType="pkw" speedFactor="1.09" vaporized=""/>
    <tripinfo id="118963_405_0" depart="25304.00" departLane="-32038056#3_0" departPos="4.40" departSpeed="0.00" departDelay="0.00" arrival="25344.00" arrivalLane="32038051#0_0" arrivalPos="89.25" arrivalSpeed="18.37" duration="40.00" routeLength="446.95" waitingTime="0.00" waitingCount="0" stopTime="0.00" timeLoss="9.89" rerouteNo="0" devices="tripinfo_118963_405_0 routing_118963_405_0" vType="pkw" speedFactor="1.01" vaporized=""/>
    <tripinfo id="142412_415_0" depart="25307.00" departLane="-32038056#3_0" departPos="4.40" departSpeed="0.00" departDelay="0.00" arrival="25344.00" arrivalLane="-28198821#4_1" arrivalPos="57.10" arrivalSpeed="12.49" duration="37.00" routeLength="437.47" waitingTime="0.00" waitingCount="0" stopTime="0.00" timeLoss="4.66" rerouteNo="0" devices="tripinfo_142412_415_0 routing_142412_415_0" vType="pkw" speedFactor="0.99" vaporized=""/>
    <tripinfo id="162096_421_0" depart="25306.00" departLane="130165204_0" departPos="4.40" departSpeed="0.00" departDelay="0.00" arrival="25352.00" arrivalLane="32038051#0_1" arrivalPos="89.25" arrivalSpeed="20.00" duration="46.00" routeLength="410.03" waitingTime="8.00" waitingCount="1" stopTime="0.00" timeLoss="23.04" rerouteNo="1" devices="tripinfo_162096_421_0 routing_162096_421_0" vType="pkw" speedFactor="1.15" vaporized=""/>
    <tripinfo id="138220_412_0" depart="25309.00" departLane="-32038056#3_0" departPos="4.40" departSpeed="0.00" departDelay="0.00" arrival="25359.00" arrivalLane="-28198821#4_0" arrivalPos="57.10" arrivalSpeed="10.97" duration="50.00" routeLength="437.47" waitingTime="2.00" waitingCount="2" stopTime="0.00" timeLoss="10.79" rerouteNo="0" devices="tripinfo_138220_412_0 routing_138220_412_0" vType="pkw" speedFactor="0.82" vaporized=""/>
    <tripinfo id="130372_409_0" depart="25329.00" departLane="-32038056#3_0" departPos="4.40" departSpeed="0.00" departDelay="2.00" arrival="25364.00" arrivalLane="32324544#0_1" arrivalPos="90.48" arrivalSpeed="20.67" duration="35.00" routeLength="465.51" waitingTime="0.00" waitingCount="0" stopTime="0.00" timeLoss="5.17" rerouteNo="0" devices="tripinfo_130372_409_0 routing_130372_409_0" vType="pkw" speedFactor="1.08" vaporized=""/>
    <tripinfo id="175147_428_0" depart="25324.00" departLane="130165204_0" departPos="4.40" departSpeed="0.00" departDelay="0.00" arrival="25368.00" arrivalLane="32038051#0_1" arrivalPos="89.25" arrivalSpeed="19.06" duration="44.00" routeLength="410.03" waitingTime="8.00" waitingCount="1" stopTime="0.00" timeLoss="21.63" rerouteNo="1" devices="tripinfo_175147_428_0 routing_175147_428_0" vType="pkw" speedFactor="1.17" vaporized=""/>
    <tripinfo id="126742_407_0" depart="25242.00" departLane="23429231#1_0" departPos="4.40" departSpeed="0.00" departDelay="2.00" arrival="25373.00" arrivalLane="32038051#0_0" arrivalPos="89.25" arrivalSpeed="16.31" duration="131.00" routeLength="203.79" waitingTime="107.00" waitingCount="2" stopTime="0.00" timeLoss="118.74" rerouteNo="0" devices="tripinfo_126742_407_0 routing_126742_407_0" vType="pkw" speedFactor="0.88" vaporized=""/>
    <tripinfo id="102501_396_0" depart="25245.00" departLane="23429231#1_0" departPos="4.40" departSpeed="0.00" departDelay="1.00" arrival="25373.00" arrivalLane="32038051#0_1" arrivalPos="89.25" arrivalSpeed="21.18" duration="128.00" routeLength="203.79" waitingTime="105.00" waitingCount="1" stopTime="0.00" timeLoss="119.12" rerouteNo="0" devices="tripinfo_102501_396_0 routing_102501_396_0" vType="pkw" speedFactor="1.23" vaporized=""/>
    <tripinfo id="148629_417_0" depart="25284.00" departLane="27115123#2_0" departPos="4.40" departSpeed="0.00" departDelay="0.00" arrival="25373.00" arrivalLane="32324544#0_0" arrivalPos="90.48" arrivalSpeed="19.64" duration="89.00" routeLength="198.06" waitingTime="66.00" waitingCount="1" stopTime="0.00" timeLoss="78.57" rerouteNo="1" devices="tripinfo_148629_417_0 routing_148629_417_0" vType="pkw" speedFactor="1.03" vaporized=""/>
    <tripinfo id="113509_402_0" depart="25251.00" departLane="23429231#1_0" departPos="4.40" departSpeed="0.00" departDelay="3.00" arrival="25374.00" arrivalLane="-28198821#4_1" arrivalPos="57.10" arrivalSpeed="15.93" duration="123.00" routeLength="179.90" waitingTime="101.00" waitingCount="1" stopTime="0.00" timeLoss="113.50" rerouteNo="0" devices="tripinfo_113509_402_0 routing_113509_402_0" vType="pkw" speedFactor="1.17" vaporized=""/>
    <tripinfo id="120663_405_0" depart="25248.00" departLane="23429231#1_0" departPos="4.40" departSpeed="0.00" departDelay="2.00" arrival="25375.00" arrivalLane="32038051#0_0" arrivalPos="89.25" arrivalSpeed="19.32" duration="127.00" routeLength="203.79" waitingTime="103.00" waitingCount="1" stopTime="0.00" timeLoss="115.82" rerouteNo="0" devices="tripinfo_120663_405_0 routing_120663_405_0" vType="pkw" speedFactor="1.02" vaporized=""/>
    <tripinfo id="130147_409_0" depart="25253.00" departLane="23429231#1_0" departPos="4.40" departSpeed="0.00" departDelay="2.00" arrival="25376.00" arrivalLane="32038051#0_0" arrivalPos="89.25" arrivalSpeed="19.14" duration="123.00" routeLength="203.79" waitingTime="99.00" waitingCount="1" stopTime="0.00" timeLoss="114.09" rerouteNo="0" devices="tripinfo_130147_409_0 routing_130147_409_0" vType="pkw" speedFactor="1.23" vaporized=""/>
    <tripinfo id="102630_396_0" depart="25255.00" departLane="23429231#1_0" departPos="4.40" departSpeed="0.00" departDelay="3.00" arrival="25376.00" arrivalLane="32038051#0_1" arrivalPos="89.25" arrivalSpeed="18.71" duration="121.00" routeLength="203.79" waitingTime="97.00" waitingCount="1" stopTime="0.00" timeLoss="109.46" rerouteNo="0" devices="tripinfo_102630_396_0 routing_102630_396_0" vType="pkw" speedFactor="0.99" vaporized=""/>
    <tripinfo id="122376_406_0" depart="25258.00" departLane="23429231#1_0" departPos="4.40" departSpeed="0.00" departDelay="4.00" arrival="25378.00" arrivalLane="32038051#0_0" arrivalPos="89.25" arrivalSpeed="16.47" duration="120.00" routeLength="203.79" waitingTime="97.00" waitingCount="1" stopTime="0.00" timeLoss="107.58" rerouteNo="0" devices="tripinfo_122376_406_0 routing_122376_406_0" vType="pkw" speedFactor="0.87" vaporized=""/>
    <tripinfo id="122194_406_0" depart="25260.00" departLane="23429231#1_0" departPos="4.40" departSpeed="0.00" departDelay="5.00" arrival="25379.00" arrivalLane="32038051#0_1" arrivalPos="89.25" arrivalSpeed="15.83" duration="119.00" routeLength="203.79" waitingTime="93.00" waitingCount="1" stopTime="0.00" timeLoss="105.19" rerouteNo="0" devices="tripinfo_122194_406_0 routing_122194_406_0" vType="pkw" speedFactor="0.82" vaporized=""/>
    <tripinfo id="135103_411_0" depart="25263.00" departLane="23429231#1_0" departPos="4.40" departSpeed="0.00" departDelay="7.00" arrival="25380.00" arrivalLane="32038051#0_0" arrivalPos="89.25" arrivalSpeed="15.23" duration="117.00" routeLength="203.79" waitingTime="92.00" waitingCount="1" stopTime="0.00" timeLoss="106.54" rerouteNo="0" devices="tripinfo_135103_411_0 routing_135103_411_0" vType="pkw" speedFactor="1.04" vaporized=""/>
    <tripinfo id="152958_419_0" depart="25266.00" departLane="23429231#1_0" departPos="4.40" departSpeed="0.00" departDelay="9.00" arrival="25380.00" arrivalLane="32038051#0_1" arrivalPos="89.25" arrivalSpeed="16.76" duration="114.00" routeLength="203.79" waitingTime="88.00" waitingCount="1" stopTime="0.00" timeLoss="102.54" rerouteNo="0" devices="tripinfo_152958_419_0 routing_152958_419_0" vType="pkw" speedFactor="0.96" vaporized=""/>
    <tripinfo id="133955_411_0" depart="25272.00" departLane="23429231#1_0" departPos="4.40" departSpeed="0.00" departDelay="13.00" arrival="25381.00" arrivalLane="32038051#0_1" arrivalPos="89.25" arrivalSpeed="18.01" duration="109.00" routeLength="203.79" waitingTime="85.00" waitingCount="1" stopTime="0.00" timeLoss="98.98" rerouteNo="0" devices="tripinfo_133955_411_0 routing_133955_411_0" vType="pkw" speedFactor="1.06" vaporized=""/>
    <tripinfo id="125613_406_0" depart="25269.00" departLane="23429231#1_0" departPos="4.40" departSpeed="0.00" departDelay="11.00" arrival="25382.00" arrivalLane="32038051#0_0" arrivalPos="89.25" arrivalSpeed="17.17" duration="113.00" routeLength="203.79" waitingTime="86.00" waitingCount="1" stopTime="0.00" timeLoss="100.92" rerouteNo="0" devices="tripinfo_125613_406_0 routing_125613_406_0" vType="pkw" speedFactor="0.92" vaporized=""/>
    <tripinfo id="129253_408_0" depart="25275.00" departLane="23429231#1_0" departPos="4.40" departSpeed="0.00" departDelay="15.00" arrival="25383.00" arrivalLane="32038051#0_0" arrivalPos="89.25" arrivalSpeed="18.41" duration="108.00" routeLength="203.79" waitingTime="83.00" waitingCount="1" stopTime="0.00" timeLoss="99.05" rerouteNo="0" devices="tripinfo_129253_408_0 routing_129253_408_0" vType="pkw" speedFactor="1.17" vaporized=""/>
    <tripinfo id="120275_405_0" depart="25278.00" departLane="23429231#1_0" departPos="4.40" departSpeed="0.00" departDelay="17.00" arrival="25383.00" arrivalLane="32038051#0_1" arrivalPos="89.25" arrivalSpeed="18.38" duration="105.00" routeLength="203.79" waitingTime="80.00" waitingCount="1" stopTime="0.00" timeLoss="93.78" rerouteNo="0" devices="tripinfo_120275_405_0 routing_120275_405_0" vType="pkw" speedFactor="0.99" vaporized=""/>
    <tripinfo id="135201_411_0" depart="25283.00" departLane="23429231#1_0" departPos="4.40" departSpeed="0.00" departDelay="19.00" arrival="25385.00" arrivalLane="32038051#0_0" arrivalPos="89.25" arrivalSpeed="22.12" duration="102.00" routeLength="203.79" waitingTime="76.00" waitingCount="1" stopTime="0.00" timeLoss="93.25" rerouteNo="0" devices="tripinfo_135201_411_0 routing_135201_411_0" vType="pkw" speedFactor="1.27" vaporized=""/>
    <tripinfo id="57065_374_0" depart="25288.00" departLane="23429231#1_0" departPos="4.40" departSpeed="0.00" departDelay="22.00" arrival="25386.00" arrivalLane="32038051#0_1" arrivalPos="89.25" arrivalSpeed="16.88" duration="98.00" routeLength="203.79" waitingTime="73.00" waitingCount="1" stopTime="0.00" timeLoss="85.66" rerouteNo="0" devices="tripinfo_57065_374_0 routing_57065_374_0" vType="pkw" speedFactor="0.89" vaporized=""/>
    <tripinfo id="134807_411_0" depart="25280.00" departLane="23429231#1_0" departPos="4.40" departSpeed="0.00" departDelay="18.00" arrival="25387.00" arrivalLane="32324544#0_1" arrivalPos="90.48" arrivalSpeed="18.04" duration="107.00" routeLength="203.50" waitingTime="80.00" waitingCount="2" stopTime="0.00" timeLoss="95.40" rerouteNo="0" devices="tripinfo_134807_411_0 routing_134807_411_0" vType="pkw" speedFactor="0.97" vaporized=""/>
    <tripinfo id="86189_391_0" depart="25286.00" departLane="23429231#1_0" departPos="4.40" departSpeed="0.00" departDelay="21.00" arrival="25387.00" arrivalLane="32038051#0_0" arrivalPos="89.25" arrivalSpeed="18.11" duration="101.00" routeLength="203.79" waitingTime="75.00" waitingCount="1" stopTime="0.00" timeLoss="89.19" rerouteNo="0" devices="tripinfo_86189_391_0 routing_86189_391_0" vType="pkw" speedFactor="0.95" vaporized=""/>
    <tripinfo id="161721_421_0" depart="25337.00" departLane="130165204_0" departPos="4.40" departSpeed="0.00" departDelay="0.00" arrival="25391.00" arrivalLane="32038051#0_1" arrivalPos="89.25" arrivalSpeed="18.09" duration="54.00" routeLength="410.03" waitingTime="13.00" waitingCount="1" stopTime="0.00" timeLoss="27.18" rerouteNo="1" devices="tripinfo_161721_421_0 routing_161721_421_0" vType="pkw" speedFactor="0.99" vaporized=""/>
    <tripinfo id="129519_408_0" depart="25292.00" departLane="23429231#1_0" departPos="4.40" departSpeed="0.00" departDelay="25.00" arrival="25423.00" arrivalLane="32038051#0_0" arrivalPos="89.25" arrivalSpeed="17.84" duration="131.00" routeLength="203.79" waitingTime="101.00" waitingCount="2" stopTime="0.00" timeLoss="121.35" rerouteNo="0" devices="tripinfo_129519_408_0 routing_129519_408_0" vType="pkw" speedFactor="1.12" vaporized=""/>
    <tripinfo id="82015_389_0" depart="25294.00" departLane="23429231#1_0" departPos="4.40" departSpeed="0.00" departDelay="26.00" arrival="25423.00" arrivalLane="32038051#0_1" arrivalPos="89.25" arrivalSpeed="17.88" duration="129.00" routeLength="203.79" waitingTime="96.00" waitingCount="3" stopTime="0.00" timeLoss="117.40" rerouteNo="0" devices="tripinfo_82015_389_0 routing_82015_389_0" vType="pkw" speedFactor="0.98" vaporized=""/>
    <tripinfo id="136204_411_0" depart="25298.00" departLane="23429231#1_0" departPos="4.40" departSpeed="0.00" departDelay="29.00" arrival="25425.00" arrivalLane="32038051#0_0" arrivalPos="89.25" arrivalSpeed="18.89" duration="127.00" routeLength="203.79" waitingTime="95.00" waitingCount="2" stopTime="0.00" timeLoss="115.46" rerouteNo="0" devices="tripinfo_136204_411_0 routing_136204_411_0" vType="pkw" speedFactor="0.99" vaporized=""/>
    <tripinfo id="135431_411_0" depart="25300.00" departLane="23429231#1_0" departPos="4.40" departSpeed="0.00" departDelay="31.00" arrival="25425.00" arrivalLane="32038051#0_1" arrivalPos="89.25" arrivalSpeed="22.25" duration="125.00" routeLength="203.79" waitingTime="92.00" waitingCount="2" stopTime="0.00" timeLoss="115.00" rerouteNo="0" devices="tripinfo_135431_411_0 routing_135431_411_0" vType="pkw" speedFactor="1.16" vaporized=""/>
    <tripinfo id="125316_406_0" depart="25306.00" departLane="23429231#1_0" departPos="4.40" departSpeed="0.00" departDelay="35.00" arrival="25426.00" arrivalLane="32038051#0_1" arrivalPos="89.25" arrivalSpeed="16.51" duration="120.00" routeLength="203.79" waitingTime="87.00" waitingCount="2" stopTime="0.00" timeLoss="108.45" rerouteNo="0" devices="tripinfo_125316_406_0 routing_125316_406_0" vType="pkw" speedFactor="0.91" vaporized=""/>
    <tripinfo id="146814_416_0" depart="25303.00" departLane="23429231#1_0" departPos="4.40" departSpeed="0.00" departDelay="32.00" arrival="25427.00" arrivalLane="32038051#0_0" arrivalPos="89.25" arrivalSpeed="17.72" duration="124.00" routeLength="203.79" waitingTime="90.00" waitingCount="2" stopTime="0.00" timeLoss="112.40" rerouteNo="0" devices="tripinfo_146814_416_0 routing_146814_416_0" vType="pkw" speedFactor="0.95" vaporized=""/>
    <tripinfo id="136152_411_0" depart="25313.00" departLane="-32038056#3_0" departPos="4.40" departSpeed="0.00" departDelay="0.00" arrival="25432.00" arrivalLane="32038051#0_0" arrivalPos="89.25" arrivalSpeed="19.65" duration="119.00" routeLength="446.95" waitingTime="70.00" waitingCount="1" stopTime="0.00" timeLoss="93.12" rerouteNo="0" devices="tripinfo_136152_411_0 routing_136152_411_0" vType="pkw" speedFactor="1.18" vaporized=""/>
    <tripinfo id="167799_425_0" depart="25327.00" departLane="-32038056#3_0" departPos="4.40" departSpeed="0.00" departDelay="0.00" arrival="25432.00" arrivalLane="-28198821#4_0" arrivalPos="57.10" arrivalSpeed="10.79" duration="105.00" routeLength="437.47" waitingTime="59.00" waitingCount="1" stopTime="0.00" timeLoss="68.54" rerouteNo="0" devices="tripinfo_167799_425_0 routing_167799_425_0" vType="pkw" speedFactor="0.86" vaporized=""/>
    <tripinfo id="122154_406_0" depart="25337.00" departLane="-32038056#3_0" departPos="4.40" departSpeed="0.00" departDelay="0.00" arrival="25434.00" arrivalLane="-28198821#4_0" arrivalPos="57.10" arrivalSpeed="15.11" duration="97.00" routeLength="437.47" waitingTime="57.00" waitingCount="1" stopTime="0.00" timeLoss="69.66" rerouteNo="0" devices="tripinfo_122154_406_0 routing_122154_406_0" vType="pkw" speedFactor="1.16" vaporized=""/>
    <tripinfo id="104806_398_0" depart="25332.00" departLane="-32038056#3_0" departPos="4.40" departSpeed="0.00" departDelay="3.00" arrival="25435.00" arrivalLane="32324544#0_1" arrivalPos="90.48" arrivalSpeed="18.54" duration="103.00" routeLength="465.51" waitingTime="59.00" waitingCount="1" stopTime="0.00" timeLoss="70.05" rerouteNo="0" devices="tripinfo_104806_398_0 routing_104806_398_0" vType="pkw" speedFactor="0.98" vaporized=""/>
    <tripinfo id="135138_411_0" depart="25350.00" departLane="-32038056#3_0" departPos="4.40" departSpeed="0.00" departDelay="1.00" arrival="25435.00" arrivalLane="-28198821#4_1" arrivalPos="57.10" arrivalSpeed="14.04" duration="85.00" routeLength="437.47" waitingTime="45.00" waitingCount="1" stopTime="0.00" timeLoss="53.83" rerouteNo="0" devices="tripinfo_135138_411_0 routing_135138_411_0" vType="pkw" speedFactor="1.02" vaporized=""/>
    <tripinfo id="121091_405_0" depart="25345.00" departLane="-32038056#3_0" departPos="4.40" departSpeed="0.00" departDelay="0.00" arrival="25436.00" arrivalLane="32038051#0_0" arrivalPos="89.25" arrivalSpeed="16.11" duration="91.00" routeLength="446.95" waitingTime="45.00" waitingCount="1" stopTime="0.00" timeLoss="56.08" rerouteNo="0" devices="tripinfo_121091_405_0 routing_121091_405_0" vType="pkw" speedFactor="0.87" vaporized=""/>
    <tripinfo id="169772_426_0" depart="25347.00" departLane="-32038056#3_0" departPos="4.40" departSpeed="0.00" departDelay="0.00" arrival="25448.00" arrivalLane="32038051#0_0" arrivalPos="89.25" arrivalSpeed="18.36" duration="101.00" routeLength="446.95" waitingTime="49.00" waitingCount="2" stopTime="0.00" timeLoss="72.04" rerouteNo="0" devices="tripinfo_169772_426_0 routing_169772_426_0" vType="pkw" speedFactor="1.05" vaporized=""/>
    <tripinfo id="150753_418_0" depart="25353.00" departLane="-32038056#3_0" departPos="4.40" departSpeed="0.00" departDelay="2.00" arrival="25448.00" arrivalLane="32324544#0_1" arrivalPos="90.48" arrivalSpeed="19.66" duration="95.00" routeLength="465.51" waitingTime="49.00" waitingCount="2" stopTime="0.00" timeLoss="65.08" rerouteNo="0" devices="tripinfo_150753_418_0 routing_150753_418_0" vType="pkw" speedFactor="1.05" vaporized=""/>
    <tripinfo id="148536_417_0" depart="25362.00" departLane="-32038056#3_0" departPos="4.40" departSpeed="0.00" departDelay="1.00" arrival="25450.00" arrivalLane="32324544#0_1" arrivalPos="90.48" arrivalSpeed="18.18" duration="88.00" routeLength="465.51" waitingTime="39.00" waitingCount="2" stopTime="0.00" timeLoss="56.32" rerouteNo="0" devices="tripinfo_148536_417_0 routing_148536_417_0" vType="pkw" speedFactor="0.99" vaporized=""/>
    <tripinfo id="165043_423_0" depart="25370.00" departLane="-32038056#3_0" departPos="4.40" departSpeed="0.00" departDelay="4.00" arrival="25452.00" arrivalLane="32324544#0_1" arrivalPos="90.48" arrivalSpeed="17.32" duration="82.00" routeLength="465.51" waitingTime="30.00" waitingCount="2" stopTime="0.00" timeLoss="48.97" rerouteNo="0" devices="tripinfo_165043_423_0 routing_165043_423_0" vType="pkw" speedFactor="0.95" vaporized=""/>