<?xml version="1.0" encoding="UTF-8"?>

<!-- generated on 2023-08-31 13:20:26 by Eclipse SUMO libsumo Version 1.18.0
<configuration xmlns:xsi="http://www.w3.org/2001/XMLSchema-instance" xsi:noNamespaceSchemaLocation="http://sumo.dlr.de/xsd/libsumoConfiguration.xsd">

    <input>
        <net-file value="/home/stefan/RESCO/./environments/cologne1/cologne1.net.xml"/>
        <route-files value="/home/stefan/RESCO/./environments/cologne1/cologne1.rou.xml"/>
    </input>

    <output>
        <tripinfo-output value="/home/stefan/results/RAINBOW-tr0-cologne1-0-drq_norm-wait_norm/tripinfo_90.xml"/>
        <tripinfo-output.write-unfinished value="true"/>
    </output>

    <time>
        <begin value="25200"/>
        <end value="28800"/>
    </time>

    <processing>
        <time-to-teleport value="-1"/>
    </processing>

    <report>
        <no-warnings value="True"/>
        <no-step-log value="True"/>
    </report>

    <random_number>
        <random value="true"/>
    </random_number>

</configuration>
-->

<tripinfos xmlns:xsi="http://www.w3.org/2001/XMLSchema-instance" xsi:noNamespaceSchemaLocation="http://sumo.dlr.de/xsd/tripinfo_file.xsd">
    <tripinfo id="124779_406_0" depart="25205.00" departLane="28198821#3_0" departPos="4.40" departSpeed="0.00" departDelay="0.00" arrival="25221.00" arrivalLane="32038051#0_1" arrivalPos="89.25" arrivalSpeed="17.05" duration="16.00" routeLength="170.57" waitingTime="0.00" waitingCount="0" stopTime="0.00" timeLoss="4.75" rerouteNo="0" devices="tripinfo_124779_406_0 routing_124779_406_0" vType="pkw" speedFactor="0.94" vaporized=""/>
    <tripinfo id="98305_395_0" depart="25211.00" departLane="28198821#3_0" departPos="4.40" departSpeed="0.00" departDelay="0.00" arrival="25228.00" arrivalLane="32038051#0_1" arrivalPos="89.25" arrivalSpeed="16.41" duration="17.00" routeLength="170.57" waitingTime="0.00" waitingCount="0" stopTime="0.00" timeLoss="5.17" rerouteNo="0" devices="tripinfo_98305_395_0 routing_98305_395_0" vType="pkw" speedFactor="0.90" vaporized=""/>
    <tripinfo id="102535_396_0" depart="25218.00" departLane="28198821#3_0" departPos="4.40" departSpeed="0.00" departDelay="0.00" arrival="25233.00" arrivalLane="32038051#0_1" arrivalPos="89.25" arrivalSpeed="16.65" duration="15.00" routeLength="170.57" waitingTime="0.00" waitingCount="0" stopTime="0.00" timeLoss="3.61" rerouteNo="0" devices="tripinfo_102535_396_0 routing_102535_396_0" vType="pkw" speedFactor="0.88" vaporized=""/>
    <tripinfo id="147209_416_0" depart="25220.00" departLane="28198821#3_0" departPos="4.40" departSpeed="0.00" departDelay="0.00" arrival="25235.00" arrivalLane="32038051#0_1" arrivalPos="89.25" arrivalSpeed="20.29" duration="15.00" routeLength="170.57" waitingTime="0.00" waitingCount="0" stopTime="0.00" timeLoss="4.95" rerouteNo="0" devices="tripinfo_147209_416_0 routing_147209_416_0" vType="pkw" speedFactor="1.06" vaporized=""/>
    <tripinfo id="151372_418_0" depart="25207.00" departLane="130165204_0" departPos="4.40" departSpeed="0.00" departDelay="0.00" arrival="25248.00" arrivalLane="32038051#0_1" arrivalPos="89.25" arrivalSpeed="20.30" duration="41.00" routeLength="410.03" waitingTime="1.00" waitingCount="1" stopTime="0.00" timeLoss="15.55" rerouteNo="1" devices="tripinfo_151372_418_0 routing_151372_418_0" vType="pkw" speedFactor="1.05" vaporized=""/>
    <tripinfo id="149029_417_0" depart="25236.00" departLane="27115123#2_0" departPos="4.40" departSpeed="0.00" departDelay="0.00" arrival="25259.00" arrivalLane="32038051#0_1" arrivalPos="89.25" arrivalSpeed="17.20" duration="23.00" routeLength="196.41" waitingTime="1.00" waitingCount="1" stopTime="0.00" timeLoss="11.80" rerouteNo="1" devices="tripinfo_149029_417_0 routing_149029_417_0" vType="pkw" speedFactor="0.94" vaporized=""/>
    <tripinfo id="91582_392_0" depart="25220.00" departLane="-32038056#3_0" departPos="4.40" departSpeed="0.00" departDelay="2.00" arrival="25262.00" arrivalLane="32324544#0_1" arrivalPos="90.48" arrivalSpeed="18.09" duration="42.00" routeLength="465.51" waitingTime="0.00" waitingCount="0" stopTime="0.00" timeLoss="10.27" rerouteNo="0" devices="tripinfo_91582_392_0 routing_91582_392_0" vType="pkw" speedFactor="0.99" vaporized=""/>
    <tripinfo id="115444_403_0" depart="25294.00" departLane="28198821#3_0" departPos="4.40" departSpeed="0.00" departDelay="0.00" arrival="25311.00" arrivalLane="32038051#0_1" arrivalPos="89.25" arrivalSpeed="20.74" duration="17.00" routeLength="170.57" waitingTime="0.00" waitingCount="0" stopTime="0.00" timeLoss="7.00" rerouteNo="0" devices="tripinfo_115444_403_0 routing_115444_403_0" vType="pkw" speedFactor="1.10" vaporized=""/>
    <tripinfo id="103540_397_0" depart="25300.00" departLane="28198821#3_0" departPos="4.40" departSpeed="0.00" departDelay="0.00" arrival="25314.00" arrivalLane="32038051#0_1" arrivalPos="89.25" arrivalSpeed="19.18" duration="14.00" routeLength="170.57" waitingTime="0.00" waitingCount="0" stopTime="0.00" timeLoss="3.69" rerouteNo="0" devices="tripinfo_103540_397_0 routing_103540_397_0" vType="pkw" speedFactor="1.02" vaporized=""/>
    <tripinfo id="162096_421_0" depart="25306.00" departLane="130165204_0" departPos="4.40" departSpeed="0.00" departDelay="0.00" arrival="25349.00" arrivalLane="32038051#0_1" arrivalPos="89.25" arrivalSpeed="17.76" duration="43.00" routeLength="410.03" waitingTime="2.00" waitingCount="1" stopTime="0.00" timeLoss="13.66" rerouteNo="1" devices="tripinfo_162096_421_0 routing_162096_421_0" vType="pkw" speedFactor="0.92" vaporized=""/>
    <tripinfo id="175147_428_0" depart="25324.00" departLane="130165204_0" departPos="4.40" departSpeed="0.00" departDelay="0.00" arrival="25358.00" arrivalLane="32038051#0_1" arrivalPos="89.25" arrivalSpeed="21.02" duration="34.00" routeLength="410.03" waitingTime="0.00" waitingCount="0" stopTime="0.00" timeLoss="9.60" rerouteNo="1" devices="tripinfo_175147_428_0 routing_175147_428_0" vType="pkw" speedFactor="1.10" vaporized=""/>
    <tripinfo id="161721_421_0" depart="25337.00" departLane="130165204_0" departPos="4.40" departSpeed="0.00" departDelay="0.00" arrival="25379.00" arrivalLane="32038051#0_1" arrivalPos="89.25" arrivalSpeed="18.95" duration="42.00" routeLength="410.03" waitingTime="1.00" waitingCount="1" stopTime="0.00" timeLoss="16.17" rerouteNo="1" devices="tripinfo_161721_421_0 routing_161721_421_0" vType="pkw" speedFactor="1.04" vaporized=""/>
    <tripinfo id="136669_411_0" depart="25566.00" departLane="28198821#3_0" departPos="4.40" departSpeed="0.00" departDelay="0.00" arrival="25581.00" arrivalLane="32038051#0_1" arrivalPos="89.25" arrivalSpeed="17.59" duration="15.00" routeLength="170.57" waitingTime="0.00" waitingCount="0" stopTime="0.00" timeLoss="3.83" rerouteNo="0" devices="tripinfo_136669_411_0 routing_136669_411_0" vType="pkw" speedFactor="0.95" vaporized=""/>
    <tripinfo id="123965_406_0" depart="25218.00" departLane="-32038056#3_0" departPos="4.40" departSpeed="0.00" departDelay="0.00" arrival="26447.00" arrivalLane="-28198821#4_0" arrivalPos="57.10" arrivalSpeed="14.49" duration="1229.00" routeLength="437.47" waitingTime="1191.00" waitingCount="1" stopTime="0.00" timeLoss="1199.56" rerouteNo="0" devices="tripinfo_123965_406_0 routing_123965_406_0" vType="pkw" speedFactor="1.07" vaporized=""/>
    <tripinfo id="125917_406_0" depart="25547.00" departLane="28198821#3_0" departPos="4.40" departSpeed="0.00" departDelay="0.00" arrival="26448.00" arrivalLane="32324544#0_0" arrivalPos="90.48" arrivalSpeed="21.03" duration="901.00" routeLength="155.13" waitingTime="882.00" waitingCount="1" stopTime="0.00" timeLoss="892.14" rerouteNo="0" devices="tripinfo_125917_406_0 routing_125917_406_0" vType="pkw" speedFactor="1.14" vaporized=""/>
    <tripinfo id="130602_409_0" depart="25268.00" departLane="-32038056#3_0" departPos="4.40" departSpeed="0.00" departDelay="0.00" arrival="26449.00" arrivalLane="-28198821#4_1" arrivalPos="57.10" arrivalSpeed="8.98" duration="1181.00" routeLength="437.47" waitingTime="1137.00" waitingCount="1" stopTime="0.00" timeLoss="1148.02" rerouteNo="0" devices="tripinfo_130602_409_0 routing_130602_409_0" vType="pkw" speedFactor="0.97" vaporized=""/>
    <tripinfo id="160150_421_0" depart="25223.00" departLane="-32038056#3_0" departPos="4.40" departSpeed="0.00" departDelay="4.00" arrival="26458.00" arrivalLane="32038051#0_0" arrivalPos="89.25" arrivalSpeed="20.86" duration="1235.00" routeLength="446.95" waitingTime="1192.00" waitingCount="2" stopTime="0.00" timeLoss="1206.65" rerouteNo="0" devices="tripinfo_160150_421_0 routing_160150_421_0" vType="pkw" speedFactor="1.10" vaporized=""/>
    <tripinfo id="184119_431_0" depart="25582.00" departLane="28198821#3_0" departPos="4.40" departSpeed="0.00" departDelay="0.00" arrival="26459.00" arrivalLane="32324544#0_0" arrivalPos="90.48" arrivalSpeed="18.79" duration="877.00" routeLength="155.13" waitingTime="857.00" waitingCount="2" stopTime="0.00" timeLoss="867.47" rerouteNo="0" devices="tripinfo_184119_431_0 routing_184119_431_0" vType="pkw" speedFactor="1.03" vaporized=""/>
    <tripinfo id="128446_408_0" depart="25273.00" departLane="-32038056#3_0" departPos="4.40" departSpeed="0.00" departDelay="0.00" arrival="26460.00" arrivalLane="32324544#0_1" arrivalPos="90.48" arrivalSpeed="17.53" duration="1187.00" routeLength="465.51" waitingTime="1139.00" waitingCount="2" stopTime="0.00" timeLoss="1153.42" rerouteNo="0" devices="tripinfo_128446_408_0 routing_128446_408_0" vType="pkw" speedFactor="0.96" vaporized=""/>
    <tripinfo id="162814_422_0" depart="25233.00" departLane="-32038056#3_0" departPos="4.40" departSpeed="0.00" departDelay="0.00" arrival="26468.00" arrivalLane="32038051#0_0" arrivalPos="89.25" arrivalSpeed="14.60" duration="1235.00" routeLength="446.95" waitingTime="1181.00" waitingCount="3" stopTime="0.00" timeLoss="1197.97" rerouteNo="0" devices="tripinfo_162814_422_0 routing_162814_422_0" vType="pkw" speedFactor="0.82" vaporized=""/>
    <tripinfo id="136800_411_0" depart="25618.00" departLane="28198821#3_0" departPos="4.40" departSpeed="0.00" departDelay="0.00" arrival="26469.00" arrivalLane="32324544#0_0" arrivalPos="90.48" arrivalSpeed="15.61" duration="851.00" routeLength="155.13" waitingTime="821.00" waitingCount="3" stopTime="0.00" timeLoss="839.22" rerouteNo="0" devices="tripinfo_136800_411_0 routing_136800_411_0" vType="pkw" speedFactor="0.82" vaporized=""/>
    <tripinfo id="129962_409_0" depart="25622.00" departLane="28198821#3_0" departPos="4.40" departSpeed="0.00" departDelay="0.00" arrival="26469.00" arrivalLane="32038051#0_1" arrivalPos="89.25" arrivalSpeed="18.72" duration="847.00" routeLength="170.57" waitingTime="817.00" waitingCount="3" stopTime="0.00" timeLoss="836.91" rerouteNo="0" devices="tripinfo_129962_409_0 routing_129962_409_0" vType="pkw" speedFactor="1.00" vaporized=""/>
    <tripinfo id="83516_390_0" depart="25276.00" departLane="-32038056#3_0" departPos="4.40" departSpeed="0.00" departDelay="1.00" arrival="26470.00" arrivalLane="32324544#0_1" arrivalPos="90.48" arrivalSpeed="17.59" duration="1194.00" routeLength="465.51" waitingTime="1142.00" waitingCount="3" stopTime="0.00" timeLoss="1160.66" rerouteNo="0" devices="tripinfo_83516_390_0 routing_83516_390_0" vType="pkw" speedFactor="0.96" vaporized=""/>
    <tripinfo id="147215_416_0" depart="25603.00" departLane="28198821#3_0" departPos="4.40" departSpeed="0.00" departDelay="0.00" arrival="26472.00" arrivalLane="32038056#0_0" arrivalPos="352.87" arrivalSpeed="12.98" duration="869.00" routeLength="439.14" waitingTime="826.00" waitingCount="1" stopTime="0.00" timeLoss="835.28" rerouteNo="0" devices="tripinfo_147215_416_0 routing_147215_416_0" vType="pkw" speedFactor="0.95" vaporized=""/>
    <tripinfo id="136082_411_0" depart="25278.00" departLane="-32038056#3_0" departPos="4.40" departSpeed="0.00" departDelay="1.00" arrival="26479.00" arrivalLane="32038051#0_0" arrivalPos="89.25" arrivalSpeed="19.18" duration="1201.00" routeLength="446.95" waitingTime="1146.00" waitingCount="4" stopTime="0.00" timeLoss="1170.32" rerouteNo="0" devices="tripinfo_136082_411_0 routing_136082_411_0" vType="pkw" speedFactor="1.01" vaporized=""/>
    <tripinfo id="153000_419_0" depart="25636.00" departLane="28198821#3_0" departPos="4.40" departSpeed="0.00" departDelay="1.00" arrival="26480.00" arrivalLane="32038051#0_1" arrivalPos="89.25" arrivalSpeed="16.31" duration="844.00" routeLength="170.57" waitingTime="809.00" waitingCount="4" stopTime="0.00" timeLoss="831.81" rerouteNo="0" devices="tripinfo_153000_419_0 routing_153000_419_0" vType="pkw" speedFactor="0.89" vaporized=""/>
    <tripinfo id="121463_406_0" depart="25610.00" departLane="28198821#3_0" departPos="4.40" departSpeed="0.00" departDelay="0.00" arrival="26481.00" arrivalLane="32038056#0_0" arrivalPos="352.87" arrivalSpeed="15.47" duration="871.00" routeLength="439.14" waitingTime="825.00" waitingCount="2" stopTime="0.00" timeLoss="843.62" rerouteNo="0" devices="tripinfo_121463_406_0 routing_121463_406_0" vType="pkw" speedFactor="1.16" vaporized=""/>
    <tripinfo id="113303_402_0" depart="25283.00" departLane="-32038056#3_0" departPos="4.40" departSpeed="0.00" departDelay="0.00" arrival="26484.00" arrivalLane="32324544#0_1" arrivalPos="90.48" arrivalSpeed="20.41" duration="1201.00" routeLength="465.51" waitingTime="1142.00" waitingCount="5" stopTime="0.00" timeLoss="1171.29" rerouteNo="0" devices="tripinfo_113303_402_0 routing_113303_402_0" vType="pkw" speedFactor="1.07" vaporized=""/>
    <tripinfo id="85818_390_0" depart="25281.00" departLane="-32038056#3_0" departPos="4.40" departSpeed="0.00" departDelay="1.00" arrival="26488.00" arrivalLane="32038051#0_0" arrivalPos="89.25" arrivalSpeed="16.94" duration="1207.00" routeLength="446.95" waitingTime="1145.00" waitingCount="5" stopTime="0.00" timeLoss="1173.92" rerouteNo="0" devices="tripinfo_85818_390_0 routing_85818_390_0" vType="pkw" speedFactor="0.93" vaporized=""/>
    <tripinfo id="137244_412_0" depart="25298.00" departLane="-32038056#3_0" departPos="4.40" departSpeed="0.00" departDelay="4.00" arrival="26488.00" arrivalLane="-28198821#4_0" arrivalPos="57.10" arrivalSpeed="14.39" duration="1190.00" routeLength="437.47" waitingTime="1132.00" waitingCount="5" stopTime="0.00" timeLoss="1160.12" rerouteNo="0" devices="tripinfo_137244_412_0 routing_137244_412_0" vType="pkw" speedFactor="1.06" vaporized=""/>
    <tripinfo id="149660_417_0" depart="25627.00" departLane="28198821#3_0" departPos="4.40" departSpeed="0.00" departDelay="0.00" arrival="26488.00" arrivalLane="32324544#0_0" arrivalPos="90.48" arrivalSpeed="16.32" duration="861.00" routeLength="155.13" waitingTime="822.00" waitingCount="5" stopTime="0.00" timeLoss="850.39" rerouteNo="0" devices="tripinfo_149660_417_0 routing_149660_417_0" vType="pkw" speedFactor="0.90" vaporized=""/>
    <tripinfo id="183244_431_0" depart="25637.00" departLane="28198821#3_0" departPos="4.40" departSpeed="0.00" departDelay="0.00" arrival="26493.00" arrivalLane="32038051#0_1" arrivalPos="89.25" arrivalSpeed="19.24" duration="856.00" routeLength="170.57" waitingTime="805.00" waitingCount="6" stopTime="0.00" timeLoss="846.42" rerouteNo="0" devices="tripinfo_183244_431_0 routing_183244_431_0" vType="pkw" speedFactor="1.05" vaporized=""/>
    <tripinfo id="183534_431_0" depart="25639.00" departLane="28198821#3_0" departPos="4.40" departSpeed="0.00" departDelay="0.00" arrival="26496.00" arrivalLane="32038051#0_1" arrivalPos="89.25" arrivalSpeed="14.39" duration="857.00" routeLength="170.57" waitingTime="805.00" waitingCount="6" stopTime="0.00" timeLoss="843.70" rerouteNo="0" devices="tripinfo_183534_431_0 routing_183534_431_0" vType="pkw" speedFactor="0.80" vaporized=""/>
    <tripinfo id="115533_403_0" depart="25647.00" departLane="28198821#3_0" departPos="4.40" departSpeed="0.00" departDelay="5.00" arrival="26497.00" arrivalLane="32038051#0_1" arrivalPos="89.25" arrivalSpeed="18.02" duration="850.00" routeLength="170.57" waitingTime="799.00" waitingCount="5" stopTime="0.00" timeLoss="841.29" rerouteNo="0" devices="tripinfo_115533_403_0 routing_115533_403_0" vType="pkw" speedFactor="1.19" vaporized=""/>
    <tripinfo id="153446_420_0" depart="25624.00" departLane="28198821#3_0" departPos="4.40" departSpeed="0.00" departDelay="0.00" arrival="26499.00" arrivalLane="32038056#0_0" arrivalPos="352.87" arrivalSpeed="13.96" duration="875.00" routeLength="439.14" waitingTime="822.00" waitingCount="4" stopTime="0.00" timeLoss="844.30" rerouteNo="0" devices="tripinfo_153446_420_0 routing_153446_420_0" vType="pkw" speedFactor="1.04" vaporized=""/>
    <tripinfo id="218594_446_0" depart="26611.00" departLane="32324544#0_0" departPos="4.40" departSpeed="0.00" departDelay="0.00" arrival="26620.00" arrivalLane="32324544#0_0" arrivalPos="90.48" arrivalSpeed="17.73" duration="9.00" routeLength="86.08" waitingTime="0.00" waitingCount="0" stopTime="0.00" timeLoss="4.88" rerouteNo="1" devices="tripinfo_218594_446_0 routing_218594_446_0" vType="pkw" speedFactor="1.08" vaporized=""/>
    <tripinfo id="121258_405_0" depart="25240.00" departLane="23429231#1_0" departPos="4.40" departSpeed="0.00" departDelay="0.00" arrival="-1.00" arrivalLane="" arrivalPos="-1.00" arrivalSpeed="-1.00" duration="3560.00" routeLength="91.17" waitingTime="3548.00" waitingCount="1" stopTime="0.00" timeLoss="3553.30" rerouteNo="0" devices="tripinfo_121258_405_0 routing_121258_405_0" vType="pkw" speedFactor="0.82" vaporized="end"/>
    <tripinfo id="126742_407_0" depart="25242.00" departLane="23429231#1_0" departPos="4.40" departSpeed="0.00" departDelay="2.00" arrival="-1.00" arrivalLane="" arrivalPos="-1.00" arrivalSpeed="-1.00" duration="3558.00" routeLength="91.17" waitingTime="3544.00" waitingCount="1" stopTime="0.00" timeLoss="3552.41" rerouteNo="0" devices="tripinfo_126742_407_0 routing_126742_407_0" vType="pkw" speedFactor="1.02" vaporized="end"/>
    <tripinfo id="102501_396_0" depart="25245.00" departLane="23429231#1_0" departPos="4.40" departSpeed="0.00" departDelay="1.00" arrival="-1.00" arrivalLane="" arrivalPos="-1.00" arrivalSpeed="-1.00" duration="3555.00" routeLength="85.37" waitingTime="3542.00" waitingCount="1" stopTime="0.00" timeLoss="3550.17" rerouteNo="0" devices="tripinfo_102501_396_0 routing_102501_396_0" vType="pkw" speedFactor="1.15" vaporized="end"/>
    <tripinfo id="120663_405_0" depart="25248.00" departLane="23429231#1_0" departPos="4.40" departSpeed="0.00" departDelay="2.00" arrival="-1.00" arrivalLane="" arrivalPos="-1.00" arrivalSpeed="-1.00" duration="3552.00" routeLength="79.57" waitingTime="3539.00" waitingCount="1" stopTime="0.00" timeLoss="3546.69" rerouteNo="0" devices="tripinfo_120663_405_0 routing_120663_405_0" vType="pkw" speedFactor="0.95" vaporized="end"/>
    <tripinfo id="113509_402_0" depart="25250.00" departLane="23429231#1_0" departPos="4.40" departSpeed="0.00" departDelay="2.00" arrival="-1.00" arrivalLane="" arrivalPos="-1.00" arrivalSpeed="-1.00" duration="3550.00" routeLength="85.37" waitingTime="3536.00" waitingCount="1" stopTime="0.00" timeLoss="3543.46" rerouteNo="0" devices="tripinfo_113509_402_0 routing_113509_402_0" vType="pkw" speedFactor="0.79" vaporized="end"/>
    <tripinfo id="130147_409_0" depart="25253.00" departLane="23429231#1_0" departPos="4.40" departSpeed="0.00" departDelay="2.00" arrival="-1.00" arrivalLane="" arrivalPos="-1.00" arrivalSpeed="-1.00" duration="3547.00" routeLength="79.57" waitingTime="3535.00" waitingCount="1" stopTime="0.00" timeLoss="3541.97" rerouteNo="0" devices="tripinfo_130147_409_0 routing_130147_409_0" vType="pkw" speedFactor="1.01" vaporized="end"/>
    <tripinfo id="102630_396_0" depart="25255.00" departLane="23429231#1_0" departPos="4.40" departSpeed="0.00" departDelay="3.00" arrival="-1.00" arrivalLane="" arrivalPos="-1.00" arrivalSpeed="-1.00" duration="3545.00" routeLength="73.77" waitingTime="3532.00" waitingCount="1" stopTime="0.00" timeLoss="3539.37" rerouteNo="0" devices="tripinfo_102630_396_0 routing_102630_396_0" vType="pkw" speedFactor="0.82" vaporized="end"/>
    <tripinfo id="122376_406_0" depart="25259.00" departLane="23429231#1_0" departPos="4.40" departSpeed="0.00" departDelay="5.00" arrival="-1.00" arrivalLane="" arrivalPos="-1.00" arrivalSpeed="-1.00" duration="3541.00" routeLength="73.77" waitingTime="3528.00" waitingCount="1" stopTime="0.00" timeLoss="3535.97" rerouteNo="0" devices="tripinfo_122376_406_0 routing_122376_406_0" vType="pkw" speedFactor="0.94" vaporized="end"/>
    <tripinfo id="122194_406_0" depart="25262.00" departLane="23429231#1_0" departPos="4.40" departSpeed="0.00" departDelay="7.00" arrival="-1.00" arrivalLane="" arrivalPos="-1.00" arrivalSpeed="-1.00" duration="3538.00" routeLength="67.96" waitingTime="3526.00" waitingCount="1" stopTime="0.00" timeLoss="3534.11" rerouteNo="0" devices="tripinfo_122194_406_0 routing_122194_406_0" vType="pkw" speedFactor="1.21" vaporized="end"/>
    <tripinfo id="135103_411_0" depart="25264.00" departLane="23429231#1_0" departPos="4.40" departSpeed="0.00" departDelay="8.00" arrival="-1.00" arrivalLane="" arrivalPos="-1.00" arrivalSpeed="-1.00" duration="3536.00" routeLength="67.96" waitingTime="3524.00" waitingCount="1" stopTime="0.00" timeLoss="3531.67" rerouteNo="0" devices="tripinfo_135103_411_0 routing_135103_411_0" vType="pkw" speedFactor="1.05" vaporized="end"/>
    <tripinfo id="152958_419_0" depart="25267.00" departLane="23429231#1_0" departPos="4.40" departSpeed="0.00" departDelay="10.00" arrival="-1.00" arrivalLane="" arrivalPos="-1.00" arrivalSpeed="-1.00" duration="3533.00" routeLength="62.16" waitingTime="3521.00" waitingCount="1" stopTime="0.00" timeLoss="3528.46" rerouteNo="0" devices="tripinfo_152958_419_0 routing_152958_419_0" vType="pkw" speedFactor="0.90" vaporized="end"/>
    <tripinfo id="125613_406_0" depart="25270.00" departLane="23429231#1_0" departPos="4.40" departSpeed="0.00" departDelay="12.00" arrival="-1.00" arrivalLane="" arrivalPos="-1.00" arrivalSpeed="-1.00" duration="3530.00" routeLength="56.36" waitingTime="3519.00" waitingCount="1" stopTime="0.00" timeLoss="3525.88" rerouteNo="0" devices="tripinfo_125613_406_0 routing_125613_406_0" vType="pkw" speedFactor="0.93" vaporized="end"/>
    <tripinfo id="133955_411_0" depart="25273.00" departLane="23429231#1_0" departPos="4.40" departSpeed="0.00" departDelay="14.00" arrival="-1.00" arrivalLane="" arrivalPos="-1.00" arrivalSpeed="-1.00" duration="3527.00" routeLength="62.16" waitingTime="3516.00" waitingCount="1" stopTime="0.00" timeLoss="3522.74" rerouteNo="0" devices="tripinfo_133955_411_0 routing_133955_411_0" vType="pkw" speedFactor="0.98" vaporized="end"/>
    <tripinfo id="129253_408_0" depart="25275.00" departLane="23429231#1_0" departPos="4.40" departSpeed="0.00" departDelay="15.00" arrival="-1.00" arrivalLane="" arrivalPos="-1.00" arrivalSpeed="-1.00" duration="3525.00" routeLength="56.36" waitingTime="3514.00" waitingCount="1" stopTime="0.00" timeLoss="3521.41" rerouteNo="0" devices="tripinfo_129253_408_0 routing_129253_408_0" vType="pkw" speedFactor="1.12" vaporized="end"/>
    <tripinfo id="120275_405_0" depart="25278.00" departLane="23429231#1_0" departPos="4.40" departSpeed="0.00" departDelay="17.00" arrival="-1.00" arrivalLane="" arrivalPos="-1.00" arrivalSpeed="-1.00" duration="3522.00" routeLength="50.56" waitingTime="3512.00" waitingCount="1" stopTime="0.00" timeLoss="3518.45" rerouteNo="0" devices="tripinfo_120275_405_0 routing_120275_405_0" vType="pkw" speedFactor="1.02" vaporized="end"/>
    <tripinfo id="134807_411_0" depart="25280.00" departLane="23429231#1_0" departPos="4.40" departSpeed="0.00" departDelay="18.00" arrival="-1.00" arrivalLane="" arrivalPos="-1.00" arrivalSpeed="-1.00" duration="3520.00" routeLength="50.56" waitingTime="3508.00" waitingCount="1" stopTime="0.00" timeLoss="3516.48" rerouteNo="0" devices="tripinfo_134807_411_0 routing_134807_411_0" vType="pkw" speedFactor="1.03" vaporized="end"/>
    <tripinfo id="135201_411_0" depart="25282.00" departLane="23429231#1_0" departPos="4.40" departSpeed="0.00" departDelay="18.00" arrival="-1.00" arrivalLane="" arrivalPos="-1.00" arrivalSpeed="-1.00" duration="3518.00" routeLength="44.76" waitingTime="3509.00" waitingCount="1" stopTime="0.00" timeLoss="3514.98" rerouteNo="0" devices="tripinfo_135201_411_0 routing_135201_411_0" vType="pkw" speedFactor="1.14" vaporized="end"/>
    <tripinfo id="86189_391_0" depart="25284.00" departLane="23429231#1_0" departPos="4.40" departSpeed="0.00" departDelay="19.00" arrival="-1.00" arrivalLane="" arrivalPos="-1.00" arrivalSpeed="-1.00" duration="3516.00" routeLength="44.76" waitingTime="3505.00" waitingCount="1" stopTime="0.00" timeLoss="3513.10" rerouteNo="0" devices="tripinfo_86189_391_0 routing_86189_391_0" vType="pkw" speedFactor="1.21" vaporized="end"/>
    <tripinfo id="57065_374_0" depart="25288.00" departLane="23429231#1_0" departPos="4.40" departSpeed="0.00" departDelay="22.00" arrival="-1.00" arrivalLane="" arrivalPos="-1.00" arrivalSpeed="-1.00" duration="3512.00" routeLength="38.96" waitingTime="3504.00" waitingCount="1" stopTime="0.00" timeLoss="3508.57" rerouteNo="0" devices="tripinfo_57065_374_0 routing_57065_374_0" vType="pkw" speedFactor="0.82" vaporized="end"/>
    <tripinfo id="129519_408_0" depart="25290.00" departLane="23429231#1_0" departPos="4.40" departSpeed="0.00" departDelay="23.00" arrival="-1.00" arrivalLane="" arrivalPos="-1.00" arrivalSpeed="-1.00" duration="3510.00" routeLength="38.96" waitingTime="3499.00" waitingCount="1" stopTime="0.00" timeLoss="3507.11" rerouteNo="0" devices="tripinfo_129519_408_0 routing_129519_408_0" vType="pkw" speedFactor="1.06" vaporized="end"/>
    <tripinfo id="82015_389_0" depart="25293.00" departLane="23429231#1_0" departPos="4.40" departSpeed="0.00" departDelay="25.00" arrival="-1.00" arrivalLane="" arrivalPos="-1.00" arrivalSpeed="-1.00" duration="3507.00" routeLength="33.16" waitingTime="3498.00" waitingCount="1" stopTime="0.00" timeLoss="3503.76" rerouteNo="0" devices="tripinfo_82015_389_0 routing_82015_389_0" vType="pkw" speedFactor="0.76" vaporized="end"/>
    <tripinfo id="136204_411_0" depart="25295.00" departLane="23429231#1_0" departPos="4.40" departSpeed="0.00" departDelay="26.00" arrival="-1.00" arrivalLane="" arrivalPos="-1.00" arrivalSpeed="-1.00" duration="3505.00" routeLength="33.16" waitingTime="3497.00" waitingCount="2" stopTime="0.00" timeLoss="3502.22" rerouteNo="0" devices="tripinfo_136204_411_0 routing_136204_411_0" vType="pkw" speedFactor="0.96" vaporized="end"/>
    <tripinfo id="135431_411_0" depart="25299.00" departLane="23429231#1_0" departPos="4.40" departSpeed="0.00" departDelay="30.00" arrival="-1.00" arrivalLane="" arrivalPos="-1.00" arrivalSpeed="-1.00" duration="3501.00" routeLength="27.36" waitingTime="3493.00" waitingCount="1" stopTime="0.00" timeLoss="3498.58" rerouteNo="0" devices="tripinfo_135431_411_0 routing_135431_411_0" vType="pkw" speedFactor="0.99" vaporized="end"/>
    <tripinfo id="146814_416_0" depart="25301.00" departLane="23429231#1_0" departPos="4.40" departSpeed="0.00" departDelay="30.00" arrival="-1.00" arrivalLane="" arrivalPos="-1.00" arrivalSpeed="-1.00" duration="3499.00" routeLength="27.36" waitingTime="3490.00" waitingCount="1" stopTime="0.00" timeLoss="3496.47" rerouteNo="0" devices="tripinfo_146814_416_0 routing_146814_416_0" vType="pkw" speedFactor="0.92" vaporized="end"/>
    <tripinfo id="125316_406_0" depart="25304.00" departLane="23429231#1_0" departPos="4.40" departSpeed="0.00" departDelay="33.00" arrival="-1.00" arrivalLane="" arrivalPos="-1.00" arrivalSpeed="-1.00" duration="3496.00" routeLength="21.56" waitingTime="3490.00" waitingCount="1" stopTime="0.00" timeLoss="3493.95" rerouteNo="0" devices="tripinfo_125316_406_0 routing_125316_406_0" vType="pkw" speedFactor="1.06" vaporized="end"/>
    <tripinfo id="118286_405_0" depart="25306.00" departLane="23429231#1_0" departPos="4.40" departSpeed="0.00" departDelay="33.00" arrival="-1.00" arrivalLane="" arrivalPos="-1.00" arrivalSpeed="-1.00" duration="3494.00" routeLength="21.56" waitingTime="3485.00" waitingCount="1" stopTime="0.00" timeLoss="3492.04" rerouteNo="0" devices="tripinfo_118286_405_0 routing_118286_405_0" vType="pkw" speedFactor="1.16" vaporized="end"/>
    <tripinfo id="134435_411_0" depart="25309.00" departLane="23429231#1_0" departPos="4.40" departSpeed="0.00" departDelay="36.00" arrival="-1.00" arrivalLane="" arrivalPos="-1.00" arrivalSpeed="-1.00" duration="3491.00" routeLength="15.76" waitingTime="3485.00" waitingCount="1" stopTime="0.00" timeLoss="3489.19" rerouteNo="0" devices="tripinfo_134435_411_0 routing_134435_411_0" vType="pkw" speedFactor="1.00" vaporized="end"/>
    <tripinfo id="108236_400_0" depart="25312.00" departLane="23429231#1_0" departPos="4.40" departSpeed="0.00" departDelay="38.00" arrival="-1.00" arrivalLane="" arrivalPos="-1.00" arrivalSpeed="-1.00" duration="3488.00" routeLength="15.76" waitingTime="3480.00" waitingCount="1" stopTime="0.00" timeLoss="3486.00" rerouteNo="0" devices="tripinfo_108236_400_0 routing_108236_400_0" vType="pkw" speedFactor="0.81" vaporized="end"/>
    <tripinfo id="146536_416_0" depart="25313.00" departLane="23429231#1_0" departPos="4.40" departSpeed="0.00" departDelay="38.00" arrival="-1.00" arrivalLane="" arrivalPos="-1.00" arrivalSpeed="-1.00" duration="3487.00" routeLength="9.95" waitingTime="3481.00" waitingCount="1" stopTime="0.00" timeLoss="3485.58" rerouteNo="0" devices="tripinfo_146536_416_0 routing_146536_416_0" vType="pkw" speedFactor="1.20" vaporized="end"/>
    <tripinfo id="110905_401_0" depart="25315.00" departLane="23429231#1_0" departPos="4.40" departSpeed="0.00" departDelay="39.00" arrival="-1.00" arrivalLane="" arrivalPos="-1.00" arrivalSpeed="-1.00" duration="3485.00" routeLength="9.95" waitingTime="3478.00" waitingCount="1" stopTime="0.00" timeLoss="3483.51" rerouteNo="0" devices="tripinfo_110905_401_0 routing_110905_401_0" vType="pkw" speedFactor="1.04" vaporized="end"/>