<?xml version="1.0" encoding="UTF-8"?>

<!-- generated on 2023-08-31 13:19:46 by Eclipse SUMO libsumo Version 1.18.0
<configuration xmlns:xsi="http://www.w3.org/2001/XMLSchema-instance" xsi:noNamespaceSchemaLocation="http://sumo.dlr.de/xsd/libsumoConfiguration.xsd">

    <input>
        <net-file value="/home/stefan/RESCO/./environments/cologne1/cologne1.net.xml"/>
        <route-files value="/home/stefan/RESCO/./environments/cologne1/cologne1.rou.xml"/>
    </input>

    <output>
        <tripinfo-output value="/home/stefan/results/RAINBOW-tr0-cologne1-0-drq_norm-wait_norm/tripinfo_84.xml"/>
        <tripinfo-output.write-unfinished value="true"/>
    </output>

    <time>
        <begin value="25200"/>
        <end value="28800"/>
    </time>

    <processing>
        <time-to-teleport value="-1"/>
    </processing>

    <report>
        <no-warnings value="True"/>
        <no-step-log value="True"/>
    </report>

    <random_number>
        <random value="true"/>
    </random_number>

</configuration>
-->

<tripinfos xmlns:xsi="http://www.w3.org/2001/XMLSchema-instance" xsi:noNamespaceSchemaLocation="http://sumo.dlr.de/xsd/tripinfo_file.xsd">
    <tripinfo id="124779_406_0" depart="25205.00" departLane="28198821#3_0" departPos="4.40" departSpeed="0.00" departDelay="0.00" arrival="25220.00" arrivalLane="32038051#0_1" arrivalPos="89.25" arrivalSpeed="20.69" duration="15.00" routeLength="170.57" waitingTime="0.00" waitingCount="0" stopTime="0.00" timeLoss="5.26" rerouteNo="0" devices="tripinfo_124779_406_0 routing_124779_406_0" vType="pkw" speedFactor="1.07" vaporized=""/>
    <tripinfo id="98305_395_0" depart="25211.00" departLane="28198821#3_0" departPos="4.40" departSpeed="0.00" departDelay="0.00" arrival="25234.00" arrivalLane="32038051#0_1" arrivalPos="89.25" arrivalSpeed="18.86" duration="23.00" routeLength="170.57" waitingTime="2.00" waitingCount="1" stopTime="0.00" timeLoss="12.35" rerouteNo="0" devices="tripinfo_98305_395_0 routing_98305_395_0" vType="pkw" speedFactor="1.00" vaporized=""/>
    <tripinfo id="102535_396_0" depart="25218.00" departLane="28198821#3_0" departPos="4.40" departSpeed="0.00" departDelay="0.00" arrival="25235.00" arrivalLane="32038051#0_1" arrivalPos="89.25" arrivalSpeed="19.58" duration="17.00" routeLength="170.57" waitingTime="0.00" waitingCount="0" stopTime="0.00" timeLoss="7.58" rerouteNo="0" devices="tripinfo_102535_396_0 routing_102535_396_0" vType="pkw" speedFactor="1.08" vaporized=""/>
    <tripinfo id="147209_416_0" depart="25220.00" departLane="28198821#3_0" departPos="4.40" departSpeed="0.00" departDelay="0.00" arrival="25243.00" arrivalLane="32038051#0_1" arrivalPos="89.25" arrivalSpeed="20.46" duration="23.00" routeLength="170.57" waitingTime="4.00" waitingCount="1" stopTime="0.00" timeLoss="13.64" rerouteNo="0" devices="tripinfo_147209_416_0 routing_147209_416_0" vType="pkw" speedFactor="1.12" vaporized=""/>
    <tripinfo id="151372_418_0" depart="25207.00" departLane="130165204_0" departPos="4.40" departSpeed="0.00" departDelay="0.00" arrival="25251.00" arrivalLane="32038051#0_1" arrivalPos="89.25" arrivalSpeed="19.25" duration="44.00" routeLength="410.03" waitingTime="2.00" waitingCount="1" stopTime="0.00" timeLoss="18.77" rerouteNo="1" devices="tripinfo_151372_418_0 routing_151372_418_0" vType="pkw" speedFactor="1.06" vaporized=""/>
    <tripinfo id="91582_392_0" depart="25221.00" departLane="-32038056#3_0" departPos="4.40" departSpeed="0.00" departDelay="3.00" arrival="25254.00" arrivalLane="32324544#0_1" arrivalPos="90.48" arrivalSpeed="22.59" duration="33.00" routeLength="465.51" waitingTime="0.00" waitingCount="0" stopTime="0.00" timeLoss="5.46" rerouteNo="0" devices="tripinfo_91582_392_0 routing_91582_392_0" vType="pkw" speedFactor="1.17" vaporized=""/>
    <tripinfo id="149029_417_0" depart="25236.00" departLane="27115123#2_0" departPos="4.40" departSpeed="0.00" departDelay="0.00" arrival="25259.00" arrivalLane="32038051#0_1" arrivalPos="89.25" arrivalSpeed="21.08" duration="23.00" routeLength="196.41" waitingTime="1.00" waitingCount="1" stopTime="0.00" timeLoss="13.87" rerouteNo="1" devices="tripinfo_149029_417_0 routing_149029_417_0" vType="pkw" speedFactor="1.14" vaporized=""/>
    <tripinfo id="115444_403_0" depart="25294.00" departLane="28198821#3_0" departPos="4.40" departSpeed="0.00" departDelay="0.00" arrival="25311.00" arrivalLane="32038051#0_1" arrivalPos="89.25" arrivalSpeed="21.76" duration="17.00" routeLength="170.57" waitingTime="0.00" waitingCount="0" stopTime="0.00" timeLoss="8.09" rerouteNo="0" devices="tripinfo_115444_403_0 routing_115444_403_0" vType="pkw" speedFactor="1.15" vaporized=""/>
    <tripinfo id="103540_397_0" depart="25300.00" departLane="28198821#3_0" departPos="4.40" departSpeed="0.00" departDelay="0.00" arrival="25315.00" arrivalLane="32038051#0_1" arrivalPos="89.25" arrivalSpeed="18.66" duration="15.00" routeLength="170.57" waitingTime="0.00" waitingCount="0" stopTime="0.00" timeLoss="4.35" rerouteNo="0" devices="tripinfo_103540_397_0 routing_103540_397_0" vType="pkw" speedFactor="1.01" vaporized=""/>
    <tripinfo id="162096_421_0" depart="25306.00" departLane="130165204_0" departPos="4.40" departSpeed="0.00" departDelay="0.00" arrival="25349.00" arrivalLane="32038051#0_1" arrivalPos="89.25" arrivalSpeed="20.84" duration="43.00" routeLength="410.03" waitingTime="3.00" waitingCount="1" stopTime="0.00" timeLoss="19.93" rerouteNo="1" devices="tripinfo_162096_421_0 routing_162096_421_0" vType="pkw" speedFactor="1.16" vaporized=""/>
    <tripinfo id="175147_428_0" depart="25324.00" departLane="130165204_0" departPos="4.40" departSpeed="0.00" departDelay="0.00" arrival="25369.00" arrivalLane="32038051#0_1" arrivalPos="89.25" arrivalSpeed="18.52" duration="45.00" routeLength="410.03" waitingTime="5.00" waitingCount="1" stopTime="0.00" timeLoss="17.19" rerouteNo="1" devices="tripinfo_175147_428_0 routing_175147_428_0" vType="pkw" speedFactor="0.97" vaporized=""/>
    <tripinfo id="161721_421_0" depart="25337.00" departLane="130165204_0" departPos="4.40" departSpeed="0.00" departDelay="0.00" arrival="25379.00" arrivalLane="32038051#0_1" arrivalPos="89.25" arrivalSpeed="19.90" duration="42.00" routeLength="410.03" waitingTime="2.00" waitingCount="1" stopTime="0.00" timeLoss="15.98" rerouteNo="1" devices="tripinfo_161721_421_0 routing_161721_421_0" vType="pkw" speedFactor="1.03" vaporized=""/>
    <tripinfo id="136669_411_0" depart="25566.00" departLane="28198821#3_0" departPos="4.40" departSpeed="0.00" departDelay="0.00" arrival="25580.00" arrivalLane="32038051#0_1" arrivalPos="89.25" arrivalSpeed="18.16" duration="14.00" routeLength="170.57" waitingTime="0.00" waitingCount="0" stopTime="0.00" timeLoss="3.79" rerouteNo="0" devices="tripinfo_136669_411_0 routing_136669_411_0" vType="pkw" speedFactor="0.98" vaporized=""/>
    <tripinfo id="218594_446_0" depart="26611.00" departLane="32324544#0_0" departPos="4.40" departSpeed="0.00" departDelay="0.00" arrival="26621.00" arrivalLane="32324544#0_0" arrivalPos="90.48" arrivalSpeed="16.47" duration="10.00" routeLength="86.08" waitingTime="0.00" waitingCount="0" stopTime="0.00" timeLoss="5.26" rerouteNo="1" devices="tripinfo_218594_446_0 routing_218594_446_0" vType="pkw" speedFactor="1.00" vaporized=""/>
    <tripinfo id="121258_405_0" depart="25240.00" departLane="23429231#1_0" departPos="4.40" departSpeed="0.00" departDelay="0.00" arrival="27203.00" arrivalLane="32038051#0_0" arrivalPos="89.25" arrivalSpeed="18.96" duration="1963.00" routeLength="203.79" waitingTime="1939.00" waitingCount="1" stopTime="0.00" timeLoss="1952.69" rerouteNo="0" devices="tripinfo_121258_405_0 routing_121258_405_0" vType="pkw" speedFactor="1.04" vaporized=""/>
    <tripinfo id="126742_407_0" depart="25243.00" departLane="23429231#1_0" departPos="4.40" departSpeed="0.00" departDelay="3.00" arrival="27204.00" arrivalLane="32038051#0_1" arrivalPos="89.25" arrivalSpeed="19.69" duration="1961.00" routeLength="203.79" waitingTime="1936.00" waitingCount="1" stopTime="0.00" timeLoss="1950.38" rerouteNo="0" devices="tripinfo_126742_407_0 routing_126742_407_0" vType="pkw" speedFactor="1.06" vaporized=""/>
    <tripinfo id="148629_417_0" depart="25284.00" departLane="27115123#2_0" departPos="4.40" departSpeed="0.00" departDelay="0.00" arrival="27204.00" arrivalLane="32324544#0_0" arrivalPos="90.48" arrivalSpeed="13.86" duration="1920.00" routeLength="198.06" waitingTime="1896.00" waitingCount="1" stopTime="0.00" timeLoss="1905.97" rerouteNo="1" devices="tripinfo_148629_417_0 routing_148629_417_0" vType="pkw" speedFactor="0.76" vaporized=""/>
    <tripinfo id="154290_420_0" depart="25431.00" departLane="27115123#2_0" departPos="4.40" departSpeed="0.00" departDelay="0.00" arrival="27204.00" arrivalLane="32324544#0_1" arrivalPos="90.48" arrivalSpeed="19.74" duration="1773.00" routeLength="198.06" waitingTime="1748.00" waitingCount="1" stopTime="0.00" timeLoss="1762.67" rerouteNo="1" devices="tripinfo_154290_420_0 routing_154290_420_0" vType="pkw" speedFactor="1.05" vaporized=""/>
    <tripinfo id="102501_396_0" depart="25245.00" departLane="23429231#1_0" departPos="4.40" departSpeed="0.00" departDelay="1.00" arrival="27205.00" arrivalLane="32038051#0_0" arrivalPos="89.25" arrivalSpeed="18.86" duration="1960.00" routeLength="203.79" waitingTime="1935.00" waitingCount="1" stopTime="0.00" timeLoss="1948.92" rerouteNo="0" devices="tripinfo_102501_396_0 routing_102501_396_0" vType="pkw" speedFactor="1.00" vaporized=""/>
    <tripinfo id="120663_405_0" depart="25248.00" departLane="23429231#1_0" departPos="4.40" departSpeed="0.00" departDelay="2.00" arrival="27205.00" arrivalLane="32038051#0_1" arrivalPos="89.25" arrivalSpeed="18.05" duration="1957.00" routeLength="203.79" waitingTime="1933.00" waitingCount="1" stopTime="0.00" timeLoss="1946.18" rerouteNo="0" devices="tripinfo_120663_405_0 routing_120663_405_0" vType="pkw" speedFactor="0.99" vaporized=""/>
    <tripinfo id="129330_408_0" depart="25434.00" departLane="27115123#2_0" departPos="4.40" departSpeed="0.00" departDelay="2.00" arrival="27205.00" arrivalLane="32324544#0_0" arrivalPos="90.48" arrivalSpeed="16.04" duration="1771.00" routeLength="198.06" waitingTime="1748.00" waitingCount="1" stopTime="0.00" timeLoss="1759.73" rerouteNo="1" devices="tripinfo_129330_408_0 routing_129330_408_0" vType="pkw" speedFactor="0.91" vaporized=""/>
    <tripinfo id="130147_409_0" depart="25253.00" departLane="23429231#1_0" departPos="4.40" departSpeed="0.00" departDelay="2.00" arrival="27207.00" arrivalLane="32038051#0_0" arrivalPos="89.25" arrivalSpeed="15.95" duration="1954.00" routeLength="203.79" waitingTime="1930.00" waitingCount="1" stopTime="0.00" timeLoss="1941.32" rerouteNo="0" devices="tripinfo_130147_409_0 routing_130147_409_0" vType="pkw" speedFactor="0.86" vaporized=""/>
    <tripinfo id="153635_420_0" depart="25460.00" departLane="27115123#2_0" departPos="4.40" departSpeed="0.00" departDelay="0.00" arrival="27207.00" arrivalLane="32324544#0_0" arrivalPos="90.48" arrivalSpeed="16.51" duration="1747.00" routeLength="198.06" waitingTime="1723.00" waitingCount="1" stopTime="0.00" timeLoss="1736.23" rerouteNo="1" devices="tripinfo_153635_420_0 routing_153635_420_0" vType="pkw" speedFactor="0.99" vaporized=""/>
    <tripinfo id="145855_416_0" depart="25469.00" departLane="27115123#2_0" departPos="4.40" departSpeed="0.00" departDelay="0.00" arrival="27207.00" arrivalLane="32324544#0_1" arrivalPos="90.48" arrivalSpeed="16.08" duration="1738.00" routeLength="198.06" waitingTime="1712.00" waitingCount="1" stopTime="0.00" timeLoss="1725.57" rerouteNo="1" devices="tripinfo_145855_416_0 routing_145855_416_0" vType="pkw" speedFactor="0.87" vaporized=""/>
    <tripinfo id="102630_396_0" depart="25256.00" departLane="23429231#1_0" departPos="4.40" departSpeed="0.00" departDelay="4.00" arrival="27208.00" arrivalLane="32038051#0_0" arrivalPos="89.25" arrivalSpeed="17.18" duration="1952.00" routeLength="203.79" waitingTime="1928.00" waitingCount="1" stopTime="0.00" timeLoss="1940.23" rerouteNo="0" devices="tripinfo_102630_396_0 routing_102630_396_0" vType="pkw" speedFactor="0.89" vaporized=""/>
    <tripinfo id="122376_406_0" depart="25258.00" departLane="23429231#1_0" departPos="4.40" departSpeed="0.00" departDelay="4.00" arrival="27208.00" arrivalLane="32038051#0_1" arrivalPos="89.25" arrivalSpeed="21.23" duration="1950.00" routeLength="203.79" waitingTime="1925.00" waitingCount="1" stopTime="0.00" timeLoss="1939.84" rerouteNo="0" devices="tripinfo_122376_406_0 routing_122376_406_0" vType="pkw" speedFactor="1.10" vaporized=""/>
    <tripinfo id="161689_421_0" depart="25467.00" departLane="130165204_0" departPos="4.40" departSpeed="0.00" departDelay="0.00" arrival="27208.00" arrivalLane="32324544#0_0" arrivalPos="90.48" arrivalSpeed="20.15" duration="1741.00" routeLength="411.68" waitingTime="1700.00" waitingCount="1" stopTime="0.00" timeLoss="1717.03" rerouteNo="1" devices="tripinfo_161689_421_0 routing_161689_421_0" vType="pkw" speedFactor="1.11" vaporized=""/>
    <tripinfo id="164382_422_0" depart="25470.00" departLane="130165204_0" departPos="4.40" departSpeed="0.00" departDelay="1.00" arrival="27208.00" arrivalLane="32324544#0_1" arrivalPos="90.48" arrivalSpeed="19.07" duration="1738.00" routeLength="411.68" waitingTime="1696.00" waitingCount="1" stopTime="0.00" timeLoss="1712.18" rerouteNo="1" devices="tripinfo_164382_422_0 routing_164382_422_0" vType="pkw" speedFactor="1.02" vaporized=""/>
    <tripinfo id="135103_411_0" depart="25264.00" departLane="23429231#1_0" departPos="4.40" departSpeed="0.00" departDelay="8.00" arrival="27209.00" arrivalLane="32038051#0_1" arrivalPos="89.25" arrivalSpeed="22.14" duration="1945.00" routeLength="203.79" waitingTime="1921.00" waitingCount="1" stopTime="0.00" timeLoss="1935.73" rerouteNo="0" devices="tripinfo_135103_411_0 routing_135103_411_0" vType="pkw" speedFactor="1.16" vaporized=""/>
    <tripinfo id="122194_406_0" depart="25261.00" departLane="23429231#1_0" departPos="4.40" departSpeed="0.00" departDelay="6.00" arrival="27210.00" arrivalLane="32038051#0_0" arrivalPos="89.25" arrivalSpeed="20.50" duration="1949.00" routeLength="203.79" waitingTime="1925.00" waitingCount="2" stopTime="0.00" timeLoss="1938.53" rerouteNo="0" devices="tripinfo_122194_406_0 routing_122194_406_0" vType="pkw" speedFactor="1.07" vaporized=""/>
    <tripinfo id="100928_396_0" depart="25473.00" departLane="130165204_0" departPos="4.40" departSpeed="0.00" departDelay="1.00" arrival="27210.00" arrivalLane="32324544#0_0" arrivalPos="90.48" arrivalSpeed="19.38" duration="1737.00" routeLength="411.68" waitingTime="1695.00" waitingCount="1" stopTime="0.00" timeLoss="1711.01" rerouteNo="1" devices="tripinfo_100928_396_0 routing_100928_396_0" vType="pkw" speedFactor="1.04" vaporized=""/>
    <tripinfo id="159287_421_0" depart="25503.00" departLane="27115123#2_0" departPos="4.40" departSpeed="0.00" departDelay="0.00" arrival="27210.00" arrivalLane="32324544#0_1" arrivalPos="90.48" arrivalSpeed="17.73" duration="1707.00" routeLength="198.06" waitingTime="1682.00" waitingCount="1" stopTime="0.00" timeLoss="1695.78" rerouteNo="1" devices="tripinfo_159287_421_0 routing_159287_421_0" vType="pkw" speedFactor="0.94" vaporized=""/>
    <tripinfo id="152958_419_0" depart="25267.00" departLane="23429231#1_0" departPos="4.40" departSpeed="0.00" departDelay="10.00" arrival="27211.00" arrivalLane="32038051#0_0" arrivalPos="89.25" arrivalSpeed="17.99" duration="1944.00" routeLength="203.79" waitingTime="1919.00" waitingCount="1" stopTime="0.00" timeLoss="1934.50" rerouteNo="0" devices="tripinfo_152958_419_0 routing_152958_419_0" vType="pkw" speedFactor="1.11" vaporized=""/>
    <tripinfo id="125613_406_0" depart="25270.00" departLane="23429231#1_0" departPos="4.40" departSpeed="0.00" departDelay="12.00" arrival="27211.00" arrivalLane="32038051#0_1" arrivalPos="89.25" arrivalSpeed="17.94" duration="1941.00" routeLength="203.79" waitingTime="1917.00" waitingCount="1" stopTime="0.00" timeLoss="1930.13" rerouteNo="0" devices="tripinfo_125613_406_0 routing_125613_406_0" vType="pkw" speedFactor="0.98" vaporized=""/>
    <tripinfo id="95692_394_0" depart="25510.00" departLane="27115123#2_0" departPos="4.40" departSpeed="0.00" departDelay="0.00" arrival="27211.00" arrivalLane="32324544#0_1" arrivalPos="90.48" arrivalSpeed="19.71" duration="1701.00" routeLength="198.06" waitingTime="1676.00" waitingCount="1" stopTime="0.00" timeLoss="1692.56" rerouteNo="1" devices="tripinfo_95692_394_0 routing_95692_394_0" vType="pkw" speedFactor="1.22" vaporized=""/>
    <tripinfo id="154948_420_0" depart="25505.00" departLane="27115123#2_0" departPos="4.40" departSpeed="0.00" departDelay="1.00" arrival="27212.00" arrivalLane="32324544#0_0" arrivalPos="90.48" arrivalSpeed="18.40" duration="1707.00" routeLength="198.06" waitingTime="1682.00" waitingCount="1" stopTime="0.00" timeLoss="1695.68" rerouteNo="1" devices="tripinfo_154948_420_0 routing_154948_420_0" vType="pkw" speedFactor="0.97" vaporized=""/>
    <tripinfo id="133955_411_0" depart="25272.00" departLane="23429231#1_0" departPos="4.40" departSpeed="0.00" departDelay="13.00" arrival="27213.00" arrivalLane="32038051#0_0" arrivalPos="89.25" arrivalSpeed="21.23" duration="1941.00" routeLength="203.79" waitingTime="1916.00" waitingCount="1" stopTime="0.00" timeLoss="1931.43" rerouteNo="0" devices="tripinfo_133955_411_0 routing_133955_411_0" vType="pkw" speedFactor="1.19" vaporized=""/>
    <tripinfo id="129253_408_0" depart="25275.00" departLane="23429231#1_0" departPos="4.40" departSpeed="0.00" departDelay="15.00" arrival="27213.00" arrivalLane="32038051#0_1" arrivalPos="89.25" arrivalSpeed="22.92" duration="1938.00" routeLength="203.79" waitingTime="1912.00" waitingCount="1" stopTime="0.00" timeLoss="1928.69" rerouteNo="0" devices="tripinfo_129253_408_0 routing_129253_408_0" vType="pkw" speedFactor="1.20" vaporized=""/>
    <tripinfo id="160712_421_0" depart="25514.00" departLane="27115123#2_0" departPos="4.40" departSpeed="0.00" departDelay="0.00" arrival="27213.00" arrivalLane="32324544#0_0" arrivalPos="90.48" arrivalSpeed="18.35" duration="1699.00" routeLength="198.06" waitingTime="1674.00" waitingCount="1" stopTime="0.00" timeLoss="1688.27" rerouteNo="1" devices="tripinfo_160712_421_0 routing_160712_421_0" vType="pkw" speedFactor="0.98" vaporized=""/>
    <tripinfo id="139907_414_0" depart="25535.00" departLane="27115123#2_0" departPos="4.40" departSpeed="0.00" departDelay="0.00" arrival="27213.00" arrivalLane="32324544#0_1" arrivalPos="90.48" arrivalSpeed="18.90" duration="1678.00" routeLength="198.06" waitingTime="1651.00" waitingCount="1" stopTime="0.00" timeLoss="1667.19" rerouteNo="1" devices="tripinfo_139907_414_0 routing_139907_414_0" vType="pkw" speedFactor="1.00" vaporized=""/>
    <tripinfo id="120275_405_0" depart="25278.00" departLane="23429231#1_0" departPos="4.40" departSpeed="0.00" departDelay="17.00" arrival="27214.00" arrivalLane="32038051#0_0" arrivalPos="89.25" arrivalSpeed="19.20" duration="1936.00" routeLength="203.79" waitingTime="1911.00" waitingCount="1" stopTime="0.00" timeLoss="1925.52" rerouteNo="0" devices="tripinfo_120275_405_0 routing_120275_405_0" vType="pkw" speedFactor="1.02" vaporized=""/>
    <tripinfo id="116532_404_0" depart="25579.00" departLane="27115123#2_0" departPos="4.40" departSpeed="0.00" departDelay="0.00" arrival="27215.00" arrivalLane="32324544#0_0" arrivalPos="90.48" arrivalSpeed="19.57" duration="1636.00" routeLength="198.06" waitingTime="1611.00" waitingCount="1" stopTime="0.00" timeLoss="1625.48" rerouteNo="1" devices="tripinfo_116532_404_0 routing_116532_404_0" vType="pkw" speedFactor="1.04" vaporized=""/>
    <tripinfo id="135201_411_0" depart="25282.00" departLane="23429231#1_0" departPos="4.40" departSpeed="0.00" departDelay="18.00" arrival="27216.00" arrivalLane="32038051#0_0" arrivalPos="89.25" arrivalSpeed="16.66" duration="1934.00" routeLength="203.79" waitingTime="1908.00" waitingCount="1" stopTime="0.00" timeLoss="1922.10" rerouteNo="0" devices="tripinfo_135201_411_0 routing_135201_411_0" vType="pkw" speedFactor="0.89" vaporized=""/>
    <tripinfo id="86189_391_0" depart="25285.00" departLane="23429231#1_0" departPos="4.40" departSpeed="0.00" departDelay="20.00" arrival="27216.00" arrivalLane="32038051#0_1" arrivalPos="89.25" arrivalSpeed="18.79" duration="1931.00" routeLength="203.79" waitingTime="1906.00" waitingCount="1" stopTime="0.00" timeLoss="1920.07" rerouteNo="0" devices="tripinfo_86189_391_0 routing_86189_391_0" vType="pkw" speedFactor="0.98" vaporized=""/>
    <tripinfo id="135158_411_0" depart="25587.00" departLane="27115123#2_0" departPos="4.40" departSpeed="0.00" departDelay="0.00" arrival="27216.00" arrivalLane="32324544#0_1" arrivalPos="90.48" arrivalSpeed="20.04" duration="1629.00" routeLength="198.06" waitingTime="1605.00" waitingCount="1" stopTime="0.00" timeLoss="1618.55" rerouteNo="1" devices="tripinfo_135158_411_0 routing_135158_411_0" vType="pkw" speedFactor="1.05" vaporized=""/>
    <tripinfo id="102993_397_0" depart="25585.00" departLane="27115123#2_0" departPos="4.40" departSpeed="0.00" departDelay="0.00" arrival="27217.00" arrivalLane="32324544#0_0" arrivalPos="90.48" arrivalSpeed="18.21" duration="1632.00" routeLength="198.06" waitingTime="1609.00" waitingCount="1" stopTime="0.00" timeLoss="1620.82" rerouteNo="1" devices="tripinfo_102993_397_0 routing_102993_397_0" vType="pkw" speedFactor="0.99" vaporized=""/>
    <tripinfo id="57065_374_0" depart="25288.00" departLane="23429231#1_0" departPos="4.40" departSpeed="0.00" departDelay="22.00" arrival="27218.00" arrivalLane="32038051#0_0" arrivalPos="89.25" arrivalSpeed="18.29" duration="1930.00" routeLength="203.79" waitingTime="1905.00" waitingCount="1" stopTime="0.00" timeLoss="1918.25" rerouteNo="0" devices="tripinfo_57065_374_0 routing_57065_374_0" vType="pkw" speedFactor="0.96" vaporized=""/>
    <tripinfo id="129519_408_0" depart="25291.00" departLane="23429231#1_0" departPos="4.40" departSpeed="0.00" departDelay="24.00" arrival="27218.00" arrivalLane="32038051#0_1" arrivalPos="89.25" arrivalSpeed="21.67" duration="1927.00" routeLength="203.79" waitingTime="1901.00" waitingCount="1" stopTime="0.00" timeLoss="1917.68" rerouteNo="0" devices="tripinfo_129519_408_0 routing_129519_408_0" vType="pkw" speedFactor="1.15" vaporized=""/>
    <tripinfo id="130800_409_0" depart="25602.00" departLane="27115123#2_0" departPos="4.40" departSpeed="0.00" departDelay="0.00" arrival="27218.00" arrivalLane="32324544#0_0" arrivalPos="90.48" arrivalSpeed="19.77" duration="1616.00" routeLength="198.06" waitingTime="1592.00" waitingCount="1" stopTime="0.00" timeLoss="1605.91" rerouteNo="1" devices="tripinfo_130800_409_0 routing_130800_409_0" vType="pkw" speedFactor="1.05" vaporized=""/>
    <tripinfo id="82015_389_0" depart="25294.00" departLane="23429231#1_0" departPos="4.40" departSpeed="0.00" departDelay="26.00" arrival="27219.00" arrivalLane="32038051#0_0" arrivalPos="89.25" arrivalSpeed="18.20" duration="1925.00" routeLength="203.79" waitingTime="1901.00" waitingCount="1" stopTime="0.00" timeLoss="1914.18" rerouteNo="0" devices="tripinfo_82015_389_0 routing_82015_389_0" vType="pkw" speedFactor="0.99" vaporized=""/>
    <tripinfo id="136204_411_0" depart="25296.00" departLane="23429231#1_0" departPos="4.40" departSpeed="0.00" departDelay="27.00" arrival="27220.00" arrivalLane="32038051#0_1" arrivalPos="89.25" arrivalSpeed="18.55" duration="1924.00" routeLength="203.79" waitingTime="1898.00" waitingCount="1" stopTime="0.00" timeLoss="1913.33" rerouteNo="0" devices="tripinfo_136204_411_0 routing_136204_411_0" vType="pkw" speedFactor="1.01" vaporized=""/>
    <tripinfo id="115551_403_0" depart="25605.00" departLane="27115123#2_0" departPos="4.40" departSpeed="0.00" departDelay="0.00" arrival="27220.00" arrivalLane="32324544#0_0" arrivalPos="90.48" arrivalSpeed="21.02" duration="1615.00" routeLength="198.06" waitingTime="1592.00" waitingCount="1" stopTime="0.00" timeLoss="1605.16" rerouteNo="1" devices="tripinfo_115551_403_0 routing_115551_403_0" vType="pkw" speedFactor="1.14" vaporized=""/>
    <tripinfo id="135431_411_0" depart="25298.00" departLane="23429231#1_0" departPos="4.40" departSpeed="0.00" departDelay="29.00" arrival="27221.00" arrivalLane="32038051#0_0" arrivalPos="89.25" arrivalSpeed="17.81" duration="1923.00" routeLength="203.79" waitingTime="1898.00" waitingCount="1" stopTime="0.00" timeLoss="1911.67" rerouteNo="0" devices="tripinfo_135431_411_0 routing_135431_411_0" vType="pkw" speedFactor="0.98" vaporized=""/>
    <tripinfo id="83429_390_0" depart="25608.00" departLane="27115123#2_0" departPos="4.40" departSpeed="0.00" departDelay="0.00" arrival="27221.00" arrivalLane="32324544#0_1" arrivalPos="90.48" arrivalSpeed="16.78" duration="1613.00" routeLength="198.06" waitingTime="1590.00" waitingCount="1" stopTime="0.00" timeLoss="1601.48" rerouteNo="1" devices="tripinfo_83429_390_0 routing_83429_390_0" vType="pkw" speedFactor="0.91" vaporized=""/>
    <tripinfo id="146814_416_0" depart="25301.00" departLane="23429231#1_0" departPos="4.40" departSpeed="0.00" departDelay="30.00" arrival="27222.00" arrivalLane="32038051#0_1" arrivalPos="89.25" arrivalSpeed="19.62" duration="1921.00" routeLength="203.79" waitingTime="1894.00" waitingCount="1" stopTime="0.00" timeLoss="1910.18" rerouteNo="0" devices="tripinfo_146814_416_0 routing_146814_416_0" vType="pkw" speedFactor="1.05" vaporized=""/>
    <tripinfo id="125316_406_0" depart="25304.00" departLane="23429231#1_0" departPos="4.40" departSpeed="0.00" departDelay="33.00" arrival="27222.00" arrivalLane="32038051#0_0" arrivalPos="89.25" arrivalSpeed="19.66" duration="1918.00" routeLength="203.79" waitingTime="1894.00" waitingCount="1" stopTime="0.00" timeLoss="1908.20" rerouteNo="0" devices="tripinfo_125316_406_0 routing_125316_406_0" vType="pkw" speedFactor="1.09" vaporized=""/>
    <tripinfo id="175864_428_0" depart="25490.00" departLane="130165204_0" departPos="4.40" departSpeed="0.00" departDelay="0.00" arrival="27223.00" arrivalLane="32324544#0_0" arrivalPos="90.48" arrivalSpeed="18.72" duration="1733.00" routeLength="411.68" waitingTime="1695.00" waitingCount="1" stopTime="0.00" timeLoss="1705.76" rerouteNo="1" devices="tripinfo_175864_428_0 routing_175864_428_0" vType="pkw" speedFactor="0.97" vaporized=""/>
    <tripinfo id="118286_405_0" depart="25307.00" departLane="23429231#1_0" departPos="4.40" departSpeed="0.00" departDelay="34.00" arrival="27224.00" arrivalLane="32038051#0_1" arrivalPos="89.25" arrivalSpeed="17.76" duration="1917.00" routeLength="203.79" waitingTime="1891.00" waitingCount="1" stopTime="0.00" timeLoss="1904.66" rerouteNo="0" devices="tripinfo_118286_405_0 routing_118286_405_0" vType="pkw" speedFactor="0.92" vaporized=""/>
    <tripinfo id="134435_411_0" depart="25309.00" departLane="23429231#1_0" departPos="4.40" departSpeed="0.00" departDelay="36.00" arrival="27224.00" arrivalLane="32038051#0_0" arrivalPos="89.25" arrivalSpeed="17.30" duration="1915.00" routeLength="203.79" waitingTime="1892.00" waitingCount="1" stopTime="0.00" timeLoss="1903.53" rerouteNo="0" devices="tripinfo_134435_411_0 routing_134435_411_0" vType="pkw" speedFactor="0.95" vaporized=""/>
    <tripinfo id="108236_400_0" depart="25311.00" departLane="23429231#1_0" departPos="4.40" departSpeed="0.00" departDelay="37.00" arrival="27225.00" arrivalLane="32038051#0_1" arrivalPos="89.25" arrivalSpeed="19.81" duration="1914.00" routeLength="203.79" waitingTime="1888.00" waitingCount="1" stopTime="0.00" timeLoss="1903.99" rerouteNo="0" devices="tripinfo_108236_400_0 routing_108236_400_0" vType="pkw" speedFactor="1.10" vaporized=""/>
    <tripinfo id="146536_416_0" depart="25313.00" departLane="23429231#1_0" departPos="4.40" departSpeed="0.00" departDelay="38.00" arrival="27226.00" arrivalLane="32038051#0_0" arrivalPos="89.25" arrivalSpeed="18.46" duration="1913.00" routeLength="203.79" waitingTime="1890.00" waitingCount="1" stopTime="0.00" timeLoss="1901.47" rerouteNo="0" devices="tripinfo_146536_416_0 routing_146536_416_0" vType="pkw" speedFactor="0.99" vaporized=""/>
    <tripinfo id="110905_401_0" depart="25316.00" departLane="23429231#1_0" departPos="4.40" departSpeed="0.00" departDelay="40.00" arrival="27226.00" arrivalLane="32038051#0_1" arrivalPos="89.25" arrivalSpeed="18.26" duration="1910.00" routeLength="203.79" waitingTime="1887.00" waitingCount="1" stopTime="0.00" timeLoss="1899.19" rerouteNo="0" devices="tripinfo_110905_401_0 routing_110905_401_0" vType="pkw" speedFactor="0.97" vaporized=""/>
    <tripinfo id="134807_411_0" depart="25281.00" departLane="23429231#1_0" departPos="4.40" departSpeed="0.00" departDelay="19.00" arrival="27227.00" arrivalLane="32324544#0_1" arrivalPos="90.48" arrivalSpeed="15.72" duration="1946.00" routeLength="203.50" waitingTime="1912.00" waitingCount="2" stopTime="0.00" timeLoss="1933.31" rerouteNo="0" devices="tripinfo_134807_411_0 routing_134807_411_0" vType="pkw" speedFactor="0.84" vaporized=""/>
    <tripinfo id="118931_405_0" depart="25317.00" departLane="23429231#1_0" departPos="4.40" departSpeed="0.00" departDelay="40.00" arrival="27227.00" arrivalLane="32038051#0_0" arrivalPos="89.25" arrivalSpeed="19.04" duration="1910.00" routeLength="203.79" waitingTime="1888.00" waitingCount="1" stopTime="0.00" timeLoss="1898.85" rerouteNo="0" devices="tripinfo_118931_405_0 routing_118931_405_0" vType="pkw" speedFactor="0.98" vaporized=""/>
    <tripinfo id="113509_402_0" depart="25251.00" departLane="23429231#1_0" departPos="4.40" departSpeed="0.00" departDelay="3.00" arrival="27228.00" arrivalLane="-28198821#4_1" arrivalPos="57.10" arrivalSpeed="6.29" duration="1977.00" routeLength="179.90" waitingTime="1945.00" waitingCount="2" stopTime="0.00" timeLoss="1965.13" rerouteNo="0" devices="tripinfo_113509_402_0 routing_113509_402_0" vType="pkw" speedFactor="0.93" vaporized=""/>