<?xml version="1.0" encoding="UTF-8"?>

<!-- generated on 2023-08-31 13:16:05 by Eclipse SUMO libsumo Version 1.18.0
<configuration xmlns:xsi="http://www.w3.org/2001/XMLSchema-instance" xsi:noNamespaceSchemaLocation="http://sumo.dlr.de/xsd/libsumoConfiguration.xsd">

    <input>
        <net-file value="/home/stefan/RESCO/./environments/cologne1/cologne1.net.xml"/>
        <route-files value="/home/stefan/RESCO/./environments/cologne1/cologne1.rou.xml"/>
    </input>

    <output>
        <tripinfo-output value="/home/stefan/results/RAINBOW-tr0-cologne1-0-drq_norm-wait_norm/tripinfo_45.xml"/>
        <tripinfo-output.write-unfinished value="true"/>
    </output>

    <time>
        <begin value="25200"/>
        <end value="28800"/>
    </time>

    <processing>
        <time-to-teleport value="-1"/>
    </processing>

    <report>
        <no-warnings value="True"/>
        <no-step-log value="True"/>
    </report>

    <random_number>
        <random value="true"/>
    </random_number>

</configuration>
-->

<tripinfos xmlns:xsi="http://www.w3.org/2001/XMLSchema-instance" xsi:noNamespaceSchemaLocation="http://sumo.dlr.de/xsd/tripinfo_file.xsd">
    <tripinfo id="124779_406_0" depart="25205.00" departLane="28198821#3_0" departPos="4.40" departSpeed="0.00" departDelay="0.00" arrival="25221.00" arrivalLane="32038051#0_1" arrivalPos="89.25" arrivalSpeed="17.20" duration="16.00" routeLength="170.57" waitingTime="0.00" waitingCount="0" stopTime="0.00" timeLoss="4.20" rerouteNo="0" devices="tripinfo_124779_406_0 routing_124779_406_0" vType="pkw" speedFactor="0.90" vaporized=""/>
    <tripinfo id="98305_395_0" depart="25211.00" departLane="28198821#3_0" departPos="4.40" departSpeed="0.00" departDelay="0.00" arrival="25244.00" arrivalLane="32038051#0_1" arrivalPos="89.25" arrivalSpeed="16.62" duration="33.00" routeLength="170.57" waitingTime="14.00" waitingCount="1" stopTime="0.00" timeLoss="21.06" rerouteNo="0" devices="tripinfo_98305_395_0 routing_98305_395_0" vType="pkw" speedFactor="0.92" vaporized=""/>
    <tripinfo id="102535_396_0" depart="25218.00" departLane="28198821#3_0" departPos="4.40" departSpeed="0.00" departDelay="0.00" arrival="25245.00" arrivalLane="32038051#0_1" arrivalPos="89.25" arrivalSpeed="19.60" duration="27.00" routeLength="170.57" waitingTime="5.00" waitingCount="1" stopTime="0.00" timeLoss="17.29" rerouteNo="0" devices="tripinfo_102535_396_0 routing_102535_396_0" vType="pkw" speedFactor="1.08" vaporized=""/>
    <tripinfo id="151372_418_0" depart="25207.00" departLane="130165204_0" departPos="4.40" departSpeed="0.00" departDelay="0.00" arrival="25248.00" arrivalLane="32038051#0_1" arrivalPos="89.25" arrivalSpeed="20.35" duration="41.00" routeLength="410.03" waitingTime="3.00" waitingCount="1" stopTime="0.00" timeLoss="17.43" rerouteNo="1" devices="tripinfo_151372_418_0 routing_151372_418_0" vType="pkw" speedFactor="1.12" vaporized=""/>
    <tripinfo id="147209_416_0" depart="25220.00" departLane="28198821#3_0" departPos="4.40" departSpeed="0.00" departDelay="0.00" arrival="25253.00" arrivalLane="32038051#0_1" arrivalPos="89.25" arrivalSpeed="20.08" duration="33.00" routeLength="170.57" waitingTime="8.00" waitingCount="2" stopTime="0.00" timeLoss="22.82" rerouteNo="0" devices="tripinfo_147209_416_0 routing_147209_416_0" vType="pkw" speedFactor="1.08" vaporized=""/>
    <tripinfo id="149029_417_0" depart="25236.00" departLane="27115123#2_0" departPos="4.40" departSpeed="0.00" departDelay="0.00" arrival="25258.00" arrivalLane="32038051#0_1" arrivalPos="89.25" arrivalSpeed="20.89" duration="22.00" routeLength="196.41" waitingTime="1.00" waitingCount="1" stopTime="0.00" timeLoss="13.15" rerouteNo="1" devices="tripinfo_149029_417_0 routing_149029_417_0" vType="pkw" speedFactor="1.15" vaporized=""/>
    <tripinfo id="91582_392_0" depart="25220.00" departLane="-32038056#3_0" departPos="4.40" departSpeed="0.00" departDelay="2.00" arrival="25261.00" arrivalLane="32324544#0_1" arrivalPos="90.48" arrivalSpeed="17.27" duration="41.00" routeLength="465.51" waitingTime="0.00" waitingCount="0" stopTime="0.00" timeLoss="5.71" rerouteNo="0" devices="tripinfo_91582_392_0 routing_91582_392_0" vType="pkw" speedFactor="0.90" vaporized=""/>
    <tripinfo id="123965_406_0" depart="25218.00" departLane="-32038056#3_0" departPos="4.40" departSpeed="0.00" departDelay="0.00" arrival="25298.00" arrivalLane="-28198821#4_0" arrivalPos="57.10" arrivalSpeed="13.32" duration="80.00" routeLength="437.47" waitingTime="38.00" waitingCount="1" stopTime="0.00" timeLoss="47.85" rerouteNo="0" devices="tripinfo_123965_406_0 routing_123965_406_0" vType="pkw" speedFactor="0.99" vaporized=""/>
    <tripinfo id="160150_421_0" depart="25223.00" departLane="-32038056#3_0" departPos="4.40" departSpeed="0.00" departDelay="4.00" arrival="25318.00" arrivalLane="32038051#0_0" arrivalPos="89.25" arrivalSpeed="17.92" duration="95.00" routeLength="446.95" waitingTime="48.00" waitingCount="2" stopTime="0.00" timeLoss="61.80" rerouteNo="0" devices="tripinfo_160150_421_0 routing_160150_421_0" vType="pkw" speedFactor="0.92" vaporized=""/>
    <tripinfo id="130602_409_0" depart="25268.00" departLane="-32038056#3_0" departPos="4.40" departSpeed="0.00" departDelay="0.00" arrival="25318.00" arrivalLane="-28198821#4_0" arrivalPos="57.10" arrivalSpeed="14.23" duration="50.00" routeLength="437.47" waitingTime="11.00" waitingCount="1" stopTime="0.00" timeLoss="20.53" rerouteNo="0" devices="tripinfo_130602_409_0 routing_130602_409_0" vType="pkw" speedFactor="1.09" vaporized=""/>
    <tripinfo id="128446_408_0" depart="25273.00" departLane="-32038056#3_0" departPos="4.40" departSpeed="0.00" departDelay="0.00" arrival="25321.00" arrivalLane="32324544#0_1" arrivalPos="90.48" arrivalSpeed="17.00" duration="48.00" routeLength="465.51" waitingTime="4.00" waitingCount="1" stopTime="0.00" timeLoss="14.15" rerouteNo="0" devices="tripinfo_128446_408_0 routing_128446_408_0" vType="pkw" speedFactor="0.94" vaporized=""/>
    <tripinfo id="83516_390_0" depart="25275.00" departLane="-32038056#3_0" departPos="4.40" departSpeed="0.00" departDelay="0.00" arrival="25323.00" arrivalLane="32324544#0_1" arrivalPos="90.48" arrivalSpeed="18.22" duration="48.00" routeLength="465.51" waitingTime="2.00" waitingCount="1" stopTime="0.00" timeLoss="15.77" rerouteNo="0" devices="tripinfo_83516_390_0 routing_83516_390_0" vType="pkw" speedFactor="0.99" vaporized=""/>
    <tripinfo id="113303_402_0" depart="25283.00" departLane="-32038056#3_0" departPos="4.40" departSpeed="0.00" departDelay="0.00" arrival="25324.00" arrivalLane="32324544#0_1" arrivalPos="90.48" arrivalSpeed="17.27" duration="41.00" routeLength="465.51" waitingTime="0.00" waitingCount="0" stopTime="0.00" timeLoss="6.67" rerouteNo="0" devices="tripinfo_113303_402_0 routing_113303_402_0" vType="pkw" speedFactor="0.91" vaporized=""/>
    <tripinfo id="115444_403_0" depart="25294.00" departLane="28198821#3_0" departPos="4.40" departSpeed="0.00" departDelay="0.00" arrival="25324.00" arrivalLane="32038051#0_1" arrivalPos="89.25" arrivalSpeed="18.92" duration="30.00" routeLength="170.57" waitingTime="5.00" waitingCount="2" stopTime="0.00" timeLoss="19.13" rerouteNo="0" devices="tripinfo_115444_403_0 routing_115444_403_0" vType="pkw" speedFactor="1.01" vaporized=""/>
    <tripinfo id="103540_397_0" depart="25300.00" departLane="28198821#3_0" departPos="4.40" departSpeed="0.00" departDelay="0.00" arrival="25326.00" arrivalLane="32038051#0_1" arrivalPos="89.25" arrivalSpeed="17.94" duration="26.00" routeLength="170.57" waitingTime="2.00" waitingCount="2" stopTime="0.00" timeLoss="14.25" rerouteNo="0" devices="tripinfo_103540_397_0 routing_103540_397_0" vType="pkw" speedFactor="0.93" vaporized=""/>
    <tripinfo id="162814_422_0" depart="25233.00" departLane="-32038056#3_0" departPos="4.40" departSpeed="0.00" departDelay="0.00" arrival="25332.00" arrivalLane="32038051#0_0" arrivalPos="89.25" arrivalSpeed="18.80" duration="99.00" routeLength="446.95" waitingTime="52.00" waitingCount="3" stopTime="0.00" timeLoss="68.19" rerouteNo="0" devices="tripinfo_162814_422_0 routing_162814_422_0" vType="pkw" speedFactor="0.99" vaporized=""/>
    <tripinfo id="137244_412_0" depart="25297.00" departLane="-32038056#3_0" departPos="4.40" departSpeed="0.00" departDelay="3.00" arrival="25333.00" arrivalLane="-28198821#4_1" arrivalPos="57.10" arrivalSpeed="14.23" duration="36.00" routeLength="437.47" waitingTime="1.00" waitingCount="1" stopTime="0.00" timeLoss="5.23" rerouteNo="0" devices="tripinfo_137244_412_0 routing_137244_412_0" vType="pkw" speedFactor="1.05" vaporized=""/>
    <tripinfo id="136082_411_0" depart="25278.00" departLane="-32038056#3_0" departPos="4.40" departSpeed="0.00" departDelay="1.00" arrival="25334.00" arrivalLane="32038051#0_0" arrivalPos="89.25" arrivalSpeed="19.55" duration="56.00" routeLength="446.95" waitingTime="10.00" waitingCount="2" stopTime="0.00" timeLoss="26.45" rerouteNo="0" devices="tripinfo_136082_411_0 routing_136082_411_0" vType="pkw" speedFactor="1.05" vaporized=""/>
    <tripinfo id="85818_390_0" depart="25281.00" departLane="-32038056#3_0" departPos="4.40" departSpeed="0.00" departDelay="1.00" arrival="25335.00" arrivalLane="32038051#0_0" arrivalPos="89.25" arrivalSpeed="20.14" duration="54.00" routeLength="446.95" waitingTime="8.00" waitingCount="1" stopTime="0.00" timeLoss="24.78" rerouteNo="0" devices="tripinfo_85818_390_0 routing_85818_390_0" vType="pkw" speedFactor="1.05" vaporized=""/>
    <tripinfo id="86583_391_0" depart="25289.00" departLane="-32038056#3_0" departPos="4.40" departSpeed="0.00" departDelay="0.00" arrival="25337.00" arrivalLane="32038051#0_0" arrivalPos="89.25" arrivalSpeed="19.99" duration="48.00" routeLength="446.95" waitingTime="6.00" waitingCount="1" stopTime="0.00" timeLoss="17.87" rerouteNo="0" devices="tripinfo_86583_391_0 routing_86583_391_0" vType="pkw" speedFactor="1.03" vaporized=""/>
    <tripinfo id="162096_421_0" depart="25306.00" departLane="130165204_0" departPos="4.40" departSpeed="0.00" departDelay="0.00" arrival="25349.00" arrivalLane="32038051#0_1" arrivalPos="89.25" arrivalSpeed="17.43" duration="43.00" routeLength="410.03" waitingTime="0.00" waitingCount="0" stopTime="0.00" timeLoss="13.46" rerouteNo="1" devices="tripinfo_162096_421_0 routing_162096_421_0" vType="pkw" speedFactor="0.91" vaporized=""/>
    <tripinfo id="138220_412_0" depart="25310.00" departLane="-32038056#3_0" departPos="4.40" departSpeed="0.00" departDelay="1.00" arrival="25362.00" arrivalLane="-28198821#4_1" arrivalPos="57.10" arrivalSpeed="13.93" duration="52.00" routeLength="437.47" waitingTime="11.00" waitingCount="1" stopTime="0.00" timeLoss="21.64" rerouteNo="0" devices="tripinfo_138220_412_0 routing_138220_412_0" vType="pkw" speedFactor="1.07" vaporized=""/>
    <tripinfo id="120878_405_0" depart="25292.00" departLane="-32038056#3_0" departPos="4.40" departSpeed="0.00" departDelay="1.00" arrival="25363.00" arrivalLane="32038051#0_0" arrivalPos="89.25" arrivalSpeed="16.69" duration="71.00" routeLength="446.95" waitingTime="19.00" waitingCount="1" stopTime="0.00" timeLoss="35.57" rerouteNo="0" devices="tripinfo_120878_405_0 routing_120878_405_0" vType="pkw" speedFactor="0.87" vaporized=""/>
    <tripinfo id="85922_391_0" depart="25295.00" departLane="-32038056#3_0" departPos="4.40" departSpeed="0.00" departDelay="2.00" arrival="25364.00" arrivalLane="32038051#0_0" arrivalPos="89.25" arrivalSpeed="18.82" duration="69.00" routeLength="446.95" waitingTime="17.00" waitingCount="1" stopTime="0.00" timeLoss="38.47" rerouteNo="0" devices="tripinfo_85922_391_0 routing_85922_391_0" vType="pkw" speedFactor="0.99" vaporized=""/>
    <tripinfo id="142412_415_0" depart="25307.00" departLane="-32038056#3_0" departPos="4.40" departSpeed="0.00" departDelay="0.00" arrival="25364.00" arrivalLane="-28198821#4_1" arrivalPos="57.10" arrivalSpeed="12.37" duration="57.00" routeLength="437.47" waitingTime="10.00" waitingCount="1" stopTime="0.00" timeLoss="24.45" rerouteNo="0" devices="tripinfo_142412_415_0 routing_142412_415_0" vType="pkw" speedFactor="0.98" vaporized=""/>
    <tripinfo id="118963_405_0" depart="25304.00" departLane="-32038056#3_0" departPos="4.40" departSpeed="0.00" departDelay="0.00" arrival="25366.00" arrivalLane="32038051#0_0" arrivalPos="89.25" arrivalSpeed="20.68" duration="62.00" routeLength="446.95" waitingTime="17.00" waitingCount="1" stopTime="0.00" timeLoss="33.76" rerouteNo="0" devices="tripinfo_118963_405_0 routing_118963_405_0" vType="pkw" speedFactor="1.09" vaporized=""/>
    <tripinfo id="130372_409_0" depart="25330.00" departLane="-32038056#3_0" departPos="4.40" departSpeed="0.00" departDelay="3.00" arrival="25371.00" arrivalLane="32324544#0_1" arrivalPos="90.48" arrivalSpeed="17.52" duration="41.00" routeLength="465.51" waitingTime="0.00" waitingCount="0" stopTime="0.00" timeLoss="7.14" rerouteNo="0" devices="tripinfo_130372_409_0 routing_130372_409_0" vType="pkw" speedFactor="0.94" vaporized=""/>
    <tripinfo id="104806_398_0" depart="25333.00" departLane="-32038056#3_0" departPos="4.40" departSpeed="0.00" departDelay="4.00" arrival="25372.00" arrivalLane="32324544#0_1" arrivalPos="90.48" arrivalSpeed="16.97" duration="39.00" routeLength="465.51" waitingTime="0.00" waitingCount="0" stopTime="0.00" timeLoss="5.35" rerouteNo="0" devices="tripinfo_104806_398_0 routing_104806_398_0" vType="pkw" speedFactor="0.93" vaporized=""/>
    <tripinfo id="175147_428_0" depart="25324.00" departLane="130165204_0" departPos="4.40" departSpeed="0.00" departDelay="0.00" arrival="25379.00" arrivalLane="32038051#0_1" arrivalPos="89.25" arrivalSpeed="16.42" duration="55.00" routeLength="410.03" waitingTime="12.00" waitingCount="1" stopTime="0.00" timeLoss="24.30" rerouteNo="1" devices="tripinfo_175147_428_0 routing_175147_428_0" vType="pkw" speedFactor="0.87" vaporized=""/>
    <tripinfo id="161721_421_0" depart="25337.00" departLane="130165204_0" departPos="4.40" departSpeed="0.00" departDelay="0.00" arrival="25391.00" arrivalLane="32038051#0_1" arrivalPos="89.25" arrivalSpeed="15.73" duration="54.00" routeLength="410.03" waitingTime="5.00" waitingCount="1" stopTime="0.00" timeLoss="22.94" rerouteNo="1" devices="tripinfo_161721_421_0 routing_161721_421_0" vType="pkw" speedFactor="0.85" vaporized=""/>
    <tripinfo id="121258_405_0" depart="25240.00" departLane="23429231#1_0" departPos="4.40" departSpeed="0.00" departDelay="0.00" arrival="25403.00" arrivalLane="32038051#0_0" arrivalPos="89.25" arrivalSpeed="16.30" duration="163.00" routeLength="203.79" waitingTime="140.00" waitingCount="1" stopTime="0.00" timeLoss="152.58" rerouteNo="0" devices="tripinfo_121258_405_0 routing_121258_405_0" vType="pkw" speedFactor="1.04" vaporized=""/>
    <tripinfo id="126742_407_0" depart="25242.00" departLane="23429231#1_0" departPos="4.40" departSpeed="0.00" departDelay="2.00" arrival="25403.00" arrivalLane="32038051#0_1" arrivalPos="89.25" arrivalSpeed="16.57" duration="161.00" routeLength="203.79" waitingTime="136.00" waitingCount="1" stopTime="0.00" timeLoss="148.70" rerouteNo="0" devices="tripinfo_126742_407_0 routing_126742_407_0" vType="pkw" speedFactor="0.89" vaporized=""/>
    <tripinfo id="148629_417_0" depart="25284.00" departLane="27115123#2_0" departPos="4.40" departSpeed="0.00" departDelay="0.00" arrival="25403.00" arrivalLane="32324544#0_0" arrivalPos="90.48" arrivalSpeed="18.13" duration="119.00" routeLength="198.06" waitingTime="97.00" waitingCount="1" stopTime="0.00" timeLoss="107.56" rerouteNo="1" devices="tripinfo_148629_417_0 routing_148629_417_0" vType="pkw" speedFactor="0.95" vaporized=""/>
    <tripinfo id="120663_405_0" depart="25247.00" departLane="23429231#1_0" departPos="4.40" departSpeed="0.00" departDelay="1.00" arrival="25404.00" arrivalLane="32038051#0_1" arrivalPos="89.25" arrivalSpeed="18.32" duration="157.00" routeLength="203.79" waitingTime="134.00" waitingCount="1" stopTime="0.00" timeLoss="147.21" rerouteNo="0" devices="tripinfo_120663_405_0 routing_120663_405_0" vType="pkw" speedFactor="1.09" vaporized=""/>
    <tripinfo id="102501_396_0" depart="25245.00" departLane="23429231#1_0" departPos="4.40" departSpeed="0.00" departDelay="1.00" arrival="25405.00" arrivalLane="32038051#0_0" arrivalPos="89.25" arrivalSpeed="15.98" duration="160.00" routeLength="203.79" waitingTime="136.00" waitingCount="1" stopTime="0.00" timeLoss="146.87" rerouteNo="0" devices="tripinfo_102501_396_0 routing_102501_396_0" vType="pkw" speedFactor="0.84" vaporized=""/>
    <tripinfo id="113509_402_0" depart="25250.00" departLane="23429231#1_0" departPos="4.40" departSpeed="0.00" departDelay="2.00" arrival="25407.00" arrivalLane="-28198821#4_1" arrivalPos="57.10" arrivalSpeed="13.85" duration="157.00" routeLength="179.90" waitingTime="133.00" waitingCount="1" stopTime="0.00" timeLoss="145.96" rerouteNo="0" devices="tripinfo_113509_402_0 routing_113509_402_0" vType="pkw" speedFactor="1.07" vaporized=""/>
    <tripinfo id="130147_409_0" depart="25252.00" departLane="23429231#1_0" departPos="4.40" departSpeed="0.00" departDelay="1.00" arrival="25407.00" arrivalLane="32038051#0_0" arrivalPos="89.25" arrivalSpeed="17.32" duration="155.00" routeLength="203.79" waitingTime="130.00" waitingCount="1" stopTime="0.00" timeLoss="143.04" rerouteNo="0" devices="tripinfo_130147_409_0 routing_130147_409_0" vType="pkw" speedFactor="0.92" vaporized=""/>
    <tripinfo id="136152_411_0" depart="25313.00" departLane="-32038056#3_0" departPos="4.40" departSpeed="0.00" departDelay="0.00" arrival="25418.00" arrivalLane="32038051#0_0" arrivalPos="89.25" arrivalSpeed="18.26" duration="105.00" routeLength="446.95" waitingTime="61.00" waitingCount="2" stopTime="0.00" timeLoss="76.12" rerouteNo="0" devices="tripinfo_136152_411_0 routing_136152_411_0" vType="pkw" speedFactor="1.05" vaporized=""/>
    <tripinfo id="167799_425_0" depart="25327.00" departLane="-32038056#3_0" departPos="4.40" departSpeed="0.00" departDelay="0.00" arrival="25419.00" arrivalLane="-28198821#4_1" arrivalPos="57.10" arrivalSpeed="11.82" duration="92.00" routeLength="437.47" waitingTime="41.00" waitingCount="2" stopTime="0.00" timeLoss="55.93" rerouteNo="0" devices="tripinfo_167799_425_0 routing_167799_425_0" vType="pkw" speedFactor="0.89" vaporized=""/>
    <tripinfo id="122154_406_0" depart="25337.00" departLane="-32038056#3_0" departPos="4.40" departSpeed="0.00" departDelay="0.00" arrival="25482.00" arrivalLane="-28198821#4_0" arrivalPos="57.10" arrivalSpeed="13.04" duration="145.00" routeLength="437.47" waitingTime="100.00" waitingCount="2" stopTime="0.00" timeLoss="113.49" rerouteNo="0" devices="tripinfo_122154_406_0 routing_122154_406_0" vType="pkw" speedFactor="1.01" vaporized=""/>
    <tripinfo id="135138_411_0" depart="25350.00" departLane="-32038056#3_0" departPos="4.40" departSpeed="0.00" departDelay="1.00" arrival="25482.00" arrivalLane="-28198821#4_1" arrivalPos="57.10" arrivalSpeed="15.29" duration="132.00" routeLength="437.47" waitingTime="91.00" waitingCount="2" stopTime="0.00" timeLoss="104.23" rerouteNo="0" devices="tripinfo_135138_411_0 routing_135138_411_0" vType="pkw" speedFactor="1.16" vaporized=""/>
    <tripinfo id="121091_405_0" depart="25345.00" departLane="-32038056#3_0" departPos="4.40" departSpeed="0.00" departDelay="0.00" arrival="25484.00" arrivalLane="32038051#0_0" arrivalPos="89.25" arrivalSpeed="17.49" duration="139.00" routeLength="446.95" waitingTime="90.00" waitingCount="2" stopTime="0.00" timeLoss="105.79" rerouteNo="0" devices="tripinfo_121091_405_0 routing_121091_405_0" vType="pkw" speedFactor="0.91" vaporized=""/>
    <tripinfo id="169772_426_0" depart="25347.00" departLane="-32038056#3_0" departPos="4.40" departSpeed="0.00" departDelay="0.00" arrival="25486.00" arrivalLane="32038051#0_0" arrivalPos="89.25" arrivalSpeed="17.04" duration="139.00" routeLength="446.95" waitingTime="87.00" waitingCount="2" stopTime="0.00" timeLoss="105.53" rerouteNo="0" devices="tripinfo_169772_426_0 routing_169772_426_0" vType="pkw" speedFactor="0.92" vaporized=""/>
    <tripinfo id="150753_418_0" depart="25353.00" departLane="-32038056#3_0" departPos="4.40" departSpeed="0.00" departDelay="2.00" arrival="25486.00" arrivalLane="32324544#0_1" arrivalPos="90.48" arrivalSpeed="20.08" duration="133.00" routeLength="465.51" waitingTime="86.00" waitingCount="2" stopTime="0.00" timeLoss="103.20" rerouteNo="0" devices="tripinfo_150753_418_0 routing_150753_418_0" vType="pkw" speedFactor="1.07" vaporized=""/>
    <tripinfo id="148536_417_0" depart="25361.00" departLane="-32038056#3_0" departPos="4.40" departSpeed="0.00" departDelay="0.00" arrival="25487.00" arrivalLane="32324544#0_1" arrivalPos="90.48" arrivalSpeed="20.63" duration="126.00" routeLength="465.51" waitingTime="80.00" waitingCount="3" stopTime="0.00" timeLoss="96.92" rerouteNo="0" devices="tripinfo_148536_417_0 routing_148536_417_0" vType="pkw" speedFactor="1.08" vaporized=""/>
    <tripinfo id="102630_396_0" depart="25254.00" departLane="23429231#1_0" departPos="4.40" departSpeed="0.00" departDelay="2.00" arrival="25493.00" arrivalLane="32038051#0_0" arrivalPos="89.25" arrivalSpeed="20.26" duration="239.00" routeLength="203.79" waitingTime="209.00" waitingCount="2" stopTime="0.00" timeLoss="228.47" rerouteNo="0" devices="tripinfo_102630_396_0 routing_102630_396_0" vType="pkw" speedFactor="1.07" vaporized=""/>
    <tripinfo id="122376_406_0" depart="25257.00" departLane="23429231#1_0" departPos="4.40" departSpeed="0.00" departDelay="3.00" arrival="25493.00" arrivalLane="32038051#0_1" arrivalPos="89.25" arrivalSpeed="18.45" duration="236.00" routeLength="203.79" waitingTime="206.00" waitingCount="2" stopTime="0.00" timeLoss="224.44" rerouteNo="0" devices="tripinfo_122376_406_0 routing_122376_406_0" vType="pkw" speedFactor="0.96" vaporized=""/>
    <tripinfo id="154290_420_0" depart="25431.00" departLane="27115123#2_0" departPos="4.40" departSpeed="0.00" departDelay="0.00" arrival="25493.00" arrivalLane="32324544#0_0" arrivalPos="90.48" arrivalSpeed="16.99" duration="62.00" routeLength="198.06" waitingTime="39.00" waitingCount="1" stopTime="0.00" timeLoss="50.08" rerouteNo="1" devices="tripinfo_154290_420_0 routing_154290_420_0" vType="pkw" speedFactor="0.92" vaporized=""/>
    <tripinfo id="129330_408_0" depart="25433.00" departLane="27115123#2_0" departPos="4.40" departSpeed="0.00" departDelay="1.00" arrival="25493.00" arrivalLane="32324544#0_1" arrivalPos="90.48" arrivalSpeed="18.33" duration="60.00" routeLength="198.06" waitingTime="35.00" waitingCount="1" stopTime="0.00" timeLoss="49.12" rerouteNo="1" devices="tripinfo_129330_408_0 routing_129330_408_0" vType="pkw" speedFactor="1.00" vaporized=""/>
    <tripinfo id="122194_406_0" depart="25260.00" departLane="23429231#1_0" departPos="4.40" departSpeed="0.00" departDelay="5.00" arrival="25494.00" arrivalLane="32038051#0_0" arrivalPos="89.25" arrivalSpeed="19.98" duration="234.00" routeLength="203.79" waitingTime="203.00" waitingCount="2" stopTime="0.00" timeLoss="223.91" rerouteNo="0" devices="tripinfo_122194_406_0 routing_122194_406_0" vType="pkw" speedFactor="1.07" vaporized=""/>
    <tripinfo id="153635_420_0" depart="25460.00" departLane="27115123#2_0" departPos="4.40" departSpeed="0.00" departDelay="0.00" arrival="25494.00" arrivalLane="32324544#0_0" arrivalPos="90.48" arrivalSpeed="17.84" duration="34.00" routeLength="198.06" waitingTime="12.00" waitingCount="1" stopTime="0.00" timeLoss="23.17" rerouteNo="1" devices="tripinfo_153635_420_0 routing_153635_420_0" vType="pkw" speedFactor="0.97" vaporized=""/>
    <tripinfo id="135103_411_0" depart="25263.00" departLane="23429231#1_0" departPos="4.40" departSpeed="0.00" departDelay="7.00" arrival="25495.00" arrivalLane="32038051#0_1" arrivalPos="89.25" arrivalSpeed="17.75" duration="232.00" routeLength="203.79" waitingTime="201.00" waitingCount="2" stopTime="0.00" timeLoss="220.38" rerouteNo="0" devices="tripinfo_135103_411_0 routing_135103_411_0" vType="pkw" speedFactor="0.97" vaporized=""/>
    <tripinfo id="145855_416_0" depart="25469.00" departLane="27115123#2_0" departPos="4.40" departSpeed="0.00" departDelay="0.00" arrival="25495.00" arrivalLane="32324544#0_0" arrivalPos="90.48" arrivalSpeed="21.01" duration="26.00" routeLength="198.06" waitingTime="4.00" waitingCount="1" stopTime="0.00" timeLoss="16.92" rerouteNo="1" devices="tripinfo_145855_416_0 routing_145855_416_0" vType="pkw" speedFactor="1.13" vaporized=""/>
    <tripinfo id="152958_419_0" depart="25265.00" departLane="23429231#1_0" departPos="4.40" departSpeed="0.00" departDelay="8.00" arrival="25496.00" arrivalLane="32038051#0_0" arrivalPos="89.25" arrivalSpeed="19.22" duration="231.00" routeLength="203.79" waitingTime="199.00" waitingCount="2" stopTime="0.00" timeLoss="220.44" rerouteNo="0" devices="tripinfo_152958_419_0 routing_152958_419_0" vType="pkw" speedFactor="1.03" vaporized=""/>
    <tripinfo id="125613_406_0" depart="25268.00" departLane="23429231#1_0" departPos="4.40" departSpeed="0.00" departDelay="10.00" arrival="25497.00" arrivalLane="32038051#0_1" arrivalPos="89.25" arrivalSpeed="19.73" duration="229.00" routeLength="203.79" waitingTime="196.00" waitingCount="2" stopTime="0.00" timeLoss="218.18" rerouteNo="0" devices="tripinfo_125613_406_0 routing_125613_406_0" vType="pkw" speedFactor="1.05" vaporized=""/>
    <tripinfo id="133955_411_0" depart="25271.00" departLane="23429231#1_0" departPos="4.40" departSpeed="0.00" departDelay="12.00" arrival="25498.00" arrivalLane="32038051#0_0" arrivalPos="89.25" arrivalSpeed="20.80" duration="227.00" routeLength="203.79" waitingTime="196.00" waitingCount="2" stopTime="0.00" timeLoss="217.04" rerouteNo="0" devices="tripinfo_133955_411_0 routing_133955_411_0" vType="pkw" speedFactor="1.11" vaporized=""/>
    <tripinfo id="129253_408_0" depart="25273.00" departLane="23429231#1_0" departPos="4.40" departSpeed="0.00" departDelay="13.00" arrival="25498.00" arrivalLane="32038051#0_1" arrivalPos="89.25" arrivalSpeed="17.78" duration="225.00" routeLength="203.79" waitingTime="193.00" waitingCount="2" stopTime="0.00" timeLoss="213.75" rerouteNo="0" devices="tripinfo_129253_408_0 routing_129253_408_0" vType="pkw" speedFactor="0.93" vaporized=""/>
    <tripinfo id="161689_421_0" depart="25467.00" departLane="130165204_0" departPos="4.40" departSpeed="0.00" departDelay="0.00" arrival="25499.00" arrivalLane="32324544#0_0" arrivalPos="90.48" arrivalSpeed="20.85" duration="32.00" routeLength="411.68" waitingTime="0.00" waitingCount="0" stopTime="0.00" timeLoss="7.90" rerouteNo="1" devices="tripinfo_161689_421_0 routing_161689_421_0" vType="pkw" speedFactor="1.12" vaporized=""/>
    <tripinfo id="120275_405_0" depart="25276.00" departLane="23429231#1_0" departPos="4.40" departSpeed="0.00" departDelay="15.00" arrival="25500.00" arrivalLane="32038051#0_0" arrivalPos="89.25" arrivalSpeed="16.39" duration="224.00" routeLength="203.79" waitingTime="192.00" waitingCount="2" stopTime="0.00" timeLoss="211.67" rerouteNo="0" devices="tripinfo_120275_405_0 routing_120275_405_0" vType="pkw" speedFactor="0.91" vaporized=""/>
    <tripinfo id="135201_411_0" depart="25280.00" departLane="23429231#1_0" departPos="4.40" departSpeed="0.00" departDelay="16.00" arrival="25501.00" arrivalLane="32038051#0_0" arrivalPos="89.25" arrivalSpeed="18.87" duration="221.00" routeLength="203.79" waitingTime="188.00" waitingCount="2" stopTime="0.00" timeLoss="209.76" rerouteNo="0" devices="tripinfo_135201_411_0 routing_135201_411_0" vType="pkw" speedFactor="0.97" vaporized=""/>
    <tripinfo id="134807_411_0" depart="25278.00" departLane="23429231#1_0" departPos="4.40" departSpeed="0.00" departDelay="16.00" arrival="25502.00" arrivalLane="32324544#0_1" arrivalPos="90.48" arrivalSpeed="21.53" duration="224.00" routeLength="203.50" waitingTime="189.00" waitingCount="2" stopTime="0.00" timeLoss="214.56" rerouteNo="0" devices="tripinfo_134807_411_0 routing_134807_411_0" vType="pkw" speedFactor="1.22" vaporized=""/>
    <tripinfo id="86189_391_0" depart="25283.00" departLane="23429231#1_0" departPos="4.40" departSpeed="0.00" departDelay="18.00" arrival="25502.00" arrivalLane="32038051#0_1" arrivalPos="89.25" arrivalSpeed="15.74" duration="219.00" routeLength="203.79" waitingTime="186.00" waitingCount="2" stopTime="0.00" timeLoss="205.85" rerouteNo="0" devices="tripinfo_86189_391_0 routing_86189_391_0" vType="pkw" speedFactor="0.85" vaporized=""/>
    <tripinfo id="57065_374_0" depart="25285.00" departLane="23429231#1_0" departPos="4.40" departSpeed="0.00" departDelay="19.00" arrival="25503.00" arrivalLane="32038051#0_0" arrivalPos="89.25" arrivalSpeed="18.04" duration="218.00" routeLength="203.79" waitingTime="184.00" waitingCount="3" stopTime="0.00" timeLoss="206.84" rerouteNo="0" devices="tripinfo_57065_374_0 routing_57065_374_0" vType="pkw" speedFactor="1.01" vaporized=""/>
    <tripinfo id="129519_408_0" depart="25289.00" departLane="23429231#1_0" departPos="4.40" departSpeed="0.00" departDelay="22.00" arrival="25503.00" arrivalLane="32038051#0_1" arrivalPos="89.25" arrivalSpeed="20.32" duration="214.00" routeLength="203.79" waitingTime="179.00" waitingCount="2" stopTime="0.00" timeLoss="204.35" rerouteNo="0" devices="tripinfo_129519_408_0 routing_129519_408_0" vType="pkw" speedFactor="1.13" vaporized=""/>
    <tripinfo id="82015_389_0" depart="25291.00" departLane="23429231#1_0" departPos="4.40" departSpeed="0.00" departDelay="23.00" arrival="25504.00" arrivalLane="32038051#0_0" arrivalPos="89.25" arrivalSpeed="18.58" duration="213.00" routeLength="203.79" waitingTime="177.00" waitingCount="2" stopTime="0.00" timeLoss="203.03" rerouteNo="0" devices="tripinfo_82015_389_0 routing_82015_389_0" vType="pkw" speedFactor="1.09" vaporized=""/>