<?xml version="1.0" encoding="UTF-8"?>

<!-- generated on 2023-08-31 13:15:24 by Eclipse SUMO libsumo Version 1.18.0
<configuration xmlns:xsi="http://www.w3.org/2001/XMLSchema-instance" xsi:noNamespaceSchemaLocation="http://sumo.dlr.de/xsd/libsumoConfiguration.xsd">

    <input>
        <net-file value="/home/stefan/RESCO/./environments/cologne1/cologne1.net.xml"/>
        <route-files value="/home/stefan/RESCO/./environments/cologne1/cologne1.rou.xml"/>
    </input>

    <output>
        <tripinfo-output value="/home/stefan/results/RAINBOW-tr0-cologne1-0-drq_norm-wait_norm/tripinfo_37.xml"/>
        <tripinfo-output.write-unfinished value="true"/>
    </output>

    <time>
        <begin value="25200"/>
        <end value="28800"/>
    </time>

    <processing>
        <time-to-teleport value="-1"/>
    </processing>

    <report>
        <no-warnings value="True"/>
        <no-step-log value="True"/>
    </report>

    <random_number>
        <random value="true"/>
    </random_number>

</configuration>
-->

<tripinfos xmlns:xsi="http://www.w3.org/2001/XMLSchema-instance" xsi:noNamespaceSchemaLocation="http://sumo.dlr.de/xsd/tripinfo_file.xsd">
    <tripinfo id="124779_406_0" depart="25205.00" departLane="28198821#3_0" departPos="4.40" departSpeed="0.00" departDelay="0.00" arrival="25229.00" arrivalLane="32038051#0_1" arrivalPos="89.25" arrivalSpeed="21.09" duration="24.00" routeLength="170.57" waitingTime="3.00" waitingCount="1" stopTime="0.00" timeLoss="14.22" rerouteNo="0" devices="tripinfo_124779_406_0 routing_124779_406_0" vType="pkw" speedFactor="1.09" vaporized=""/>
    <tripinfo id="98305_395_0" depart="25211.00" departLane="28198821#3_0" departPos="4.40" departSpeed="0.00" departDelay="0.00" arrival="25231.00" arrivalLane="32038051#0_1" arrivalPos="89.25" arrivalSpeed="20.33" duration="20.00" routeLength="170.57" waitingTime="0.00" waitingCount="0" stopTime="0.00" timeLoss="10.13" rerouteNo="0" devices="tripinfo_98305_395_0 routing_98305_395_0" vType="pkw" speedFactor="1.10" vaporized=""/>
    <tripinfo id="102535_396_0" depart="25218.00" departLane="28198821#3_0" departPos="4.40" departSpeed="0.00" departDelay="0.00" arrival="25232.00" arrivalLane="32038051#0_1" arrivalPos="89.25" arrivalSpeed="20.78" duration="14.00" routeLength="170.57" waitingTime="0.00" waitingCount="0" stopTime="0.00" timeLoss="4.64" rerouteNo="0" devices="tripinfo_102535_396_0 routing_102535_396_0" vType="pkw" speedFactor="1.08" vaporized=""/>
    <tripinfo id="147209_416_0" depart="25220.00" departLane="28198821#3_0" departPos="4.40" departSpeed="0.00" departDelay="0.00" arrival="25235.00" arrivalLane="32038051#0_1" arrivalPos="89.25" arrivalSpeed="18.10" duration="15.00" routeLength="170.57" waitingTime="0.00" waitingCount="0" stopTime="0.00" timeLoss="4.10" rerouteNo="0" devices="tripinfo_147209_416_0 routing_147209_416_0" vType="pkw" speedFactor="0.94" vaporized=""/>
    <tripinfo id="151372_418_0" depart="25207.00" departLane="130165204_0" departPos="4.40" departSpeed="0.00" departDelay="0.00" arrival="25253.00" arrivalLane="32038051#0_1" arrivalPos="89.25" arrivalSpeed="18.59" duration="46.00" routeLength="410.03" waitingTime="4.00" waitingCount="1" stopTime="0.00" timeLoss="18.34" rerouteNo="1" devices="tripinfo_151372_418_0 routing_151372_418_0" vType="pkw" speedFactor="0.96" vaporized=""/>
    <tripinfo id="149029_417_0" depart="25236.00" departLane="27115123#2_0" departPos="4.40" departSpeed="0.00" departDelay="0.00" arrival="25255.00" arrivalLane="32038051#0_1" arrivalPos="89.25" arrivalSpeed="17.53" duration="19.00" routeLength="196.41" waitingTime="0.00" waitingCount="0" stopTime="0.00" timeLoss="7.60" rerouteNo="1" devices="tripinfo_149029_417_0 routing_149029_417_0" vType="pkw" speedFactor="0.95" vaporized=""/>
    <tripinfo id="126742_407_0" depart="25243.00" departLane="23429231#1_0" departPos="4.40" departSpeed="0.00" departDelay="3.00" arrival="25262.00" arrivalLane="32038051#0_1" arrivalPos="89.25" arrivalSpeed="19.52" duration="19.00" routeLength="203.79" waitingTime="0.00" waitingCount="0" stopTime="0.00" timeLoss="8.11" rerouteNo="0" devices="tripinfo_126742_407_0 routing_126742_407_0" vType="pkw" speedFactor="1.02" vaporized=""/>
    <tripinfo id="121258_405_0" depart="25240.00" departLane="23429231#1_0" departPos="4.40" departSpeed="0.00" departDelay="0.00" arrival="25263.00" arrivalLane="32038051#0_0" arrivalPos="89.25" arrivalSpeed="16.97" duration="23.00" routeLength="203.79" waitingTime="0.00" waitingCount="0" stopTime="0.00" timeLoss="10.81" rerouteNo="0" devices="tripinfo_121258_405_0 routing_121258_405_0" vType="pkw" speedFactor="0.88" vaporized=""/>
    <tripinfo id="102501_396_0" depart="25246.00" departLane="23429231#1_0" departPos="4.40" departSpeed="0.00" departDelay="2.00" arrival="25265.00" arrivalLane="32038051#0_0" arrivalPos="89.25" arrivalSpeed="19.33" duration="19.00" routeLength="203.79" waitingTime="0.00" waitingCount="0" stopTime="0.00" timeLoss="8.58" rerouteNo="0" devices="tripinfo_102501_396_0 routing_102501_396_0" vType="pkw" speedFactor="1.08" vaporized=""/>
    <tripinfo id="120663_405_0" depart="25249.00" departLane="23429231#1_0" departPos="4.40" departSpeed="0.00" departDelay="3.00" arrival="25266.00" arrivalLane="32038051#0_0" arrivalPos="89.25" arrivalSpeed="18.59" duration="17.00" routeLength="203.79" waitingTime="0.00" waitingCount="0" stopTime="0.00" timeLoss="5.88" rerouteNo="0" devices="tripinfo_120663_405_0 routing_120663_405_0" vType="pkw" speedFactor="0.97" vaporized=""/>
    <tripinfo id="91582_392_0" depart="25221.00" departLane="-32038056#3_0" departPos="4.40" departSpeed="0.00" departDelay="3.00" arrival="25273.00" arrivalLane="32324544#0_1" arrivalPos="90.48" arrivalSpeed="17.92" duration="52.00" routeLength="465.51" waitingTime="9.00" waitingCount="1" stopTime="0.00" timeLoss="19.50" rerouteNo="0" devices="tripinfo_91582_392_0 routing_91582_392_0" vType="pkw" speedFactor="0.97" vaporized=""/>
    <tripinfo id="113509_402_0" depart="25251.00" departLane="23429231#1_0" departPos="4.40" departSpeed="0.00" departDelay="3.00" arrival="25278.00" arrivalLane="-28198821#4_1" arrivalPos="57.10" arrivalSpeed="13.69" duration="27.00" routeLength="179.90" waitingTime="5.00" waitingCount="1" stopTime="0.00" timeLoss="16.22" rerouteNo="0" devices="tripinfo_113509_402_0 routing_113509_402_0" vType="pkw" speedFactor="1.07" vaporized=""/>
    <tripinfo id="123965_406_0" depart="25218.00" departLane="-32038056#3_0" departPos="4.40" departSpeed="0.00" departDelay="0.00" arrival="25313.00" arrivalLane="-28198821#4_0" arrivalPos="57.10" arrivalSpeed="10.43" duration="95.00" routeLength="437.47" waitingTime="47.00" waitingCount="1" stopTime="0.00" timeLoss="56.04" rerouteNo="0" devices="tripinfo_123965_406_0 routing_123965_406_0" vType="pkw" speedFactor="0.81" vaporized=""/>
    <tripinfo id="160150_421_0" depart="25224.00" departLane="-32038056#3_0" departPos="4.40" departSpeed="0.00" departDelay="5.00" arrival="25313.00" arrivalLane="32038051#0_0" arrivalPos="89.25" arrivalSpeed="18.86" duration="89.00" routeLength="446.95" waitingTime="46.00" waitingCount="1" stopTime="0.00" timeLoss="58.94" rerouteNo="0" devices="tripinfo_160150_421_0 routing_160150_421_0" vType="pkw" speedFactor="1.01" vaporized=""/>
    <tripinfo id="130602_409_0" depart="25268.00" departLane="-32038056#3_0" departPos="4.40" departSpeed="0.00" departDelay="0.00" arrival="25313.00" arrivalLane="-28198821#4_1" arrivalPos="57.10" arrivalSpeed="12.53" duration="45.00" routeLength="437.47" waitingTime="2.00" waitingCount="1" stopTime="0.00" timeLoss="9.94" rerouteNo="0" devices="tripinfo_130602_409_0 routing_130602_409_0" vType="pkw" speedFactor="0.92" vaporized=""/>
    <tripinfo id="162814_422_0" depart="25233.00" departLane="-32038056#3_0" departPos="4.40" departSpeed="0.00" departDelay="0.00" arrival="25315.00" arrivalLane="32038051#0_0" arrivalPos="89.25" arrivalSpeed="17.75" duration="82.00" routeLength="446.95" waitingTime="39.00" waitingCount="1" stopTime="0.00" timeLoss="48.83" rerouteNo="0" devices="tripinfo_162814_422_0 routing_162814_422_0" vType="pkw" speedFactor="0.91" vaporized=""/>
    <tripinfo id="128446_408_0" depart="25273.00" departLane="-32038056#3_0" departPos="4.40" departSpeed="0.00" departDelay="0.00" arrival="25316.00" arrivalLane="32324544#0_1" arrivalPos="90.48" arrivalSpeed="16.47" duration="43.00" routeLength="465.51" waitingTime="0.00" waitingCount="0" stopTime="0.00" timeLoss="7.96" rerouteNo="0" devices="tripinfo_128446_408_0 routing_128446_408_0" vType="pkw" speedFactor="0.89" vaporized=""/>
    <tripinfo id="83516_390_0" depart="25276.00" departLane="-32038056#3_0" departPos="4.40" departSpeed="0.00" departDelay="1.00" arrival="25318.00" arrivalLane="32324544#0_1" arrivalPos="90.48" arrivalSpeed="20.72" duration="42.00" routeLength="465.51" waitingTime="0.00" waitingCount="0" stopTime="0.00" timeLoss="13.12" rerouteNo="0" devices="tripinfo_83516_390_0 routing_83516_390_0" vType="pkw" speedFactor="1.10" vaporized=""/>
    <tripinfo id="115444_403_0" depart="25294.00" departLane="28198821#3_0" departPos="4.40" departSpeed="0.00" departDelay="0.00" arrival="25319.00" arrivalLane="32038051#0_1" arrivalPos="89.25" arrivalSpeed="18.23" duration="25.00" routeLength="170.57" waitingTime="2.00" waitingCount="1" stopTime="0.00" timeLoss="14.18" rerouteNo="0" devices="tripinfo_115444_403_0 routing_115444_403_0" vType="pkw" speedFactor="0.99" vaporized=""/>
    <tripinfo id="103540_397_0" depart="25300.00" departLane="28198821#3_0" departPos="4.40" departSpeed="0.00" departDelay="0.00" arrival="25321.00" arrivalLane="32038051#0_1" arrivalPos="89.25" arrivalSpeed="19.05" duration="21.00" routeLength="170.57" waitingTime="0.00" waitingCount="0" stopTime="0.00" timeLoss="10.92" rerouteNo="0" devices="tripinfo_103540_397_0 routing_103540_397_0" vType="pkw" speedFactor="1.05" vaporized=""/>
    <tripinfo id="130147_409_0" depart="25253.00" departLane="23429231#1_0" departPos="4.40" departSpeed="0.00" departDelay="2.00" arrival="25322.00" arrivalLane="32038051#0_0" arrivalPos="89.25" arrivalSpeed="18.66" duration="69.00" routeLength="203.79" waitingTime="47.00" waitingCount="1" stopTime="0.00" timeLoss="58.55" rerouteNo="0" devices="tripinfo_130147_409_0 routing_130147_409_0" vType="pkw" speedFactor="1.01" vaporized=""/>
    <tripinfo id="122376_406_0" depart="25258.00" departLane="23429231#1_0" departPos="4.40" departSpeed="0.00" departDelay="4.00" arrival="25323.00" arrivalLane="32038051#0_0" arrivalPos="89.25" arrivalSpeed="20.14" duration="65.00" routeLength="203.79" waitingTime="41.00" waitingCount="2" stopTime="0.00" timeLoss="54.84" rerouteNo="0" devices="tripinfo_122376_406_0 routing_122376_406_0" vType="pkw" speedFactor="1.07" vaporized=""/>
    <tripinfo id="148629_417_0" depart="25284.00" departLane="27115123#2_0" departPos="4.40" departSpeed="0.00" departDelay="0.00" arrival="25323.00" arrivalLane="32324544#0_0" arrivalPos="90.48" arrivalSpeed="18.58" duration="39.00" routeLength="198.06" waitingTime="15.00" waitingCount="1" stopTime="0.00" timeLoss="28.16" rerouteNo="1" devices="tripinfo_148629_417_0 routing_148629_417_0" vType="pkw" speedFactor="1.00" vaporized=""/>
    <tripinfo id="102630_396_0" depart="25255.00" departLane="23429231#1_0" departPos="4.40" departSpeed="0.00" departDelay="3.00" arrival="25325.00" arrivalLane="32038051#0_0" arrivalPos="89.25" arrivalSpeed="15.09" duration="70.00" routeLength="203.79" waitingTime="45.00" waitingCount="1" stopTime="0.00" timeLoss="56.20" rerouteNo="0" devices="tripinfo_102630_396_0 routing_102630_396_0" vType="pkw" speedFactor="0.78" vaporized=""/>
    <tripinfo id="122194_406_0" depart="25262.00" departLane="23429231#1_0" departPos="4.40" departSpeed="0.00" departDelay="7.00" arrival="25325.00" arrivalLane="32038051#0_1" arrivalPos="89.25" arrivalSpeed="17.00" duration="63.00" routeLength="203.79" waitingTime="37.00" waitingCount="1" stopTime="0.00" timeLoss="51.43" rerouteNo="0" devices="tripinfo_122194_406_0 routing_122194_406_0" vType="pkw" speedFactor="0.93" vaporized=""/>
    <tripinfo id="152958_419_0" depart="25267.00" departLane="23429231#1_0" departPos="4.40" departSpeed="0.00" departDelay="10.00" arrival="25326.00" arrivalLane="32038051#0_1" arrivalPos="89.25" arrivalSpeed="19.65" duration="59.00" routeLength="203.79" waitingTime="35.00" waitingCount="1" stopTime="0.00" timeLoss="49.35" rerouteNo="0" devices="tripinfo_152958_419_0 routing_152958_419_0" vType="pkw" speedFactor="1.09" vaporized=""/>
    <tripinfo id="135103_411_0" depart="25264.00" departLane="23429231#1_0" departPos="4.40" departSpeed="0.00" departDelay="8.00" arrival="25327.00" arrivalLane="32038051#0_0" arrivalPos="89.25" arrivalSpeed="20.02" duration="63.00" routeLength="203.79" waitingTime="38.00" waitingCount="1" stopTime="0.00" timeLoss="52.12" rerouteNo="0" devices="tripinfo_135103_411_0 routing_135103_411_0" vType="pkw" speedFactor="1.04" vaporized=""/>
    <tripinfo id="113303_402_0" depart="25285.00" departLane="-32038056#3_0" departPos="4.40" departSpeed="0.00" departDelay="2.00" arrival="25333.00" arrivalLane="32324544#0_1" arrivalPos="90.48" arrivalSpeed="19.94" duration="48.00" routeLength="465.51" waitingTime="7.00" waitingCount="1" stopTime="0.00" timeLoss="17.20" rerouteNo="0" devices="tripinfo_113303_402_0 routing_113303_402_0" vType="pkw" speedFactor="1.04" vaporized=""/>
    <tripinfo id="162096_421_0" depart="25306.00" departLane="130165204_0" departPos="4.40" departSpeed="0.00" departDelay="0.00" arrival="25349.00" arrivalLane="32038051#0_1" arrivalPos="89.25" arrivalSpeed="18.69" duration="43.00" routeLength="410.03" waitingTime="2.00" waitingCount="1" stopTime="0.00" timeLoss="15.09" rerouteNo="1" devices="tripinfo_162096_421_0 routing_162096_421_0" vType="pkw" speedFactor="0.97" vaporized=""/>
    <tripinfo id="136082_411_0" depart="25279.00" departLane="-32038056#3_0" departPos="4.40" departSpeed="0.00" departDelay="2.00" arrival="25359.00" arrivalLane="32038051#0_0" arrivalPos="89.25" arrivalSpeed="19.33" duration="80.00" routeLength="446.95" waitingTime="37.00" waitingCount="1" stopTime="0.00" timeLoss="50.61" rerouteNo="0" devices="tripinfo_136082_411_0 routing_136082_411_0" vType="pkw" speedFactor="1.05" vaporized=""/>
    <tripinfo id="137244_412_0" depart="25297.00" departLane="-32038056#3_0" departPos="4.40" departSpeed="0.00" departDelay="3.00" arrival="25359.00" arrivalLane="-28198821#4_0" arrivalPos="57.10" arrivalSpeed="12.45" duration="62.00" routeLength="437.47" waitingTime="18.00" waitingCount="1" stopTime="0.00" timeLoss="26.85" rerouteNo="0" devices="tripinfo_137244_412_0 routing_137244_412_0" vType="pkw" speedFactor="0.91" vaporized=""/>
    <tripinfo id="175147_428_0" depart="25324.00" departLane="130165204_0" departPos="4.40" departSpeed="0.00" departDelay="0.00" arrival="25369.00" arrivalLane="32038051#0_1" arrivalPos="89.25" arrivalSpeed="18.24" duration="45.00" routeLength="410.03" waitingTime="5.00" waitingCount="1" stopTime="0.00" timeLoss="18.37" rerouteNo="1" devices="tripinfo_175147_428_0 routing_175147_428_0" vType="pkw" speedFactor="0.99" vaporized=""/>
    <tripinfo id="161721_421_0" depart="25337.00" departLane="130165204_0" departPos="4.40" departSpeed="0.00" departDelay="0.00" arrival="25379.00" arrivalLane="32038051#0_1" arrivalPos="89.25" arrivalSpeed="20.86" duration="42.00" routeLength="410.03" waitingTime="4.00" waitingCount="1" stopTime="0.00" timeLoss="20.38" rerouteNo="1" devices="tripinfo_161721_421_0 routing_161721_421_0" vType="pkw" speedFactor="1.23" vaporized=""/>
    <tripinfo id="85818_390_0" depart="25282.00" departLane="-32038056#3_0" departPos="4.40" departSpeed="0.00" departDelay="2.00" arrival="25388.00" arrivalLane="32038051#0_0" arrivalPos="89.25" arrivalSpeed="18.94" duration="106.00" routeLength="446.95" waitingTime="61.00" waitingCount="2" stopTime="0.00" timeLoss="76.71" rerouteNo="0" devices="tripinfo_85818_390_0 routing_85818_390_0" vType="pkw" speedFactor="1.04" vaporized=""/>
    <tripinfo id="142412_415_0" depart="25307.00" departLane="-32038056#3_0" departPos="4.40" departSpeed="0.00" departDelay="0.00" arrival="25388.00" arrivalLane="-28198821#4_1" arrivalPos="57.10" arrivalSpeed="12.50" duration="81.00" routeLength="437.47" waitingTime="35.00" waitingCount="2" stopTime="0.00" timeLoss="49.07" rerouteNo="0" devices="tripinfo_142412_415_0 routing_142412_415_0" vType="pkw" speedFactor="0.99" vaporized=""/>
    <tripinfo id="125613_406_0" depart="25269.00" departLane="23429231#1_0" departPos="4.40" departSpeed="0.00" departDelay="11.00" arrival="25402.00" arrivalLane="32038051#0_0" arrivalPos="89.25" arrivalSpeed="18.20" duration="133.00" routeLength="203.79" waitingTime="106.00" waitingCount="3" stopTime="0.00" timeLoss="121.88" rerouteNo="0" devices="tripinfo_125613_406_0 routing_125613_406_0" vType="pkw" speedFactor="0.96" vaporized=""/>
    <tripinfo id="133955_411_0" depart="25272.00" departLane="23429231#1_0" departPos="4.40" departSpeed="0.00" departDelay="13.00" arrival="25403.00" arrivalLane="32038051#0_1" arrivalPos="89.25" arrivalSpeed="18.73" duration="131.00" routeLength="203.79" waitingTime="101.00" waitingCount="2" stopTime="0.00" timeLoss="120.43" rerouteNo="0" devices="tripinfo_133955_411_0 routing_133955_411_0" vType="pkw" speedFactor="1.02" vaporized=""/>
    <tripinfo id="129253_408_0" depart="25275.00" departLane="23429231#1_0" departPos="4.40" departSpeed="0.00" departDelay="15.00" arrival="25404.00" arrivalLane="32038051#0_0" arrivalPos="89.25" arrivalSpeed="20.19" duration="129.00" routeLength="203.79" waitingTime="99.00" waitingCount="2" stopTime="0.00" timeLoss="118.78" rerouteNo="0" devices="tripinfo_129253_408_0 routing_129253_408_0" vType="pkw" speedFactor="1.05" vaporized=""/>
    <tripinfo id="120275_405_0" depart="25278.00" departLane="23429231#1_0" departPos="4.40" departSpeed="0.00" departDelay="17.00" arrival="25405.00" arrivalLane="32038051#0_1" arrivalPos="89.25" arrivalSpeed="16.95" duration="127.00" routeLength="203.79" waitingTime="96.00" waitingCount="2" stopTime="0.00" timeLoss="115.00" rerouteNo="0" devices="tripinfo_120275_405_0 routing_120275_405_0" vType="pkw" speedFactor="0.93" vaporized=""/>
    <tripinfo id="134807_411_0" depart="25281.00" departLane="23429231#1_0" departPos="4.40" departSpeed="0.00" departDelay="19.00" arrival="25406.00" arrivalLane="32324544#0_1" arrivalPos="90.48" arrivalSpeed="19.95" duration="125.00" routeLength="203.50" waitingTime="94.00" waitingCount="2" stopTime="0.00" timeLoss="114.87" rerouteNo="0" devices="tripinfo_134807_411_0 routing_134807_411_0" vType="pkw" speedFactor="1.08" vaporized=""/>
    <tripinfo id="135201_411_0" depart="25283.00" departLane="23429231#1_0" departPos="4.40" departSpeed="0.00" departDelay="19.00" arrival="25406.00" arrivalLane="32038051#0_0" arrivalPos="89.25" arrivalSpeed="17.87" duration="123.00" routeLength="203.79" waitingTime="92.00" waitingCount="2" stopTime="0.00" timeLoss="111.78" rerouteNo="0" devices="tripinfo_135201_411_0 routing_135201_411_0" vType="pkw" speedFactor="0.94" vaporized=""/>
    <tripinfo id="86583_391_0" depart="25289.00" departLane="-32038056#3_0" departPos="4.40" departSpeed="0.00" departDelay="0.00" arrival="25448.00" arrivalLane="32038051#0_0" arrivalPos="89.25" arrivalSpeed="18.84" duration="159.00" routeLength="446.95" waitingTime="114.00" waitingCount="3" stopTime="0.00" timeLoss="131.88" rerouteNo="0" devices="tripinfo_86583_391_0 routing_86583_391_0" vType="pkw" speedFactor="1.12" vaporized=""/>
    <tripinfo id="138220_412_0" depart="25309.00" departLane="-32038056#3_0" departPos="4.40" departSpeed="0.00" departDelay="0.00" arrival="25448.00" arrivalLane="-28198821#4_0" arrivalPos="57.10" arrivalSpeed="13.60" duration="139.00" routeLength="437.47" waitingTime="89.00" waitingCount="3" stopTime="0.00" timeLoss="108.59" rerouteNo="0" devices="tripinfo_138220_412_0 routing_138220_412_0" vType="pkw" speedFactor="1.04" vaporized=""/>
    <tripinfo id="129519_408_0" depart="25291.00" departLane="23429231#1_0" departPos="4.40" departSpeed="0.00" departDelay="24.00" arrival="25452.00" arrivalLane="32038051#0_1" arrivalPos="89.25" arrivalSpeed="19.04" duration="161.00" routeLength="203.79" waitingTime="125.00" waitingCount="3" stopTime="0.00" timeLoss="150.66" rerouteNo="0" devices="tripinfo_129519_408_0 routing_129519_408_0" vType="pkw" speedFactor="1.02" vaporized=""/>
    <tripinfo id="129330_408_0" depart="25433.00" departLane="27115123#2_0" departPos="4.40" departSpeed="0.00" departDelay="1.00" arrival="25452.00" arrivalLane="32324544#0_1" arrivalPos="90.48" arrivalSpeed="20.40" duration="19.00" routeLength="198.06" waitingTime="0.00" waitingCount="0" stopTime="0.00" timeLoss="9.15" rerouteNo="1" devices="tripinfo_129330_408_0 routing_129330_408_0" vType="pkw" speedFactor="1.10" vaporized=""/>
    <tripinfo id="86189_391_0" depart="25285.00" departLane="23429231#1_0" departPos="4.40" departSpeed="0.00" departDelay="20.00" arrival="25453.00" arrivalLane="32038051#0_0" arrivalPos="89.25" arrivalSpeed="19.94" duration="168.00" routeLength="203.79" waitingTime="133.00" waitingCount="3" stopTime="0.00" timeLoss="157.69" rerouteNo="0" devices="tripinfo_86189_391_0 routing_86189_391_0" vType="pkw" speedFactor="1.11" vaporized=""/>
    <tripinfo id="154290_420_0" depart="25431.00" departLane="27115123#2_0" departPos="4.40" departSpeed="0.00" departDelay="0.00" arrival="25453.00" arrivalLane="32324544#0_0" arrivalPos="90.48" arrivalSpeed="17.83" duration="22.00" routeLength="198.06" waitingTime="0.00" waitingCount="0" stopTime="0.00" timeLoss="11.55" rerouteNo="1" devices="tripinfo_154290_420_0 routing_154290_420_0" vType="pkw" speedFactor="0.98" vaporized=""/>
    <tripinfo id="57065_374_0" depart="25288.00" departLane="23429231#1_0" departPos="4.40" departSpeed="0.00" departDelay="22.00" arrival="25454.00" arrivalLane="32038051#0_0" arrivalPos="89.25" arrivalSpeed="17.68" duration="166.00" routeLength="203.79" waitingTime="128.00" waitingCount="3" stopTime="0.00" timeLoss="155.27" rerouteNo="0" devices="tripinfo_57065_374_0 routing_57065_374_0" vType="pkw" speedFactor="0.98" vaporized=""/>
    <tripinfo id="82015_389_0" depart="25294.00" departLane="23429231#1_0" departPos="4.40" departSpeed="0.00" departDelay="26.00" arrival="25454.00" arrivalLane="32038051#0_1" arrivalPos="89.25" arrivalSpeed="18.54" duration="160.00" routeLength="203.79" waitingTime="120.00" waitingCount="3" stopTime="0.00" timeLoss="148.64" rerouteNo="0" devices="tripinfo_82015_389_0 routing_82015_389_0" vType="pkw" speedFactor="0.97" vaporized=""/>
    <tripinfo id="135431_411_0" depart="25300.00" departLane="23429231#1_0" departPos="4.40" departSpeed="0.00" departDelay="31.00" arrival="25455.00" arrivalLane="32038051#0_1" arrivalPos="89.25" arrivalSpeed="20.06" duration="155.00" routeLength="203.79" waitingTime="117.00" waitingCount="3" stopTime="0.00" timeLoss="145.00" rerouteNo="0" devices="tripinfo_135431_411_0 routing_135431_411_0" vType="pkw" speedFactor="1.07" vaporized=""/>
    <tripinfo id="136204_411_0" depart="25297.00" departLane="23429231#1_0" departPos="4.40" departSpeed="0.00" departDelay="28.00" arrival="25456.00" arrivalLane="32038051#0_0" arrivalPos="89.25" arrivalSpeed="19.45" duration="159.00" routeLength="203.79" waitingTime="116.00" waitingCount="3" stopTime="0.00" timeLoss="148.87" rerouteNo="0" devices="tripinfo_136204_411_0 routing_136204_411_0" vType="pkw" speedFactor="1.09" vaporized=""/>
    <tripinfo id="137320_412_0" depart="25414.00" departLane="130165204_0" departPos="4.40" departSpeed="0.00" departDelay="0.00" arrival="25459.00" arrivalLane="32038051#0_1" arrivalPos="89.25" arrivalSpeed="16.03" duration="45.00" routeLength="410.03" waitingTime="1.00" waitingCount="1" stopTime="0.00" timeLoss="14.76" rerouteNo="1" devices="tripinfo_137320_412_0 routing_137320_412_0" vType="pkw" speedFactor="0.88" vaporized=""/>
    <tripinfo id="146814_416_0" depart="25303.00" departLane="23429231#1_0" departPos="4.40" departSpeed="0.00" departDelay="32.00" arrival="25473.00" arrivalLane="32038051#0_0" arrivalPos="89.25" arrivalSpeed="19.87" duration="170.00" routeLength="203.79" waitingTime="122.00" waitingCount="5" stopTime="0.00" timeLoss="159.01" rerouteNo="0" devices="tripinfo_146814_416_0 routing_146814_416_0" vType="pkw" speedFactor="1.03" vaporized=""/>
    <tripinfo id="125316_406_0" depart="25305.00" departLane="23429231#1_0" departPos="4.40" departSpeed="0.00" departDelay="34.00" arrival="25473.00" arrivalLane="32038051#0_1" arrivalPos="89.25" arrivalSpeed="16.36" duration="168.00" routeLength="203.79" waitingTime="122.00" waitingCount="4" stopTime="0.00" timeLoss="155.51" rerouteNo="0" devices="tripinfo_125316_406_0 routing_125316_406_0" vType="pkw" speedFactor="0.88" vaporized=""/>
    <tripinfo id="118286_405_0" depart="25308.00" departLane="23429231#1_0" departPos="4.40" departSpeed="0.00" departDelay="35.00" arrival="25474.00" arrivalLane="32038051#0_0" arrivalPos="89.25" arrivalSpeed="17.48" duration="166.00" routeLength="203.79" waitingTime="119.00" waitingCount="4" stopTime="0.00" timeLoss="154.37" rerouteNo="0" devices="tripinfo_118286_405_0 routing_118286_405_0" vType="pkw" speedFactor="0.91" vaporized=""/>
    <tripinfo id="134435_411_0" depart="25311.00" departLane="23429231#1_0" departPos="4.40" departSpeed="0.00" departDelay="38.00" arrival="25474.00" arrivalLane="32038051#0_1" arrivalPos="89.25" arrivalSpeed="18.63" duration="163.00" routeLength="203.79" waitingTime="115.00" waitingCount="4" stopTime="0.00" timeLoss="152.54" rerouteNo="0" devices="tripinfo_134435_411_0 routing_134435_411_0" vType="pkw" speedFactor="1.00" vaporized=""/>
    <tripinfo id="153635_420_0" depart="25460.00" departLane="27115123#2_0" departPos="4.40" departSpeed="0.00" departDelay="0.00" arrival="25475.00" arrivalLane="32324544#0_0" arrivalPos="90.48" arrivalSpeed="18.76" duration="15.00" routeLength="198.06" waitingTime="0.00" waitingCount="0" stopTime="0.00" timeLoss="4.38" rerouteNo="1" devices="tripinfo_153635_420_0 routing_153635_420_0" vType="pkw" speedFactor="1.02" vaporized=""/>
    <tripinfo id="108236_400_0" depart="25313.00" departLane="23429231#1_0" departPos="4.40" departSpeed="0.00" departDelay="39.00" arrival="25476.00" arrivalLane="32038051#0_0" arrivalPos="89.25" arrivalSpeed="18.22" duration="163.00" routeLength="203.79" waitingTime="114.00" waitingCount="4" stopTime="0.00" timeLoss="151.79" rerouteNo="0" devices="tripinfo_108236_400_0 routing_108236_400_0" vType="pkw" speedFactor="0.99" vaporized=""/>
    <tripinfo id="146536_416_0" depart="25316.00" departLane="23429231#1_0" departPos="4.40" departSpeed="0.00" departDelay="41.00" arrival="25477.00" arrivalLane="32038051#0_1" arrivalPos="89.25" arrivalSpeed="22.04" duration="161.00" routeLength="203.79" waitingTime="109.00" waitingCount="4" stopTime="0.00" timeLoss="151.53" rerouteNo="0" devices="tripinfo_146536_416_0 routing_146536_416_0" vType="pkw" speedFactor="1.20" vaporized=""/>
    <tripinfo id="110905_401_0" depart="25319.00" departLane="23429231#1_0" departPos="4.40" departSpeed="0.00" departDelay="43.00" arrival="25477.00" arrivalLane="32038051#0_0" arrivalPos="89.25" arrivalSpeed="19.53" duration="158.00" routeLength="203.79" waitingTime="109.00" waitingCount="3" stopTime="0.00" timeLoss="148.09" rerouteNo="0" devices="tripinfo_110905_401_0 routing_110905_401_0" vType="pkw" speedFactor="1.07" vaporized=""/>
    <tripinfo id="118931_405_0" depart="25321.00" departLane="23429231#1_0" departPos="4.40" departSpeed="0.00" departDelay="44.00" arrival="25478.00" arrivalLane="32038051#0_1" arrivalPos="89.25" arrivalSpeed="17.54" duration="157.00" routeLength="203.79" waitingTime="108.00" waitingCount="3" stopTime="0.00" timeLoss="145.43" rerouteNo="0" devices="tripinfo_118931_405_0 routing_118931_405_0" vType="pkw" speedFactor="0.92" vaporized=""/>
    <tripinfo id="94647_393_0" depart="25324.00" departLane="23429231#1_0" departPos="4.40" departSpeed="0.00" departDelay="46.00" arrival="25479.00" arrivalLane="32038051#0_0" arrivalPos="89.25" arrivalSpeed="18.83" duration="155.00" routeLength="203.79" waitingTime="109.00" waitingCount="3" stopTime="0.00" timeLoss="144.05" rerouteNo="0" devices="tripinfo_94647_393_0 routing_94647_393_0" vType="pkw" speedFactor="1.00" vaporized=""/>
    <tripinfo id="157203_421_0" depart="25326.00" departLane="23429231#1_0" departPos="4.40" departSpeed="0.00" departDelay="46.00" arrival="25480.00" arrivalLane="32038051#0_1" arrivalPos="89.25" arrivalSpeed="16.33" duration="154.00" routeLength="203.79" waitingTime="106.00" waitingCount="3" stopTime="0.00" timeLoss="142.06" rerouteNo="0" devices="tripinfo_157203_421_0 routing_157203_421_0" vType="pkw" speedFactor="0.91" vaporized=""/>
    <tripinfo id="139731_413_0" depart="25328.00" departLane="23429231#1_0" departPos="4.40" departSpeed="0.00" departDelay="48.00" arrival="25481.00" arrivalLane="32038051#0_0" arrivalPos="89.25" arrivalSpeed="17.01" duration="153.00" routeLength="203.79" waitingTime="108.00" waitingCount="3" stopTime="0.00" timeLoss="140.71" rerouteNo="0" devices="tripinfo_139731_413_0 routing_139731_413_0" vType="pkw" speedFactor="0.90" vaporized=""/>
    <tripinfo id="137559_412_0" depart="25331.00" departLane="23429231#1_0" departPos="4.40" departSpeed="0.00" departDelay="49.00" arrival="25481.00" arrivalLane="32038051#0_1" arrivalPos="89.25" arrivalSpeed="17.96" duration="150.00" routeLength="203.79" waitingTime="105.00" waitingCount="3" stopTime="0.00" timeLoss="138.87" rerouteNo="0" devices="tripinfo_137559_412_0 routing_137559_412_0" vType="pkw" speedFactor="0.95" vaporized=""/>