<?xml version="1.0" encoding="UTF-8"?>

<!-- generated on 2023-08-31 13:20:06 by Eclipse SUMO libsumo Version 1.18.0
<configuration xmlns:xsi="http://www.w3.org/2001/XMLSchema-instance" xsi:noNamespaceSchemaLocation="http://sumo.dlr.de/xsd/libsumoConfiguration.xsd">

    <input>
        <net-file value="/home/stefan/RESCO/./environments/cologne1/cologne1.net.xml"/>
        <route-files value="/home/stefan/RESCO/./environments/cologne1/cologne1.rou.xml"/>
    </input>

    <output>
        <tripinfo-output value="/home/stefan/results/RAINBOW-tr0-cologne1-0-drq_norm-wait_norm/tripinfo_87.xml"/>
        <tripinfo-output.write-unfinished value="true"/>
    </output>

    <time>
        <begin value="25200"/>
        <end value="28800"/>
    </time>

    <processing>
        <time-to-teleport value="-1"/>
    </processing>

    <report>
        <no-warnings value="True"/>
        <no-step-log value="True"/>
    </report>

    <random_number>
        <random value="true"/>
    </random_number>

</configuration>
-->

<tripinfos xmlns:xsi="http://www.w3.org/2001/XMLSchema-instance" xsi:noNamespaceSchemaLocation="http://sumo.dlr.de/xsd/tripinfo_file.xsd">
    <tripinfo id="124779_406_0" depart="25205.00" departLane="28198821#3_0" departPos="4.40" departSpeed="0.00" departDelay="0.00" arrival="25220.00" arrivalLane="32038051#0_1" arrivalPos="89.25" arrivalSpeed="20.66" duration="15.00" routeLength="170.57" waitingTime="0.00" waitingCount="0" stopTime="0.00" timeLoss="5.81" rerouteNo="0" devices="tripinfo_124779_406_0 routing_124779_406_0" vType="pkw" speedFactor="1.12" vaporized=""/>
    <tripinfo id="98305_395_0" depart="25211.00" departLane="28198821#3_0" departPos="4.40" departSpeed="0.00" departDelay="0.00" arrival="25224.00" arrivalLane="32038051#0_1" arrivalPos="89.25" arrivalSpeed="20.56" duration="13.00" routeLength="170.57" waitingTime="0.00" waitingCount="0" stopTime="0.00" timeLoss="3.73" rerouteNo="0" devices="tripinfo_98305_395_0 routing_98305_395_0" vType="pkw" speedFactor="1.10" vaporized=""/>
    <tripinfo id="102535_396_0" depart="25218.00" departLane="28198821#3_0" departPos="4.40" departSpeed="0.00" departDelay="0.00" arrival="25232.00" arrivalLane="32038051#0_1" arrivalPos="89.25" arrivalSpeed="18.16" duration="14.00" routeLength="170.57" waitingTime="0.00" waitingCount="0" stopTime="0.00" timeLoss="3.58" rerouteNo="0" devices="tripinfo_102535_396_0 routing_102535_396_0" vType="pkw" speedFactor="0.94" vaporized=""/>
    <tripinfo id="147209_416_0" depart="25220.00" departLane="28198821#3_0" departPos="4.40" departSpeed="0.00" departDelay="0.00" arrival="25236.00" arrivalLane="32038051#0_1" arrivalPos="89.25" arrivalSpeed="15.23" duration="16.00" routeLength="170.57" waitingTime="0.00" waitingCount="0" stopTime="0.00" timeLoss="3.55" rerouteNo="0" devices="tripinfo_147209_416_0 routing_147209_416_0" vType="pkw" speedFactor="0.82" vaporized=""/>
    <tripinfo id="151372_418_0" depart="25207.00" departLane="130165204_0" departPos="4.40" departSpeed="0.00" departDelay="0.00" arrival="25248.00" arrivalLane="32038051#0_1" arrivalPos="89.25" arrivalSpeed="17.54" duration="41.00" routeLength="410.03" waitingTime="0.00" waitingCount="0" stopTime="0.00" timeLoss="13.43" rerouteNo="1" devices="tripinfo_151372_418_0 routing_151372_418_0" vType="pkw" speedFactor="0.95" vaporized=""/>
    <tripinfo id="149029_417_0" depart="25236.00" departLane="27115123#2_0" departPos="4.40" departSpeed="0.00" departDelay="0.00" arrival="25259.00" arrivalLane="32038051#0_1" arrivalPos="89.25" arrivalSpeed="21.72" duration="23.00" routeLength="196.41" waitingTime="1.00" waitingCount="1" stopTime="0.00" timeLoss="13.10" rerouteNo="1" devices="tripinfo_149029_417_0 routing_149029_417_0" vType="pkw" speedFactor="1.13" vaporized=""/>
    <tripinfo id="91582_392_0" depart="25220.00" departLane="-32038056#3_0" departPos="4.40" departSpeed="0.00" departDelay="2.00" arrival="25266.00" arrivalLane="32324544#0_1" arrivalPos="90.48" arrivalSpeed="14.26" duration="46.00" routeLength="465.51" waitingTime="0.00" waitingCount="0" stopTime="0.00" timeLoss="4.58" rerouteNo="0" devices="tripinfo_91582_392_0 routing_91582_392_0" vType="pkw" speedFactor="0.77" vaporized=""/>
    <tripinfo id="115444_403_0" depart="25294.00" departLane="28198821#3_0" departPos="4.40" departSpeed="0.00" departDelay="0.00" arrival="25312.00" arrivalLane="32038051#0_1" arrivalPos="89.25" arrivalSpeed="19.61" duration="18.00" routeLength="170.57" waitingTime="0.00" waitingCount="0" stopTime="0.00" timeLoss="7.95" rerouteNo="0" devices="tripinfo_115444_403_0 routing_115444_403_0" vType="pkw" speedFactor="1.01" vaporized=""/>
    <tripinfo id="103540_397_0" depart="25300.00" departLane="28198821#3_0" departPos="4.40" departSpeed="0.00" departDelay="0.00" arrival="25314.00" arrivalLane="32038051#0_1" arrivalPos="89.25" arrivalSpeed="18.70" duration="14.00" routeLength="170.57" waitingTime="0.00" waitingCount="0" stopTime="0.00" timeLoss="3.89" rerouteNo="0" devices="tripinfo_103540_397_0 routing_103540_397_0" vType="pkw" speedFactor="1.02" vaporized=""/>
    <tripinfo id="162096_421_0" depart="25306.00" departLane="130165204_0" departPos="4.40" departSpeed="0.00" departDelay="0.00" arrival="25349.00" arrivalLane="32038051#0_1" arrivalPos="89.25" arrivalSpeed="18.83" duration="43.00" routeLength="410.03" waitingTime="2.00" waitingCount="1" stopTime="0.00" timeLoss="15.38" rerouteNo="1" devices="tripinfo_162096_421_0 routing_162096_421_0" vType="pkw" speedFactor="0.97" vaporized=""/>
    <tripinfo id="175147_428_0" depart="25324.00" departLane="130165204_0" departPos="4.40" departSpeed="0.00" departDelay="0.00" arrival="25357.00" arrivalLane="32038051#0_1" arrivalPos="89.25" arrivalSpeed="20.95" duration="33.00" routeLength="410.03" waitingTime="0.00" waitingCount="0" stopTime="0.00" timeLoss="9.18" rerouteNo="1" devices="tripinfo_175147_428_0 routing_175147_428_0" vType="pkw" speedFactor="1.11" vaporized=""/>
    <tripinfo id="161721_421_0" depart="25337.00" departLane="130165204_0" departPos="4.40" departSpeed="0.00" departDelay="0.00" arrival="25378.00" arrivalLane="32038051#0_1" arrivalPos="89.25" arrivalSpeed="20.05" duration="41.00" routeLength="410.03" waitingTime="3.00" waitingCount="1" stopTime="0.00" timeLoss="15.79" rerouteNo="1" devices="tripinfo_161721_421_0 routing_161721_421_0" vType="pkw" speedFactor="1.04" vaporized=""/>
    <tripinfo id="136669_411_0" depart="25566.00" departLane="28198821#3_0" departPos="4.40" departSpeed="0.00" departDelay="0.00" arrival="25580.00" arrivalLane="32038051#0_1" arrivalPos="89.25" arrivalSpeed="19.49" duration="14.00" routeLength="170.57" waitingTime="0.00" waitingCount="0" stopTime="0.00" timeLoss="4.23" rerouteNo="0" devices="tripinfo_136669_411_0 routing_136669_411_0" vType="pkw" speedFactor="1.06" vaporized=""/>
    <tripinfo id="218594_446_0" depart="26611.00" departLane="32324544#0_0" departPos="4.40" departSpeed="0.00" departDelay="0.00" arrival="26620.00" arrivalLane="32324544#0_0" arrivalPos="90.48" arrivalSpeed="18.00" duration="9.00" routeLength="86.08" waitingTime="0.00" waitingCount="0" stopTime="0.00" timeLoss="4.27" rerouteNo="1" devices="tripinfo_218594_446_0 routing_218594_446_0" vType="pkw" speedFactor="1.01" vaporized=""/>
    <tripinfo id="123965_406_0" depart="25218.00" departLane="-32038056#3_0" departPos="4.40" departSpeed="0.00" departDelay="0.00" arrival="-1.00" arrivalLane="" arrivalPos="-1.00" arrivalSpeed="-1.00" duration="3582.00" routeLength="345.83" waitingTime="3550.00" waitingCount="1" stopTime="0.00" timeLoss="3555.39" rerouteNo="0" devices="tripinfo_123965_406_0 routing_123965_406_0" vType="pkw" speedFactor="0.97" vaporized="end"/>
    <tripinfo id="160150_421_0" depart="25223.00" departLane="-32038056#3_0" departPos="4.40" departSpeed="0.00" departDelay="4.00" arrival="-1.00" arrivalLane="" arrivalPos="-1.00" arrivalSpeed="-1.00" duration="3577.00" routeLength="340.03" waitingTime="3544.00" waitingCount="1" stopTime="0.00" timeLoss="3550.61" rerouteNo="0" devices="tripinfo_160150_421_0 routing_160150_421_0" vType="pkw" speedFactor="0.96" vaporized="end"/>
    <tripinfo id="162814_422_0" depart="25233.00" departLane="-32038056#3_0" departPos="4.40" departSpeed="0.00" departDelay="0.00" arrival="-1.00" arrivalLane="" arrivalPos="-1.00" arrivalSpeed="-1.00" duration="3567.00" routeLength="334.23" waitingTime="3538.00" waitingCount="1" stopTime="0.00" timeLoss="3545.37" rerouteNo="0" devices="tripinfo_162814_422_0 routing_162814_422_0" vType="pkw" speedFactor="1.17" vaporized="end"/>
    <tripinfo id="121258_405_0" depart="25240.00" departLane="23429231#1_0" departPos="4.40" departSpeed="0.00" departDelay="0.00" arrival="-1.00" arrivalLane="" arrivalPos="-1.00" arrivalSpeed="-1.00" duration="3560.00" routeLength="91.17" waitingTime="3547.00" waitingCount="1" stopTime="0.00" timeLoss="3554.46" rerouteNo="0" devices="tripinfo_121258_405_0 routing_121258_405_0" vType="pkw" speedFactor="1.03" vaporized="end"/>
    <tripinfo id="126742_407_0" depart="25242.00" departLane="23429231#1_0" departPos="4.40" departSpeed="0.00" departDelay="2.00" arrival="-1.00" arrivalLane="" arrivalPos="-1.00" arrivalSpeed="-1.00" duration="3558.00" routeLength="91.17" waitingTime="3544.00" waitingCount="1" stopTime="0.00" timeLoss="3552.06" rerouteNo="0" devices="tripinfo_126742_407_0 routing_126742_407_0" vType="pkw" speedFactor="0.95" vaporized="end"/>
    <tripinfo id="102501_396_0" depart="25245.00" departLane="23429231#1_0" departPos="4.40" departSpeed="0.00" departDelay="1.00" arrival="-1.00" arrivalLane="" arrivalPos="-1.00" arrivalSpeed="-1.00" duration="3555.00" routeLength="85.37" waitingTime="3542.00" waitingCount="1" stopTime="0.00" timeLoss="3549.89" rerouteNo="0" devices="tripinfo_102501_396_0 routing_102501_396_0" vType="pkw" speedFactor="1.07" vaporized="end"/>
    <tripinfo id="120663_405_0" depart="25247.00" departLane="23429231#1_0" departPos="4.40" departSpeed="0.00" departDelay="1.00" arrival="-1.00" arrivalLane="" arrivalPos="-1.00" arrivalSpeed="-1.00" duration="3553.00" routeLength="79.57" waitingTime="3540.00" waitingCount="1" stopTime="0.00" timeLoss="3547.68" rerouteNo="0" devices="tripinfo_120663_405_0 routing_120663_405_0" vType="pkw" speedFactor="0.95" vaporized="end"/>
    <tripinfo id="113509_402_0" depart="25250.00" departLane="23429231#1_0" departPos="4.40" departSpeed="0.00" departDelay="2.00" arrival="-1.00" arrivalLane="" arrivalPos="-1.00" arrivalSpeed="-1.00" duration="3550.00" routeLength="85.37" waitingTime="3536.00" waitingCount="1" stopTime="0.00" timeLoss="3543.77" rerouteNo="0" devices="tripinfo_113509_402_0 routing_113509_402_0" vType="pkw" speedFactor="0.84" vaporized="end"/>
    <tripinfo id="130147_409_0" depart="25252.00" departLane="23429231#1_0" departPos="4.40" departSpeed="0.00" departDelay="1.00" arrival="-1.00" arrivalLane="" arrivalPos="-1.00" arrivalSpeed="-1.00" duration="3548.00" routeLength="79.57" waitingTime="3534.00" waitingCount="1" stopTime="0.00" timeLoss="3542.84" rerouteNo="0" devices="tripinfo_130147_409_0 routing_130147_409_0" vType="pkw" speedFactor="0.98" vaporized="end"/>
    <tripinfo id="102630_396_0" depart="25255.00" departLane="23429231#1_0" departPos="4.40" departSpeed="0.00" departDelay="3.00" arrival="-1.00" arrivalLane="" arrivalPos="-1.00" arrivalSpeed="-1.00" duration="3545.00" routeLength="73.77" waitingTime="3534.00" waitingCount="1" stopTime="0.00" timeLoss="3540.81" rerouteNo="0" devices="tripinfo_102630_396_0 routing_102630_396_0" vType="pkw" speedFactor="1.19" vaporized="end"/>
    <tripinfo id="122376_406_0" depart="25257.00" departLane="23429231#1_0" departPos="4.40" departSpeed="0.00" departDelay="3.00" arrival="-1.00" arrivalLane="" arrivalPos="-1.00" arrivalSpeed="-1.00" duration="3543.00" routeLength="73.77" waitingTime="3531.00" waitingCount="1" stopTime="0.00" timeLoss="3538.44" rerouteNo="0" devices="tripinfo_122376_406_0 routing_122376_406_0" vType="pkw" speedFactor="1.07" vaporized="end"/>
    <tripinfo id="122194_406_0" depart="25260.00" departLane="23429231#1_0" departPos="4.40" departSpeed="0.00" departDelay="5.00" arrival="-1.00" arrivalLane="" arrivalPos="-1.00" arrivalSpeed="-1.00" duration="3540.00" routeLength="67.96" waitingTime="3527.00" waitingCount="1" stopTime="0.00" timeLoss="3534.35" rerouteNo="0" devices="tripinfo_122194_406_0 routing_122194_406_0" vType="pkw" speedFactor="0.75" vaporized="end"/>
    <tripinfo id="135103_411_0" depart="25263.00" departLane="23429231#1_0" departPos="4.40" departSpeed="0.00" departDelay="7.00" arrival="-1.00" arrivalLane="" arrivalPos="-1.00" arrivalSpeed="-1.00" duration="3537.00" routeLength="67.96" waitingTime="3525.00" waitingCount="1" stopTime="0.00" timeLoss="3531.81" rerouteNo="0" devices="tripinfo_135103_411_0 routing_135103_411_0" vType="pkw" speedFactor="0.83" vaporized="end"/>
    <tripinfo id="152958_419_0" depart="25266.00" departLane="23429231#1_0" departPos="4.40" departSpeed="0.00" departDelay="9.00" arrival="-1.00" arrivalLane="" arrivalPos="-1.00" arrivalSpeed="-1.00" duration="3534.00" routeLength="62.16" waitingTime="3522.00" waitingCount="1" stopTime="0.00" timeLoss="3528.83" rerouteNo="0" devices="tripinfo_152958_419_0 routing_152958_419_0" vType="pkw" speedFactor="0.77" vaporized="end"/>
    <tripinfo id="125613_406_0" depart="25269.00" departLane="23429231#1_0" departPos="4.40" departSpeed="0.00" departDelay="11.00" arrival="-1.00" arrivalLane="" arrivalPos="-1.00" arrivalSpeed="-1.00" duration="3531.00" routeLength="62.16" waitingTime="3519.00" waitingCount="1" stopTime="0.00" timeLoss="3526.73" rerouteNo="0" devices="tripinfo_125613_406_0 routing_125613_406_0" vType="pkw" speedFactor="0.98" vaporized="end"/>
    <tripinfo id="133955_411_0" depart="25272.00" departLane="23429231#1_0" departPos="4.40" departSpeed="0.00" departDelay="13.00" arrival="-1.00" arrivalLane="" arrivalPos="-1.00" arrivalSpeed="-1.00" duration="3528.00" routeLength="56.36" waitingTime="3518.00" waitingCount="1" stopTime="0.00" timeLoss="3524.14" rerouteNo="0" devices="tripinfo_133955_411_0 routing_133955_411_0" vType="pkw" speedFactor="1.01" vaporized="end"/>
    <tripinfo id="129253_408_0" depart="25274.00" departLane="23429231#1_0" departPos="4.40" departSpeed="0.00" departDelay="14.00" arrival="-1.00" arrivalLane="" arrivalPos="-1.00" arrivalSpeed="-1.00" duration="3526.00" routeLength="56.36" waitingTime="3514.00" waitingCount="1" stopTime="0.00" timeLoss="3521.68" rerouteNo="0" devices="tripinfo_129253_408_0 routing_129253_408_0" vType="pkw" speedFactor="0.87" vaporized="end"/>
    <tripinfo id="120275_405_0" depart="25277.00" departLane="23429231#1_0" departPos="4.40" departSpeed="0.00" departDelay="16.00" arrival="-1.00" arrivalLane="" arrivalPos="-1.00" arrivalSpeed="-1.00" duration="3523.00" routeLength="50.56" waitingTime="3513.00" waitingCount="1" stopTime="0.00" timeLoss="3519.43" rerouteNo="0" devices="tripinfo_120275_405_0 routing_120275_405_0" vType="pkw" speedFactor="1.01" vaporized="end"/>
    <tripinfo id="134807_411_0" depart="25280.00" departLane="23429231#1_0" departPos="4.40" departSpeed="0.00" departDelay="18.00" arrival="-1.00" arrivalLane="" arrivalPos="-1.00" arrivalSpeed="-1.00" duration="3520.00" routeLength="50.56" waitingTime="3509.00" waitingCount="1" stopTime="0.00" timeLoss="3516.45" rerouteNo="0" devices="tripinfo_134807_411_0 routing_134807_411_0" vType="pkw" speedFactor="1.02" vaporized="end"/>
    <tripinfo id="135201_411_0" depart="25282.00" departLane="23429231#1_0" departPos="4.40" departSpeed="0.00" departDelay="18.00" arrival="-1.00" arrivalLane="" arrivalPos="-1.00" arrivalSpeed="-1.00" duration="3518.00" routeLength="44.76" waitingTime="3508.00" waitingCount="1" stopTime="0.00" timeLoss="3514.55" rerouteNo="0" devices="tripinfo_135201_411_0 routing_135201_411_0" vType="pkw" speedFactor="0.94" vaporized="end"/>
    <tripinfo id="86189_391_0" depart="25284.00" departLane="23429231#1_0" departPos="4.40" departSpeed="0.00" departDelay="19.00" arrival="-1.00" arrivalLane="" arrivalPos="-1.00" arrivalSpeed="-1.00" duration="3516.00" routeLength="44.76" waitingTime="3505.00" waitingCount="1" stopTime="0.00" timeLoss="3512.66" rerouteNo="0" devices="tripinfo_86189_391_0 routing_86189_391_0" vType="pkw" speedFactor="0.98" vaporized="end"/>
    <tripinfo id="57065_374_0" depart="25287.00" departLane="23429231#1_0" departPos="4.40" departSpeed="0.00" departDelay="21.00" arrival="-1.00" arrivalLane="" arrivalPos="-1.00" arrivalSpeed="-1.00" duration="3513.00" routeLength="38.96" waitingTime="3503.00" waitingCount="1" stopTime="0.00" timeLoss="3509.73" rerouteNo="0" devices="tripinfo_57065_374_0 routing_57065_374_0" vType="pkw" speedFactor="0.88" vaporized="end"/>
    <tripinfo id="129519_408_0" depart="25290.00" departLane="23429231#1_0" departPos="4.40" departSpeed="0.00" departDelay="23.00" arrival="-1.00" arrivalLane="" arrivalPos="-1.00" arrivalSpeed="-1.00" duration="3510.00" routeLength="38.96" waitingTime="3501.00" waitingCount="1" stopTime="0.00" timeLoss="3507.19" rerouteNo="0" devices="tripinfo_129519_408_0 routing_129519_408_0" vType="pkw" speedFactor="1.11" vaporized="end"/>
    <tripinfo id="130602_409_0" depart="25268.00" departLane="-32038056#3_0" departPos="4.40" departSpeed="0.00" departDelay="0.00" arrival="-1.00" arrivalLane="" arrivalPos="-1.00" arrivalSpeed="-1.00" duration="3532.00" routeLength="345.83" waitingTime="3496.00" waitingCount="1" stopTime="0.00" timeLoss="3504.09" rerouteNo="0" devices="tripinfo_130602_409_0 routing_130602_409_0" vType="pkw" speedFactor="0.93" vaporized="end"/>
    <tripinfo id="82015_389_0" depart="25292.00" departLane="23429231#1_0" departPos="4.40" departSpeed="0.00" departDelay="24.00" arrival="-1.00" arrivalLane="" arrivalPos="-1.00" arrivalSpeed="-1.00" duration="3508.00" routeLength="33.16" waitingTime="3499.00" waitingCount="1" stopTime="0.00" timeLoss="3505.26" rerouteNo="0" devices="tripinfo_82015_389_0 routing_82015_389_0" vType="pkw" speedFactor="0.98" vaporized="end"/>
    <tripinfo id="136204_411_0" depart="25295.00" departLane="23429231#1_0" departPos="4.40" departSpeed="0.00" departDelay="26.00" arrival="-1.00" arrivalLane="" arrivalPos="-1.00" arrivalSpeed="-1.00" duration="3505.00" routeLength="33.16" waitingTime="3496.00" waitingCount="1" stopTime="0.00" timeLoss="3502.21" rerouteNo="0" devices="tripinfo_136204_411_0 routing_136204_411_0" vType="pkw" speedFactor="0.95" vaporized="end"/>
    <tripinfo id="135431_411_0" depart="25298.00" departLane="23429231#1_0" departPos="4.40" departSpeed="0.00" departDelay="29.00" arrival="-1.00" arrivalLane="" arrivalPos="-1.00" arrivalSpeed="-1.00" duration="3502.00" routeLength="27.36" waitingTime="3494.00" waitingCount="1" stopTime="0.00" timeLoss="3499.61" rerouteNo="0" devices="tripinfo_135431_411_0 routing_135431_411_0" vType="pkw" speedFactor="1.01" vaporized="end"/>
    <tripinfo id="146814_416_0" depart="25301.00" departLane="23429231#1_0" departPos="4.40" departSpeed="0.00" departDelay="30.00" arrival="-1.00" arrivalLane="" arrivalPos="-1.00" arrivalSpeed="-1.00" duration="3499.00" routeLength="27.36" waitingTime="3491.00" waitingCount="1" stopTime="0.00" timeLoss="3496.70" rerouteNo="0" devices="tripinfo_146814_416_0 routing_146814_416_0" vType="pkw" speedFactor="1.09" vaporized="end"/>
    <tripinfo id="125316_406_0" depart="25303.00" departLane="23429231#1_0" departPos="4.40" departSpeed="0.00" departDelay="32.00" arrival="-1.00" arrivalLane="" arrivalPos="-1.00" arrivalSpeed="-1.00" duration="3497.00" routeLength="21.56" waitingTime="3491.00" waitingCount="1" stopTime="0.00" timeLoss="3494.83" rerouteNo="0" devices="tripinfo_125316_406_0 routing_125316_406_0" vType="pkw" speedFactor="0.95" vaporized="end"/>
    <tripinfo id="128446_408_0" depart="25273.00" departLane="-32038056#3_0" departPos="4.40" departSpeed="0.00" departDelay="0.00" arrival="-1.00" arrivalLane="" arrivalPos="-1.00" arrivalSpeed="-1.00" duration="3527.00" routeLength="340.03" waitingTime="3495.00" waitingCount="1" stopTime="0.00" timeLoss="3501.10" rerouteNo="0" devices="tripinfo_128446_408_0 routing_128446_408_0" vType="pkw" speedFactor="0.98" vaporized="end"/>
    <tripinfo id="118286_405_0" depart="25305.00" departLane="23429231#1_0" departPos="4.40" departSpeed="0.00" departDelay="32.00" arrival="-1.00" arrivalLane="" arrivalPos="-1.00" arrivalSpeed="-1.00" duration="3495.00" routeLength="21.56" waitingTime="3486.00" waitingCount="1" stopTime="0.00" timeLoss="3492.93" rerouteNo="0" devices="tripinfo_118286_405_0 routing_118286_405_0" vType="pkw" speedFactor="1.03" vaporized="end"/>
    <tripinfo id="134435_411_0" depart="25308.00" departLane="23429231#1_0" departPos="4.40" departSpeed="0.00" departDelay="35.00" arrival="-1.00" arrivalLane="" arrivalPos="-1.00" arrivalSpeed="-1.00" duration="3492.00" routeLength="15.76" waitingTime="3486.00" waitingCount="1" stopTime="0.00" timeLoss="3490.15" rerouteNo="0" devices="tripinfo_134435_411_0 routing_134435_411_0" vType="pkw" speedFactor="0.95" vaporized="end"/>
    <tripinfo id="108236_400_0" depart="25310.00" departLane="23429231#1_0" departPos="4.40" departSpeed="0.00" departDelay="36.00" arrival="-1.00" arrivalLane="" arrivalPos="-1.00" arrivalSpeed="-1.00" duration="3490.00" routeLength="15.76" waitingTime="3484.00" waitingCount="2" stopTime="0.00" timeLoss="3488.23" rerouteNo="0" devices="tripinfo_108236_400_0 routing_108236_400_0" vType="pkw" speedFactor="1.05" vaporized="end"/>
    <tripinfo id="83516_390_0" depart="25276.00" departLane="-32038056#3_0" departPos="4.40" departSpeed="0.00" departDelay="1.00" arrival="-1.00" arrivalLane="" arrivalPos="-1.00" arrivalSpeed="-1.00" duration="3524.00" routeLength="334.23" waitingTime="3490.00" waitingCount="1" stopTime="0.00" timeLoss="3496.13" rerouteNo="0" devices="tripinfo_83516_390_0 routing_83516_390_0" vType="pkw" speedFactor="0.90" vaporized="end"/>
    <tripinfo id="146536_416_0" depart="25312.00" departLane="23429231#1_0" departPos="4.40" departSpeed="0.00" departDelay="37.00" arrival="-1.00" arrivalLane="" arrivalPos="-1.00" arrivalSpeed="-1.00" duration="3488.00" routeLength="9.95" waitingTime="3484.00" waitingCount="1" stopTime="0.00" timeLoss="3486.50" rerouteNo="0" devices="tripinfo_146536_416_0 routing_146536_416_0" vType="pkw" speedFactor="1.03" vaporized="end"/>
    <tripinfo id="110905_401_0" depart="25315.00" departLane="23429231#1_0" departPos="4.40" departSpeed="0.00" departDelay="39.00" arrival="-1.00" arrivalLane="" arrivalPos="-1.00" arrivalSpeed="-1.00" duration="3485.00" routeLength="9.95" waitingTime="3479.00" waitingCount="1" stopTime="0.00" timeLoss="3483.44" rerouteNo="0" devices="tripinfo_110905_401_0 routing_110905_401_0" vType="pkw" speedFactor="0.92" vaporized="end"/>
    <tripinfo id="136082_411_0" depart="25279.00" departLane="-32038056#3_0" departPos="4.40" departSpeed="0.00" departDelay="2.00" arrival="-1.00" arrivalLane="" arrivalPos="-1.00" arrivalSpeed="-1.00" duration="3521.00" routeLength="328.43" waitingTime="3493.00" waitingCount="1" stopTime="0.00" timeLoss="3499.02" rerouteNo="0" devices="tripinfo_136082_411_0 routing_136082_411_0" vType="pkw" speedFactor="1.13" vaporized="end"/>
    <tripinfo id="118931_405_0" depart="25316.00" departLane="23429231#1_0" departPos="4.40" departSpeed="0.00" departDelay="39.00" arrival="-1.00" arrivalLane="" arrivalPos="-1.00" arrivalSpeed="-1.00" duration="3484.00" routeLength="4.15" waitingTime="3480.00" waitingCount="1" stopTime="0.00" timeLoss="3482.79" rerouteNo="0" devices="tripinfo_118931_405_0 routing_118931_405_0" vType="pkw" speedFactor="1.00" vaporized="end"/>
    <tripinfo id="85818_390_0" depart="25281.00" departLane="-32038056#3_0" departPos="4.40" departSpeed="0.00" departDelay="1.00" arrival="-1.00" arrivalLane="" arrivalPos="-1.00" arrivalSpeed="-1.00" duration="3519.00" routeLength="322.62" waitingTime="3487.00" waitingCount="1" stopTime="0.00" timeLoss="3493.80" rerouteNo="0" devices="tripinfo_85818_390_0 routing_85818_390_0" vType="pkw" speedFactor="0.96" vaporized="end"/>
    <tripinfo id="113303_402_0" depart="25284.00" departLane="-32038056#3_0" departPos="4.40" departSpeed="0.00" departDelay="1.00" arrival="-1.00" arrivalLane="" arrivalPos="-1.00" arrivalSpeed="-1.00" duration="3516.00" routeLength="328.43" waitingTime="3486.00" waitingCount="1" stopTime="0.00" timeLoss="3491.76" rerouteNo="0" devices="tripinfo_113303_402_0 routing_113303_402_0" vType="pkw" speedFactor="1.02" vaporized="end"/>
    <tripinfo id="148629_417_0" depart="25284.00" departLane="27115123#2_0" departPos="4.40" departSpeed="0.00" departDelay="0.00" arrival="-1.00" arrivalLane="" arrivalPos="-1.00" arrivalSpeed="-1.00" duration="3516.00" routeLength="83.74" waitingTime="3502.00" waitingCount="1" stopTime="0.00" timeLoss="3510.64" rerouteNo="1" devices="tripinfo_148629_417_0 routing_148629_417_0" vType="pkw" speedFactor="0.99" vaporized="end"/>
    <tripinfo id="86583_391_0" depart="25289.00" departLane="-32038056#3_0" departPos="4.40" departSpeed="0.00" departDelay="0.00" arrival="-1.00" arrivalLane="" arrivalPos="-1.00" arrivalSpeed="-1.00" duration="3511.00" routeLength="316.82" waitingTime="3481.00" waitingCount="1" stopTime="0.00" timeLoss="3488.30" rerouteNo="0" devices="tripinfo_86583_391_0 routing_86583_391_0" vType="pkw" speedFactor="1.05" vaporized="end"/>
    <tripinfo id="120878_405_0" depart="25292.00" departLane="-32038056#3_0" departPos="4.40" departSpeed="0.00" departDelay="1.00" arrival="-1.00" arrivalLane="" arrivalPos="-1.00" arrivalSpeed="-1.00" duration="3508.00" routeLength="311.02" waitingTime="3471.00" waitingCount="1" stopTime="0.00" timeLoss="3479.02" rerouteNo="0" devices="tripinfo_120878_405_0 routing_120878_405_0" vType="pkw" speedFactor="0.80" vaporized="end"/>
    <tripinfo id="85922_391_0" depart="25295.00" departLane="-32038056#3_0" departPos="4.40" departSpeed="0.00" departDelay="2.00" arrival="-1.00" arrivalLane="" arrivalPos="-1.00" arrivalSpeed="-1.00" duration="3505.00" routeLength="305.22" waitingTime="3471.00" waitingCount="1" stopTime="0.00" timeLoss="3481.82" rerouteNo="0" devices="tripinfo_85922_391_0 routing_85922_391_0" vType="pkw" speedFactor="0.99" vaporized="end"/>
    <tripinfo id="137244_412_0" depart="25298.00" departLane="-32038056#3_0" departPos="4.40" departSpeed="0.00" departDelay="4.00" arrival="-1.00" arrivalLane="" arrivalPos="-1.00" arrivalSpeed="-1.00" duration="3502.00" routeLength="322.62" waitingTime="3469.00" waitingCount="1" stopTime="0.00" timeLoss="3476.92" rerouteNo="0" devices="tripinfo_137244_412_0 routing_137244_412_0" vType="pkw" speedFactor="0.96" vaporized="end"/>
    <tripinfo id="118963_405_0" depart="25304.00" departLane="-32038056#3_0" departPos="4.40" departSpeed="0.00" departDelay="0.00" arrival="-1.00" arrivalLane="" arrivalPos="-1.00" arrivalSpeed="-1.00" duration="3496.00" routeLength="299.42" waitingTime="3466.00" waitingCount="1" stopTime="0.00" timeLoss="3473.08" rerouteNo="0" devices="tripinfo_118963_405_0 routing_118963_405_0" vType="pkw" speedFactor="0.98" vaporized="end"/>
    <tripinfo id="142412_415_0" depart="25307.00" departLane="-32038056#3_0" departPos="4.40" departSpeed="0.00" departDelay="0.00" arrival="-1.00" arrivalLane="" arrivalPos="-1.00" arrivalSpeed="-1.00" duration="3493.00" routeLength="316.82" waitingTime="3464.00" waitingCount="1" stopTime="0.00" timeLoss="3469.63" rerouteNo="0" devices="tripinfo_142412_415_0 routing_142412_415_0" vType="pkw" speedFactor="1.02" vaporized="end"/>
    <tripinfo id="138220_412_0" depart="25309.00" departLane="-32038056#3_0" departPos="4.40" departSpeed="0.00" departDelay="0.00" arrival="-1.00" arrivalLane="" arrivalPos="-1.00" arrivalSpeed="-1.00" duration="3491.00" routeLength="311.02" waitingTime="3463.00" waitingCount="2" stopTime="0.00" timeLoss="3469.49" rerouteNo="0" devices="tripinfo_138220_412_0 routing_138220_412_0" vType="pkw" speedFactor="1.09" vaporized="end"/>
    <tripinfo id="136152_411_0" depart="25313.00" departLane="-32038056#3_0" departPos="4.40" departSpeed="0.00" departDelay="0.00" arrival="-1.00" arrivalLane="" arrivalPos="-1.00" arrivalSpeed="-1.00" duration="3487.00" routeLength="293.62" waitingTime="3458.00" waitingCount="1" stopTime="0.00" timeLoss="3464.86" rerouteNo="0" devices="tripinfo_136152_411_0 routing_136152_411_0" vType="pkw" speedFactor="1.00" vaporized="end"/>
    <tripinfo id="167799_425_0" depart="25327.00" departLane="-32038056#3_0" departPos="4.40" departSpeed="0.00" departDelay="0.00" arrival="-1.00" arrivalLane="" arrivalPos="-1.00" arrivalSpeed="-1.00" duration="3473.00" routeLength="305.22" waitingTime="3446.00" waitingCount="1" stopTime="0.00" timeLoss="3454.33" rerouteNo="0" devices="tripinfo_167799_425_0 routing_167799_425_0" vType="pkw" speedFactor="1.24" vaporized="end"/>
    <tripinfo id="130372_409_0" depart="25330.00" departLane="-32038056#3_0" departPos="4.40" departSpeed="0.00" departDelay="3.00" arrival="-1.00" arrivalLane="" arrivalPos="-1.00" arrivalSpeed="-1.00" duration="3470.00" routeLength="299.42" waitingTime="3437.00" waitingCount="1" stopTime="0.00" timeLoss="3443.53" rerouteNo="0" devices="tripinfo_130372_409_0 routing_130372_409_0" vType="pkw" speedFactor="0.85" vaporized="end"/>
    <tripinfo id="104806_398_0" depart="25332.00" departLane="-32038056#3_0" departPos="4.40" departSpeed="0.00" departDelay="3.00" arrival="-1.00" arrivalLane="" arrivalPos="-1.00" arrivalSpeed="-1.00" duration="3468.00" routeLength="293.62" waitingTime="3434.00" waitingCount="1" stopTime="0.00" timeLoss="3441.57" rerouteNo="0" devices="tripinfo_104806_398_0 routing_104806_398_0" vType="pkw" speedFactor="0.83" vaporized="end"/>