<?xml version="1.0" encoding="UTF-8"?>

<!-- generated on 2023-08-31 13:19:30 by Eclipse SUMO libsumo Version 1.18.0
<configuration xmlns:xsi="http://www.w3.org/2001/XMLSchema-instance" xsi:noNamespaceSchemaLocation="http://sumo.dlr.de/xsd/libsumoConfiguration.xsd">

    <input>
        <net-file value="/home/stefan/RESCO/./environments/cologne1/cologne1.net.xml"/>
        <route-files value="/home/stefan/RESCO/./environments/cologne1/cologne1.rou.xml"/>
    </input>

    <output>
        <tripinfo-output value="/home/stefan/results/RAINBOW-tr0-cologne1-0-drq_norm-wait_norm/tripinfo_81.xml"/>
        <tripinfo-output.write-unfinished value="true"/>
    </output>

    <time>
        <begin value="25200"/>
        <end value="28800"/>
    </time>

    <processing>
        <time-to-teleport value="-1"/>
    </processing>

    <report>
        <no-warnings value="True"/>
        <no-step-log value="True"/>
    </report>

    <random_number>
        <random value="true"/>
    </random_number>

</configuration>
-->

<tripinfos xmlns:xsi="http://www.w3.org/2001/XMLSchema-instance" xsi:noNamespaceSchemaLocation="http://sumo.dlr.de/xsd/tripinfo_file.xsd">
    <tripinfo id="124779_406_0" depart="25205.00" departLane="28198821#3_0" departPos="4.40" departSpeed="0.00" departDelay="0.00" arrival="25228.00" arrivalLane="32038051#0_1" arrivalPos="89.25" arrivalSpeed="19.02" duration="23.00" routeLength="170.57" waitingTime="5.00" waitingCount="1" stopTime="0.00" timeLoss="12.41" rerouteNo="0" devices="tripinfo_124779_406_0 routing_124779_406_0" vType="pkw" speedFactor="0.98" vaporized=""/>
    <tripinfo id="98305_395_0" depart="25211.00" departLane="28198821#3_0" departPos="4.40" departSpeed="0.00" departDelay="0.00" arrival="25239.00" arrivalLane="32038051#0_1" arrivalPos="89.25" arrivalSpeed="18.54" duration="28.00" routeLength="170.57" waitingTime="5.00" waitingCount="1" stopTime="0.00" timeLoss="17.63" rerouteNo="0" devices="tripinfo_98305_395_0 routing_98305_395_0" vType="pkw" speedFactor="1.00" vaporized=""/>
    <tripinfo id="151372_418_0" depart="25207.00" departLane="130165204_0" departPos="4.40" departSpeed="0.00" departDelay="0.00" arrival="25242.00" arrivalLane="32038051#0_1" arrivalPos="89.25" arrivalSpeed="20.98" duration="35.00" routeLength="410.03" waitingTime="0.00" waitingCount="0" stopTime="0.00" timeLoss="11.08" rerouteNo="1" devices="tripinfo_151372_418_0 routing_151372_418_0" vType="pkw" speedFactor="1.12" vaporized=""/>
    <tripinfo id="102535_396_0" depart="25218.00" departLane="28198821#3_0" departPos="4.40" departSpeed="0.00" departDelay="0.00" arrival="25248.00" arrivalLane="32038051#0_1" arrivalPos="89.25" arrivalSpeed="20.63" duration="30.00" routeLength="170.57" waitingTime="6.00" waitingCount="2" stopTime="0.00" timeLoss="20.94" rerouteNo="0" devices="tripinfo_102535_396_0 routing_102535_396_0" vType="pkw" speedFactor="1.12" vaporized=""/>
    <tripinfo id="149029_417_0" depart="25236.00" departLane="27115123#2_0" departPos="4.40" departSpeed="0.00" departDelay="0.00" arrival="25251.00" arrivalLane="32038051#0_1" arrivalPos="89.25" arrivalSpeed="17.65" duration="15.00" routeLength="196.41" waitingTime="0.00" waitingCount="0" stopTime="0.00" timeLoss="3.64" rerouteNo="1" devices="tripinfo_149029_417_0 routing_149029_417_0" vType="pkw" speedFactor="0.93" vaporized=""/>
    <tripinfo id="91582_392_0" depart="25220.00" departLane="-32038056#3_0" departPos="4.40" departSpeed="0.00" departDelay="2.00" arrival="25257.00" arrivalLane="32324544#0_1" arrivalPos="90.48" arrivalSpeed="19.07" duration="37.00" routeLength="465.51" waitingTime="0.00" waitingCount="0" stopTime="0.00" timeLoss="4.47" rerouteNo="0" devices="tripinfo_91582_392_0 routing_91582_392_0" vType="pkw" speedFactor="0.98" vaporized=""/>
    <tripinfo id="123965_406_0" depart="25218.00" departLane="-32038056#3_0" departPos="4.40" departSpeed="0.00" departDelay="0.00" arrival="25258.00" arrivalLane="-28198821#4_0" arrivalPos="57.10" arrivalSpeed="12.28" duration="40.00" routeLength="437.47" waitingTime="0.00" waitingCount="0" stopTime="0.00" timeLoss="3.80" rerouteNo="0" devices="tripinfo_123965_406_0 routing_123965_406_0" vType="pkw" speedFactor="0.89" vaporized=""/>
    <tripinfo id="147209_416_0" depart="25220.00" departLane="28198821#3_0" departPos="4.40" departSpeed="0.00" departDelay="0.00" arrival="25262.00" arrivalLane="32038051#0_1" arrivalPos="89.25" arrivalSpeed="17.80" duration="42.00" routeLength="170.57" waitingTime="10.00" waitingCount="2" stopTime="0.00" timeLoss="30.85" rerouteNo="0" devices="tripinfo_147209_416_0 routing_147209_416_0" vType="pkw" speedFactor="0.94" vaporized=""/>
    <tripinfo id="160150_421_0" depart="25223.00" departLane="-32038056#3_0" departPos="4.40" departSpeed="0.00" departDelay="4.00" arrival="25267.00" arrivalLane="32038051#0_0" arrivalPos="89.25" arrivalSpeed="16.76" duration="44.00" routeLength="446.95" waitingTime="0.00" waitingCount="0" stopTime="0.00" timeLoss="8.96" rerouteNo="0" devices="tripinfo_160150_421_0 routing_160150_421_0" vType="pkw" speedFactor="0.86" vaporized=""/>
    <tripinfo id="162814_422_0" depart="25233.00" departLane="-32038056#3_0" departPos="4.40" departSpeed="0.00" departDelay="0.00" arrival="25278.00" arrivalLane="32038051#0_0" arrivalPos="89.25" arrivalSpeed="20.05" duration="45.00" routeLength="446.95" waitingTime="3.00" waitingCount="1" stopTime="0.00" timeLoss="15.89" rerouteNo="0" devices="tripinfo_162814_422_0 routing_162814_422_0" vType="pkw" speedFactor="1.05" vaporized=""/>
    <tripinfo id="130602_409_0" depart="25268.00" departLane="-32038056#3_0" departPos="4.40" departSpeed="0.00" departDelay="0.00" arrival="25319.00" arrivalLane="-28198821#4_0" arrivalPos="57.10" arrivalSpeed="11.38" duration="51.00" routeLength="437.47" waitingTime="3.00" waitingCount="1" stopTime="0.00" timeLoss="12.47" rerouteNo="0" devices="tripinfo_130602_409_0 routing_130602_409_0" vType="pkw" speedFactor="0.83" vaporized=""/>
    <tripinfo id="128446_408_0" depart="25273.00" departLane="-32038056#3_0" departPos="4.40" departSpeed="0.00" departDelay="0.00" arrival="25319.00" arrivalLane="32324544#0_1" arrivalPos="90.48" arrivalSpeed="18.87" duration="46.00" routeLength="465.51" waitingTime="3.00" waitingCount="1" stopTime="0.00" timeLoss="14.08" rerouteNo="0" devices="tripinfo_128446_408_0 routing_128446_408_0" vType="pkw" speedFactor="1.00" vaporized=""/>
    <tripinfo id="115444_403_0" depart="25294.00" departLane="28198821#3_0" departPos="4.40" departSpeed="0.00" departDelay="0.00" arrival="25319.00" arrivalLane="32038051#0_1" arrivalPos="89.25" arrivalSpeed="18.99" duration="25.00" routeLength="170.57" waitingTime="5.00" waitingCount="1" stopTime="0.00" timeLoss="14.53" rerouteNo="0" devices="tripinfo_115444_403_0 routing_115444_403_0" vType="pkw" speedFactor="0.98" vaporized=""/>
    <tripinfo id="136082_411_0" depart="25278.00" departLane="-32038056#3_0" departPos="4.40" departSpeed="0.00" departDelay="1.00" arrival="25328.00" arrivalLane="32038051#0_0" arrivalPos="89.25" arrivalSpeed="20.15" duration="50.00" routeLength="446.95" waitingTime="5.00" waitingCount="1" stopTime="0.00" timeLoss="21.13" rerouteNo="0" devices="tripinfo_136082_411_0 routing_136082_411_0" vType="pkw" speedFactor="1.07" vaporized=""/>
    <tripinfo id="83516_390_0" depart="25276.00" departLane="-32038056#3_0" departPos="4.40" departSpeed="0.00" departDelay="1.00" arrival="25329.00" arrivalLane="32324544#0_1" arrivalPos="90.48" arrivalSpeed="19.42" duration="53.00" routeLength="465.51" waitingTime="7.00" waitingCount="2" stopTime="0.00" timeLoss="22.86" rerouteNo="0" devices="tripinfo_83516_390_0 routing_83516_390_0" vType="pkw" speedFactor="1.05" vaporized=""/>
    <tripinfo id="103540_397_0" depart="25300.00" departLane="28198821#3_0" departPos="4.40" departSpeed="0.00" departDelay="0.00" arrival="25330.00" arrivalLane="32038051#0_1" arrivalPos="89.25" arrivalSpeed="15.42" duration="30.00" routeLength="170.57" waitingTime="6.00" waitingCount="1" stopTime="0.00" timeLoss="17.58" rerouteNo="0" devices="tripinfo_103540_397_0 routing_103540_397_0" vType="pkw" speedFactor="0.85" vaporized=""/>
    <tripinfo id="85818_390_0" depart="25281.00" departLane="-32038056#3_0" departPos="4.40" departSpeed="0.00" departDelay="1.00" arrival="25339.00" arrivalLane="32038051#0_0" arrivalPos="89.25" arrivalSpeed="20.97" duration="58.00" routeLength="446.95" waitingTime="9.00" waitingCount="2" stopTime="0.00" timeLoss="30.46" rerouteNo="0" devices="tripinfo_85818_390_0 routing_85818_390_0" vType="pkw" speedFactor="1.13" vaporized=""/>
    <tripinfo id="113303_402_0" depart="25284.00" departLane="-32038056#3_0" departPos="4.40" departSpeed="0.00" departDelay="1.00" arrival="25339.00" arrivalLane="32324544#0_1" arrivalPos="90.48" arrivalSpeed="18.57" duration="55.00" routeLength="465.51" waitingTime="9.00" waitingCount="2" stopTime="0.00" timeLoss="21.55" rerouteNo="0" devices="tripinfo_113303_402_0 routing_113303_402_0" vType="pkw" speedFactor="0.96" vaporized=""/>
    <tripinfo id="162096_421_0" depart="25306.00" departLane="130165204_0" departPos="4.40" departSpeed="0.00" departDelay="0.00" arrival="25339.00" arrivalLane="32038051#0_1" arrivalPos="89.25" arrivalSpeed="18.51" duration="33.00" routeLength="410.03" waitingTime="0.00" waitingCount="0" stopTime="0.00" timeLoss="7.17" rerouteNo="1" devices="tripinfo_162096_421_0 routing_162096_421_0" vType="pkw" speedFactor="1.02" vaporized=""/>
    <tripinfo id="86583_391_0" depart="25289.00" departLane="-32038056#3_0" departPos="4.40" departSpeed="0.00" departDelay="0.00" arrival="25348.00" arrivalLane="32038051#0_0" arrivalPos="89.25" arrivalSpeed="18.18" duration="59.00" routeLength="446.95" waitingTime="10.00" waitingCount="2" stopTime="0.00" timeLoss="27.69" rerouteNo="0" devices="tripinfo_86583_391_0 routing_86583_391_0" vType="pkw" speedFactor="0.97" vaporized=""/>
    <tripinfo id="137244_412_0" depart="25297.00" departLane="-32038056#3_0" departPos="4.40" departSpeed="0.00" departDelay="3.00" arrival="25348.00" arrivalLane="-28198821#4_0" arrivalPos="57.10" arrivalSpeed="12.78" duration="51.00" routeLength="437.47" waitingTime="7.00" waitingCount="2" stopTime="0.00" timeLoss="19.00" rerouteNo="0" devices="tripinfo_137244_412_0 routing_137244_412_0" vType="pkw" speedFactor="1.00" vaporized=""/>
    <tripinfo id="138220_412_0" depart="25309.00" departLane="-32038056#3_0" departPos="4.40" departSpeed="0.00" departDelay="0.00" arrival="25357.00" arrivalLane="-28198821#4_1" arrivalPos="57.10" arrivalSpeed="15.37" duration="48.00" routeLength="437.47" waitingTime="5.00" waitingCount="1" stopTime="0.00" timeLoss="20.44" rerouteNo="0" devices="tripinfo_138220_412_0 routing_138220_412_0" vType="pkw" speedFactor="1.14" vaporized=""/>
    <tripinfo id="120878_405_0" depart="25292.00" departLane="-32038056#3_0" departPos="4.40" departSpeed="0.00" departDelay="1.00" arrival="25358.00" arrivalLane="32038051#0_0" arrivalPos="89.25" arrivalSpeed="20.04" duration="66.00" routeLength="446.95" waitingTime="13.00" waitingCount="3" stopTime="0.00" timeLoss="39.83" rerouteNo="0" devices="tripinfo_120878_405_0 routing_120878_405_0" vType="pkw" speedFactor="1.17" vaporized=""/>
    <tripinfo id="175147_428_0" depart="25324.00" departLane="130165204_0" departPos="4.40" departSpeed="0.00" departDelay="0.00" arrival="25361.00" arrivalLane="32038051#0_1" arrivalPos="89.25" arrivalSpeed="17.56" duration="37.00" routeLength="410.03" waitingTime="0.00" waitingCount="0" stopTime="0.00" timeLoss="8.72" rerouteNo="1" devices="tripinfo_175147_428_0 routing_175147_428_0" vType="pkw" speedFactor="0.94" vaporized=""/>
    <tripinfo id="142412_415_0" depart="25307.00" departLane="-32038056#3_0" departPos="4.40" departSpeed="0.00" departDelay="0.00" arrival="25368.00" arrivalLane="-28198821#4_1" arrivalPos="57.10" arrivalSpeed="12.39" duration="61.00" routeLength="437.47" waitingTime="8.00" waitingCount="2" stopTime="0.00" timeLoss="27.98" rerouteNo="0" devices="tripinfo_142412_415_0 routing_142412_415_0" vType="pkw" speedFactor="0.96" vaporized=""/>
    <tripinfo id="85922_391_0" depart="25295.00" departLane="-32038056#3_0" departPos="4.40" departSpeed="0.00" departDelay="2.00" arrival="25369.00" arrivalLane="32038051#0_0" arrivalPos="89.25" arrivalSpeed="19.39" duration="74.00" routeLength="446.95" waitingTime="16.00" waitingCount="4" stopTime="0.00" timeLoss="44.71" rerouteNo="0" devices="tripinfo_85922_391_0 routing_85922_391_0" vType="pkw" speedFactor="1.06" vaporized=""/>
    <tripinfo id="161721_421_0" depart="25337.00" departLane="130165204_0" departPos="4.40" departSpeed="0.00" departDelay="0.00" arrival="25370.00" arrivalLane="32038051#0_1" arrivalPos="89.25" arrivalSpeed="22.38" duration="33.00" routeLength="410.03" waitingTime="0.00" waitingCount="0" stopTime="0.00" timeLoss="10.33" rerouteNo="1" devices="tripinfo_161721_421_0 routing_161721_421_0" vType="pkw" speedFactor="1.21" vaporized=""/>
    <tripinfo id="118963_405_0" depart="25304.00" departLane="-32038056#3_0" departPos="4.40" departSpeed="0.00" departDelay="0.00" arrival="25378.00" arrivalLane="32038051#0_0" arrivalPos="89.25" arrivalSpeed="18.75" duration="74.00" routeLength="446.95" waitingTime="17.00" waitingCount="4" stopTime="0.00" timeLoss="44.03" rerouteNo="0" devices="tripinfo_118963_405_0 routing_118963_405_0" vType="pkw" speedFactor="1.01" vaporized=""/>
    <tripinfo id="130372_409_0" depart="25330.00" departLane="-32038056#3_0" departPos="4.40" departSpeed="0.00" departDelay="3.00" arrival="25379.00" arrivalLane="32324544#0_1" arrivalPos="90.48" arrivalSpeed="19.95" duration="49.00" routeLength="465.51" waitingTime="5.00" waitingCount="1" stopTime="0.00" timeLoss="18.83" rerouteNo="0" devices="tripinfo_130372_409_0 routing_130372_409_0" vType="pkw" speedFactor="1.06" vaporized=""/>
    <tripinfo id="136152_411_0" depart="25313.00" departLane="-32038056#3_0" departPos="4.40" departSpeed="0.00" departDelay="0.00" arrival="25389.00" arrivalLane="32038051#0_0" arrivalPos="89.25" arrivalSpeed="20.67" duration="76.00" routeLength="446.95" waitingTime="16.00" waitingCount="4" stopTime="0.00" timeLoss="47.20" rerouteNo="0" devices="tripinfo_136152_411_0 routing_136152_411_0" vType="pkw" speedFactor="1.08" vaporized=""/>
    <tripinfo id="104806_398_0" depart="25333.00" departLane="-32038056#3_0" departPos="4.40" departSpeed="0.00" departDelay="4.00" arrival="25389.00" arrivalLane="32324544#0_1" arrivalPos="90.48" arrivalSpeed="20.22" duration="56.00" routeLength="465.51" waitingTime="9.00" waitingCount="2" stopTime="0.00" timeLoss="25.98" rerouteNo="0" devices="tripinfo_104806_398_0 routing_104806_398_0" vType="pkw" speedFactor="1.07" vaporized=""/>
    <tripinfo id="122154_406_0" depart="25337.00" departLane="-32038056#3_0" departPos="4.40" departSpeed="0.00" departDelay="0.00" arrival="25398.00" arrivalLane="-28198821#4_1" arrivalPos="57.10" arrivalSpeed="14.68" duration="61.00" routeLength="437.47" waitingTime="13.00" waitingCount="3" stopTime="0.00" timeLoss="31.73" rerouteNo="0" devices="tripinfo_122154_406_0 routing_122154_406_0" vType="pkw" speedFactor="1.10" vaporized=""/>
    <tripinfo id="167799_425_0" depart="25327.00" departLane="-32038056#3_0" departPos="4.40" departSpeed="0.00" departDelay="0.00" arrival="25399.00" arrivalLane="-28198821#4_0" arrivalPos="57.10" arrivalSpeed="11.18" duration="72.00" routeLength="437.47" waitingTime="11.00" waitingCount="3" stopTime="0.00" timeLoss="33.42" rerouteNo="0" devices="tripinfo_167799_425_0 routing_167799_425_0" vType="pkw" speedFactor="0.82" vaporized=""/>
    <tripinfo id="121091_405_0" depart="25345.00" departLane="-32038056#3_0" departPos="4.40" departSpeed="0.00" departDelay="0.00" arrival="25408.00" arrivalLane="32038051#0_0" arrivalPos="89.25" arrivalSpeed="17.34" duration="63.00" routeLength="446.95" waitingTime="11.00" waitingCount="3" stopTime="0.00" timeLoss="29.85" rerouteNo="0" devices="tripinfo_121091_405_0 routing_121091_405_0" vType="pkw" speedFactor="0.92" vaporized=""/>
    <tripinfo id="150753_418_0" depart="25353.00" departLane="-32038056#3_0" departPos="4.40" departSpeed="0.00" departDelay="2.00" arrival="25409.00" arrivalLane="32324544#0_1" arrivalPos="90.48" arrivalSpeed="18.64" duration="56.00" routeLength="465.51" waitingTime="9.00" waitingCount="2" stopTime="0.00" timeLoss="23.23" rerouteNo="0" devices="tripinfo_150753_418_0 routing_150753_418_0" vType="pkw" speedFactor="0.96" vaporized=""/>
    <tripinfo id="169772_426_0" depart="25348.00" departLane="-32038056#3_0" departPos="4.40" departSpeed="0.00" departDelay="1.00" arrival="25418.00" arrivalLane="32038051#0_0" arrivalPos="89.25" arrivalSpeed="18.60" duration="70.00" routeLength="446.95" waitingTime="13.00" waitingCount="3" stopTime="0.00" timeLoss="39.46" rerouteNo="0" devices="tripinfo_169772_426_0 routing_169772_426_0" vType="pkw" speedFactor="1.01" vaporized=""/>
    <tripinfo id="135138_411_0" depart="25350.00" departLane="-32038056#3_0" departPos="4.40" departSpeed="0.00" departDelay="1.00" arrival="25418.00" arrivalLane="-28198821#4_1" arrivalPos="57.10" arrivalSpeed="12.06" duration="68.00" routeLength="437.47" waitingTime="13.00" waitingCount="3" stopTime="0.00" timeLoss="33.67" rerouteNo="0" devices="tripinfo_135138_411_0 routing_135138_411_0" vType="pkw" speedFactor="0.92" vaporized=""/>
    <tripinfo id="114183_402_0" depart="25359.00" departLane="-32038056#3_0" departPos="4.40" departSpeed="0.00" departDelay="0.00" arrival="25428.00" arrivalLane="32038051#0_0" arrivalPos="89.25" arrivalSpeed="17.87" duration="69.00" routeLength="446.95" waitingTime="15.00" waitingCount="4" stopTime="0.00" timeLoss="36.64" rerouteNo="0" devices="tripinfo_114183_402_0 routing_114183_402_0" vType="pkw" speedFactor="0.95" vaporized=""/>
    <tripinfo id="148536_417_0" depart="25362.00" departLane="-32038056#3_0" departPos="4.40" departSpeed="0.00" departDelay="1.00" arrival="25430.00" arrivalLane="32324544#0_1" arrivalPos="90.48" arrivalSpeed="20.02" duration="68.00" routeLength="465.51" waitingTime="15.00" waitingCount="3" stopTime="0.00" timeLoss="37.75" rerouteNo="0" devices="tripinfo_148536_417_0 routing_148536_417_0" vType="pkw" speedFactor="1.04" vaporized=""/>
    <tripinfo id="120618_405_0" depart="25365.00" departLane="-32038056#3_0" departPos="4.40" departSpeed="0.00" departDelay="2.00" arrival="25438.00" arrivalLane="32038051#0_0" arrivalPos="89.25" arrivalSpeed="18.27" duration="73.00" routeLength="446.95" waitingTime="18.00" waitingCount="4" stopTime="0.00" timeLoss="40.76" rerouteNo="0" devices="tripinfo_120618_405_0 routing_120618_405_0" vType="pkw" speedFactor="0.95" vaporized=""/>
    <tripinfo id="167170_425_0" depart="25367.00" departLane="-32038056#3_0" departPos="4.40" departSpeed="0.00" departDelay="3.00" arrival="25438.00" arrivalLane="-28198821#4_1" arrivalPos="57.10" arrivalSpeed="14.57" duration="71.00" routeLength="437.47" waitingTime="16.00" waitingCount="4" stopTime="0.00" timeLoss="41.63" rerouteNo="0" devices="tripinfo_167170_425_0 routing_167170_425_0" vType="pkw" speedFactor="1.10" vaporized=""/>
    <tripinfo id="165043_423_0" depart="25370.00" departLane="-32038056#3_0" departPos="4.40" departSpeed="0.00" departDelay="4.00" arrival="25449.00" arrivalLane="32324544#0_1" arrivalPos="90.48" arrivalSpeed="18.81" duration="79.00" routeLength="465.51" waitingTime="15.00" waitingCount="5" stopTime="0.00" timeLoss="48.44" rerouteNo="0" devices="tripinfo_165043_423_0 routing_165043_423_0" vType="pkw" speedFactor="1.03" vaporized=""/>
    <tripinfo id="137508_412_0" depart="25373.00" departLane="-32038056#3_0" departPos="4.40" departSpeed="0.00" departDelay="6.00" arrival="25449.00" arrivalLane="32038051#0_0" arrivalPos="89.25" arrivalSpeed="16.86" duration="76.00" routeLength="446.95" waitingTime="15.00" waitingCount="4" stopTime="0.00" timeLoss="42.45" rerouteNo="0" devices="tripinfo_137508_412_0 routing_137508_412_0" vType="pkw" speedFactor="0.92" vaporized=""/>
    <tripinfo id="163503_422_0" depart="25385.00" departLane="-32038056#3_0" departPos="4.40" departSpeed="0.00" departDelay="10.00" arrival="25458.00" arrivalLane="-28198821#4_0" arrivalPos="57.10" arrivalSpeed="14.67" duration="73.00" routeLength="437.47" waitingTime="16.00" waitingCount="4" stopTime="0.00" timeLoss="42.75" rerouteNo="0" devices="tripinfo_163503_422_0 routing_163503_422_0" vType="pkw" speedFactor="1.06" vaporized=""/>
    <tripinfo id="173487_427_0" depart="25375.00" departLane="-32038056#3_0" departPos="4.40" departSpeed="0.00" departDelay="6.00" arrival="25459.00" arrivalLane="32038051#0_0" arrivalPos="89.25" arrivalSpeed="14.90" duration="84.00" routeLength="446.95" waitingTime="15.00" waitingCount="5" stopTime="0.00" timeLoss="44.68" rerouteNo="0" devices="tripinfo_173487_427_0 routing_173487_427_0" vType="pkw" speedFactor="0.78" vaporized=""/>
    <tripinfo id="95948_394_0" depart="25387.00" departLane="-32038056#3_0" departPos="4.40" departSpeed="0.00" departDelay="11.00" arrival="25468.00" arrivalLane="-28198821#4_1" arrivalPos="57.10" arrivalSpeed="13.20" duration="81.00" routeLength="437.47" waitingTime="19.00" waitingCount="5" stopTime="0.00" timeLoss="49.43" rerouteNo="0" devices="tripinfo_95948_394_0 routing_95948_394_0" vType="pkw" speedFactor="1.00" vaporized=""/>
    <tripinfo id="162547_422_0" depart="25378.00" departLane="-32038056#3_0" departPos="4.40" departSpeed="0.00" departDelay="8.00" arrival="25469.00" arrivalLane="32038051#0_0" arrivalPos="89.25" arrivalSpeed="15.19" duration="91.00" routeLength="446.95" waitingTime="19.00" waitingCount="6" stopTime="0.00" timeLoss="54.36" rerouteNo="0" devices="tripinfo_162547_422_0 routing_162547_422_0" vType="pkw" speedFactor="0.83" vaporized=""/>
    <tripinfo id="171810_426_0" depart="25381.00" departLane="-32038056#3_0" departPos="4.40" departSpeed="0.00" departDelay="9.00" arrival="25478.00" arrivalLane="32038051#0_0" arrivalPos="89.25" arrivalSpeed="17.00" duration="97.00" routeLength="446.95" waitingTime="20.00" waitingCount="7" stopTime="0.00" timeLoss="63.78" rerouteNo="0" devices="tripinfo_171810_426_0 routing_171810_426_0" vType="pkw" speedFactor="0.91" vaporized=""/>
    <tripinfo id="115620_403_0" depart="25390.00" departLane="-32038056#3_0" departPos="4.40" departSpeed="0.00" departDelay="13.00" arrival="25478.00" arrivalLane="-28198821#4_0" arrivalPos="57.10" arrivalSpeed="13.70" duration="88.00" routeLength="437.47" waitingTime="21.00" waitingCount="6" stopTime="0.00" timeLoss="56.44" rerouteNo="0" devices="tripinfo_115620_403_0 routing_115620_403_0" vType="pkw" speedFactor="1.00" vaporized=""/>
    <tripinfo id="127513_407_0" depart="25393.00" departLane="-32038056#3_0" departPos="4.40" departSpeed="0.00" departDelay="15.00" arrival="25488.00" arrivalLane="-28198821#4_0" arrivalPos="57.10" arrivalSpeed="14.23" duration="95.00" routeLength="437.47" waitingTime="20.00" waitingCount="7" stopTime="0.00" timeLoss="64.35" rerouteNo="0" devices="tripinfo_127513_407_0 routing_127513_407_0" vType="pkw" speedFactor="1.04" vaporized=""/>
    <tripinfo id="163150_422_0" depart="25408.00" departLane="-32038056#3_0" departPos="4.40" departSpeed="0.00" departDelay="15.00" arrival="25489.00" arrivalLane="32324544#0_1" arrivalPos="90.48" arrivalSpeed="19.60" duration="81.00" routeLength="465.51" waitingTime="19.00" waitingCount="5" stopTime="0.00" timeLoss="51.18" rerouteNo="0" devices="tripinfo_163150_422_0 routing_163150_422_0" vType="pkw" speedFactor="1.06" vaporized=""/>
    <tripinfo id="84424_390_0" depart="25397.00" departLane="-32038056#3_0" departPos="4.40" departSpeed="0.00" departDelay="17.00" arrival="25499.00" arrivalLane="32038051#0_0" arrivalPos="89.25" arrivalSpeed="17.86" duration="102.00" routeLength="446.95" waitingTime="16.00" waitingCount="7" stopTime="0.00" timeLoss="73.76" rerouteNo="0" devices="tripinfo_84424_390_0 routing_84424_390_0" vType="pkw" speedFactor="1.09" vaporized=""/>
    <tripinfo id="119040_405_0" depart="25402.00" departLane="-32038056#3_0" departPos="4.40" departSpeed="0.00" departDelay="16.00" arrival="25499.00" arrivalLane="-28198821#4_0" arrivalPos="57.10" arrivalSpeed="10.65" duration="97.00" routeLength="437.47" waitingTime="20.00" waitingCount="6" stopTime="0.00" timeLoss="59.30" rerouteNo="0" devices="tripinfo_119040_405_0 routing_119040_405_0" vType="pkw" speedFactor="0.84" vaporized=""/>
    <tripinfo id="100057_396_0" depart="25400.00" departLane="-32038056#3_0" departPos="4.40" departSpeed="0.00" departDelay="16.00" arrival="25508.00" arrivalLane="32038051#0_0" arrivalPos="89.25" arrivalSpeed="15.81" duration="108.00" routeLength="446.95" waitingTime="22.00" waitingCount="8" stopTime="0.00" timeLoss="72.39" rerouteNo="0" devices="tripinfo_100057_396_0 routing_100057_396_0" vType="pkw" speedFactor="0.85" vaporized=""/>
    <tripinfo id="105238_398_0" depart="25410.00" departLane="-32038056#3_0" departPos="4.40" departSpeed="0.00" departDelay="16.00" arrival="25510.00" arrivalLane="32324544#0_1" arrivalPos="90.48" arrivalSpeed="18.91" duration="100.00" routeLength="465.51" waitingTime="22.00" waitingCount="7" stopTime="0.00" timeLoss="68.48" rerouteNo="0" devices="tripinfo_105238_398_0 routing_105238_398_0" vType="pkw" speedFactor="1.02" vaporized=""/>
    <tripinfo id="92315_392_0" depart="25405.00" departLane="-32038056#3_0" departPos="4.40" departSpeed="0.00" departDelay="17.00" arrival="25518.00" arrivalLane="32038051#0_0" arrivalPos="89.25" arrivalSpeed="19.76" duration="113.00" routeLength="446.95" waitingTime="20.00" waitingCount="7" stopTime="0.00" timeLoss="84.04" rerouteNo="0" devices="tripinfo_92315_392_0 routing_92315_392_0" vType="pkw" speedFactor="1.07" vaporized=""/>
    <tripinfo id="139080_413_0" depart="25414.00" departLane="-32038056#3_0" departPos="4.40" departSpeed="0.00" departDelay="17.00" arrival="25519.00" arrivalLane="-28198821#4_0" arrivalPos="57.10" arrivalSpeed="12.10" duration="105.00" routeLength="437.47" waitingTime="22.00" waitingCount="7" stopTime="0.00" timeLoss="68.50" rerouteNo="0" devices="tripinfo_139080_413_0 routing_139080_413_0" vType="pkw" speedFactor="0.88" vaporized=""/>
    <tripinfo id="149846_417_0" depart="25416.00" departLane="-32038056#3_0" departPos="4.40" departSpeed="0.00" departDelay="18.00" arrival="25529.00" arrivalLane="32038051#0_0" arrivalPos="89.25" arrivalSpeed="18.26" duration="113.00" routeLength="446.95" waitingTime="17.00" waitingCount="8" stopTime="0.00" timeLoss="80.61" rerouteNo="0" devices="tripinfo_149846_417_0 routing_149846_417_0" vType="pkw" speedFactor="0.95" vaporized=""/>
    <tripinfo id="141862_415_0" depart="25425.00" departLane="-32038056#3_0" departPos="4.40" departSpeed="0.00" departDelay="14.00" arrival="25529.00" arrivalLane="-28198821#4_1" arrivalPos="57.10" arrivalSpeed="12.21" duration="104.00" routeLength="437.47" waitingTime="25.00" waitingCount="8" stopTime="0.00" timeLoss="69.34" rerouteNo="0" devices="tripinfo_141862_415_0 routing_141862_415_0" vType="pkw" speedFactor="0.93" vaporized=""/>
    <tripinfo id="100926_396_0" depart="25419.00" departLane="-32038056#3_0" departPos="4.40" departSpeed="0.00" departDelay="19.00" arrival="25538.00" arrivalLane="32038051#0_0" arrivalPos="89.25" arrivalSpeed="17.26" duration="119.00" routeLength="446.95" waitingTime="21.00" waitingCount="8" stopTime="0.00" timeLoss="86.83" rerouteNo="0" devices="tripinfo_100926_396_0 routing_100926_396_0" vType="pkw" speedFactor="0.94" vaporized=""/>
    <tripinfo id="114134_402_0" depart="25428.00" departLane="-32038056#3_0" departPos="4.40" departSpeed="0.00" departDelay="15.00" arrival="25539.00" arrivalLane="32324544#0_1" arrivalPos="90.48" arrivalSpeed="17.68" duration="111.00" routeLength="465.51" waitingTime="24.00" waitingCount="7" stopTime="0.00" timeLoss="76.56" rerouteNo="0" devices="tripinfo_114134_402_0 routing_114134_402_0" vType="pkw" speedFactor="0.92" vaporized=""/>
    <tripinfo id="145157_416_0" depart="25422.00" departLane="-32038056#3_0" departPos="4.40" departSpeed="0.00" departDelay="12.00" arrival="25548.00" arrivalLane="32038051#0_0" arrivalPos="89.25" arrivalSpeed="16.99" duration="126.00" routeLength="446.95" waitingTime="21.00" waitingCount="6" stopTime="0.00" timeLoss="93.22" rerouteNo="0" devices="tripinfo_145157_416_0 routing_145157_416_0" vType="pkw" speedFactor="0.92" vaporized=""/>
    <tripinfo id="176093_428_0" depart="25430.00" departLane="-32038056#3_0" departPos="4.40" departSpeed="0.00" departDelay="13.00" arrival="25548.00" arrivalLane="-28198821#4_1" arrivalPos="57.10" arrivalSpeed="13.76" duration="118.00" routeLength="437.47" waitingTime="29.00" waitingCount="8" stopTime="0.00" timeLoss="88.55" rerouteNo="0" devices="tripinfo_176093_428_0 routing_176093_428_0" vType="pkw" speedFactor="1.08" vaporized=""/>
    <tripinfo id="121964_406_0" depart="25433.00" departLane="-32038056#3_0" departPos="4.40" departSpeed="0.00" departDelay="15.00" arrival="25558.00" arrivalLane="32038051#0_0" arrivalPos="89.25" arrivalSpeed="20.05" duration="125.00" routeLength="446.95" waitingTime="20.00" waitingCount="7" stopTime="0.00" timeLoss="95.26" rerouteNo="0" devices="tripinfo_121964_406_0 routing_121964_406_0" vType="pkw" speedFactor="1.03" vaporized=""/>
    <tripinfo id="121832_406_0" depart="25439.00" departLane="-32038056#3_0" departPos="4.40" departSpeed="0.00" departDelay="11.00" arrival="25558.00" arrivalLane="-28198821#4_0" arrivalPos="57.10" arrivalSpeed="12.28" duration="119.00" routeLength="437.47" waitingTime="26.00" waitingCount="8" stopTime="0.00" timeLoss="85.31" rerouteNo="0" devices="tripinfo_121832_406_0 routing_121832_406_0" vType="pkw" speedFactor="0.94" vaporized=""/>