<?xml version="1.0" encoding="UTF-8"?>

<!-- generated on 2023-08-31 13:18:11 by Eclipse SUMO libsumo Version 1.18.0
<configuration xmlns:xsi="http://www.w3.org/2001/XMLSchema-instance" xsi:noNamespaceSchemaLocation="http://sumo.dlr.de/xsd/libsumoConfiguration.xsd">

    <input>
        <net-file value="/home/stefan/RESCO/./environments/cologne1/cologne1.net.xml"/>
        <route-files value="/home/stefan/RESCO/./environments/cologne1/cologne1.rou.xml"/>
    </input>

    <output>
        <tripinfo-output value="/home/stefan/results/RAINBOW-tr0-cologne1-0-drq_norm-wait_norm/tripinfo_67.xml"/>
        <tripinfo-output.write-unfinished value="true"/>
    </output>

    <time>
        <begin value="25200"/>
        <end value="28800"/>
    </time>

    <processing>
        <time-to-teleport value="-1"/>
    </processing>

    <report>
        <no-warnings value="True"/>
        <no-step-log value="True"/>
    </report>

    <random_number>
        <random value="true"/>
    </random_number>

</configuration>
-->

<tripinfos xmlns:xsi="http://www.w3.org/2001/XMLSchema-instance" xsi:noNamespaceSchemaLocation="http://sumo.dlr.de/xsd/tripinfo_file.xsd">
    <tripinfo id="124779_406_0" depart="25205.00" departLane="28198821#3_0" departPos="4.40" departSpeed="0.00" departDelay="0.00" arrival="25229.00" arrivalLane="32038051#0_1" arrivalPos="89.25" arrivalSpeed="16.30" duration="24.00" routeLength="170.57" waitingTime="3.00" waitingCount="1" stopTime="0.00" timeLoss="12.14" rerouteNo="0" devices="tripinfo_124779_406_0 routing_124779_406_0" vType="pkw" speedFactor="0.86" vaporized=""/>
    <tripinfo id="98305_395_0" depart="25211.00" departLane="28198821#3_0" departPos="4.40" departSpeed="0.00" departDelay="0.00" arrival="25231.00" arrivalLane="32038051#0_1" arrivalPos="89.25" arrivalSpeed="18.97" duration="20.00" routeLength="170.57" waitingTime="0.00" waitingCount="0" stopTime="0.00" timeLoss="9.91" rerouteNo="0" devices="tripinfo_98305_395_0 routing_98305_395_0" vType="pkw" speedFactor="1.00" vaporized=""/>
    <tripinfo id="102535_396_0" depart="25218.00" departLane="28198821#3_0" departPos="4.40" departSpeed="0.00" departDelay="0.00" arrival="25234.00" arrivalLane="32038051#0_1" arrivalPos="89.25" arrivalSpeed="15.94" duration="16.00" routeLength="170.57" waitingTime="0.00" waitingCount="0" stopTime="0.00" timeLoss="3.76" rerouteNo="0" devices="tripinfo_102535_396_0 routing_102535_396_0" vType="pkw" speedFactor="0.86" vaporized=""/>
    <tripinfo id="147209_416_0" depart="25220.00" departLane="28198821#3_0" departPos="4.40" departSpeed="0.00" departDelay="0.00" arrival="25237.00" arrivalLane="32038051#0_1" arrivalPos="89.25" arrivalSpeed="16.34" duration="17.00" routeLength="170.57" waitingTime="0.00" waitingCount="0" stopTime="0.00" timeLoss="5.58" rerouteNo="0" devices="tripinfo_147209_416_0 routing_147209_416_0" vType="pkw" speedFactor="0.87" vaporized=""/>
    <tripinfo id="151372_418_0" depart="25207.00" departLane="130165204_0" departPos="4.40" departSpeed="0.00" departDelay="0.00" arrival="25249.00" arrivalLane="32038051#0_1" arrivalPos="89.25" arrivalSpeed="19.80" duration="42.00" routeLength="410.03" waitingTime="2.00" waitingCount="1" stopTime="0.00" timeLoss="17.30" rerouteNo="1" devices="tripinfo_151372_418_0 routing_151372_418_0" vType="pkw" speedFactor="1.07" vaporized=""/>
    <tripinfo id="149029_417_0" depart="25236.00" departLane="27115123#2_0" departPos="4.40" departSpeed="0.00" departDelay="0.00" arrival="25258.00" arrivalLane="32038051#0_1" arrivalPos="89.25" arrivalSpeed="20.39" duration="22.00" routeLength="196.41" waitingTime="1.00" waitingCount="1" stopTime="0.00" timeLoss="12.50" rerouteNo="1" devices="tripinfo_149029_417_0 routing_149029_417_0" vType="pkw" speedFactor="1.10" vaporized=""/>
    <tripinfo id="91582_392_0" depart="25220.00" departLane="-32038056#3_0" departPos="4.40" departSpeed="0.00" departDelay="2.00" arrival="25261.00" arrivalLane="32324544#0_1" arrivalPos="90.48" arrivalSpeed="17.02" duration="41.00" routeLength="465.51" waitingTime="0.00" waitingCount="0" stopTime="0.00" timeLoss="6.34" rerouteNo="0" devices="tripinfo_91582_392_0 routing_91582_392_0" vType="pkw" speedFactor="0.91" vaporized=""/>
    <tripinfo id="123965_406_0" depart="25218.00" departLane="-32038056#3_0" departPos="4.40" departSpeed="0.00" departDelay="0.00" arrival="25299.00" arrivalLane="-28198821#4_0" arrivalPos="57.10" arrivalSpeed="11.64" duration="81.00" routeLength="437.47" waitingTime="36.00" waitingCount="1" stopTime="0.00" timeLoss="44.66" rerouteNo="0" devices="tripinfo_123965_406_0 routing_123965_406_0" vType="pkw" speedFactor="0.88" vaporized=""/>
    <tripinfo id="130602_409_0" depart="25268.00" departLane="-32038056#3_0" departPos="4.40" departSpeed="0.00" departDelay="0.00" arrival="25307.00" arrivalLane="-28198821#4_1" arrivalPos="57.10" arrivalSpeed="13.28" duration="39.00" routeLength="437.47" waitingTime="0.00" waitingCount="0" stopTime="0.00" timeLoss="6.72" rerouteNo="0" devices="tripinfo_130602_409_0 routing_130602_409_0" vType="pkw" speedFactor="1.00" vaporized=""/>
    <tripinfo id="160150_421_0" depart="25223.00" departLane="-32038056#3_0" departPos="4.40" departSpeed="0.00" departDelay="4.00" arrival="25308.00" arrivalLane="32038051#0_0" arrivalPos="89.25" arrivalSpeed="19.06" duration="85.00" routeLength="446.95" waitingTime="41.00" waitingCount="2" stopTime="0.00" timeLoss="54.27" rerouteNo="0" devices="tripinfo_160150_421_0 routing_160150_421_0" vType="pkw" speedFactor="1.00" vaporized=""/>
    <tripinfo id="115444_403_0" depart="25294.00" departLane="28198821#3_0" departPos="4.40" departSpeed="0.00" departDelay="0.00" arrival="25310.00" arrivalLane="32038051#0_1" arrivalPos="89.25" arrivalSpeed="17.20" duration="16.00" routeLength="170.57" waitingTime="0.00" waitingCount="0" stopTime="0.00" timeLoss="5.07" rerouteNo="0" devices="tripinfo_115444_403_0 routing_115444_403_0" vType="pkw" speedFactor="0.95" vaporized=""/>
    <tripinfo id="128446_408_0" depart="25273.00" departLane="-32038056#3_0" departPos="4.40" departSpeed="0.00" departDelay="0.00" arrival="25311.00" arrivalLane="32324544#0_1" arrivalPos="90.48" arrivalSpeed="17.43" duration="38.00" routeLength="465.51" waitingTime="0.00" waitingCount="0" stopTime="0.00" timeLoss="4.77" rerouteNo="0" devices="tripinfo_128446_408_0 routing_128446_408_0" vType="pkw" speedFactor="0.94" vaporized=""/>
    <tripinfo id="83516_390_0" depart="25275.00" departLane="-32038056#3_0" departPos="4.40" departSpeed="0.00" departDelay="0.00" arrival="25313.00" arrivalLane="32324544#0_1" arrivalPos="90.48" arrivalSpeed="18.62" duration="38.00" routeLength="465.51" waitingTime="0.00" waitingCount="0" stopTime="0.00" timeLoss="6.01" rerouteNo="0" devices="tripinfo_83516_390_0 routing_83516_390_0" vType="pkw" speedFactor="0.99" vaporized=""/>
    <tripinfo id="103540_397_0" depart="25300.00" departLane="28198821#3_0" departPos="4.40" departSpeed="0.00" departDelay="0.00" arrival="25313.00" arrivalLane="32038051#0_1" arrivalPos="89.25" arrivalSpeed="20.30" duration="13.00" routeLength="170.57" waitingTime="0.00" waitingCount="0" stopTime="0.00" timeLoss="3.66" rerouteNo="0" devices="tripinfo_103540_397_0 routing_103540_397_0" vType="pkw" speedFactor="1.06" vaporized=""/>
    <tripinfo id="162814_422_0" depart="25233.00" departLane="-32038056#3_0" departPos="4.40" departSpeed="0.00" departDelay="0.00" arrival="25328.00" arrivalLane="32038051#0_0" arrivalPos="89.25" arrivalSpeed="19.82" duration="95.00" routeLength="446.95" waitingTime="46.00" waitingCount="3" stopTime="0.00" timeLoss="67.68" rerouteNo="0" devices="tripinfo_162814_422_0 routing_162814_422_0" vType="pkw" speedFactor="1.11" vaporized=""/>
    <tripinfo id="113303_402_0" depart="25283.00" departLane="-32038056#3_0" departPos="4.40" departSpeed="0.00" departDelay="0.00" arrival="25329.00" arrivalLane="32324544#0_1" arrivalPos="90.48" arrivalSpeed="21.77" duration="46.00" routeLength="465.51" waitingTime="6.00" waitingCount="1" stopTime="0.00" timeLoss="18.69" rerouteNo="0" devices="tripinfo_113303_402_0 routing_113303_402_0" vType="pkw" speedFactor="1.17" vaporized=""/>
    <tripinfo id="136082_411_0" depart="25278.00" departLane="-32038056#3_0" departPos="4.40" departSpeed="0.00" departDelay="1.00" arrival="25337.00" arrivalLane="32038051#0_0" arrivalPos="89.25" arrivalSpeed="19.79" duration="59.00" routeLength="446.95" waitingTime="17.00" waitingCount="2" stopTime="0.00" timeLoss="32.13" rerouteNo="0" devices="tripinfo_136082_411_0 routing_136082_411_0" vType="pkw" speedFactor="1.13" vaporized=""/>
    <tripinfo id="137244_412_0" depart="25297.00" departLane="-32038056#3_0" departPos="4.40" departSpeed="0.00" departDelay="3.00" arrival="25338.00" arrivalLane="-28198821#4_1" arrivalPos="57.10" arrivalSpeed="14.43" duration="41.00" routeLength="437.47" waitingTime="0.00" waitingCount="0" stopTime="0.00" timeLoss="10.03" rerouteNo="0" devices="tripinfo_137244_412_0 routing_137244_412_0" vType="pkw" speedFactor="1.05" vaporized=""/>
    <tripinfo id="162096_421_0" depart="25306.00" departLane="130165204_0" departPos="4.40" departSpeed="0.00" departDelay="0.00" arrival="25349.00" arrivalLane="32038051#0_1" arrivalPos="89.25" arrivalSpeed="20.98" duration="43.00" routeLength="410.03" waitingTime="2.00" waitingCount="1" stopTime="0.00" timeLoss="18.01" rerouteNo="1" devices="tripinfo_162096_421_0 routing_162096_421_0" vType="pkw" speedFactor="1.08" vaporized=""/>
    <tripinfo id="175147_428_0" depart="25324.00" departLane="130165204_0" departPos="4.40" departSpeed="0.00" departDelay="0.00" arrival="25358.00" arrivalLane="32038051#0_1" arrivalPos="89.25" arrivalSpeed="21.68" duration="34.00" routeLength="410.03" waitingTime="0.00" waitingCount="0" stopTime="0.00" timeLoss="10.05" rerouteNo="1" devices="tripinfo_175147_428_0 routing_175147_428_0" vType="pkw" speedFactor="1.12" vaporized=""/>
    <tripinfo id="142412_415_0" depart="25307.00" departLane="-32038056#3_0" departPos="4.40" departSpeed="0.00" departDelay="0.00" arrival="25368.00" arrivalLane="-28198821#4_1" arrivalPos="57.10" arrivalSpeed="14.58" duration="61.00" routeLength="437.47" waitingTime="22.00" waitingCount="1" stopTime="0.00" timeLoss="31.30" rerouteNo="0" devices="tripinfo_142412_415_0 routing_142412_415_0" vType="pkw" speedFactor="1.08" vaporized=""/>
    <tripinfo id="85818_390_0" depart="25281.00" departLane="-32038056#3_0" departPos="4.40" departSpeed="0.00" departDelay="1.00" arrival="25369.00" arrivalLane="32038051#0_0" arrivalPos="89.25" arrivalSpeed="15.44" duration="88.00" routeLength="446.95" waitingTime="33.00" waitingCount="3" stopTime="0.00" timeLoss="50.87" rerouteNo="0" devices="tripinfo_85818_390_0 routing_85818_390_0" vType="pkw" speedFactor="0.83" vaporized=""/>
    <tripinfo id="161721_421_0" depart="25337.00" departLane="130165204_0" departPos="4.40" departSpeed="0.00" departDelay="0.00" arrival="25373.00" arrivalLane="32038051#0_1" arrivalPos="89.25" arrivalSpeed="17.42" duration="36.00" routeLength="410.03" waitingTime="0.00" waitingCount="0" stopTime="0.00" timeLoss="7.14" rerouteNo="1" devices="tripinfo_161721_421_0 routing_161721_421_0" vType="pkw" speedFactor="0.94" vaporized=""/>
    <tripinfo id="86583_391_0" depart="25289.00" departLane="-32038056#3_0" departPos="4.40" departSpeed="0.00" departDelay="0.00" arrival="25378.00" arrivalLane="32038051#0_0" arrivalPos="89.25" arrivalSpeed="20.31" duration="89.00" routeLength="446.95" waitingTime="34.00" waitingCount="4" stopTime="0.00" timeLoss="60.62" rerouteNo="0" devices="tripinfo_86583_391_0 routing_86583_391_0" vType="pkw" speedFactor="1.09" vaporized=""/>
    <tripinfo id="138220_412_0" depart="25309.00" departLane="-32038056#3_0" departPos="4.40" departSpeed="0.00" departDelay="0.00" arrival="25378.00" arrivalLane="-28198821#4_0" arrivalPos="57.10" arrivalSpeed="11.64" duration="69.00" routeLength="437.47" waitingTime="21.00" waitingCount="2" stopTime="0.00" timeLoss="34.53" rerouteNo="0" devices="tripinfo_138220_412_0 routing_138220_412_0" vType="pkw" speedFactor="0.92" vaporized=""/>
    <tripinfo id="120878_405_0" depart="25291.00" departLane="-32038056#3_0" departPos="4.40" departSpeed="0.00" departDelay="0.00" arrival="25389.00" arrivalLane="32038051#0_0" arrivalPos="89.25" arrivalSpeed="18.37" duration="98.00" routeLength="446.95" waitingTime="36.00" waitingCount="4" stopTime="0.00" timeLoss="66.27" rerouteNo="0" devices="tripinfo_120878_405_0 routing_120878_405_0" vType="pkw" speedFactor="0.98" vaporized=""/>
    <tripinfo id="130372_409_0" depart="25329.00" departLane="-32038056#3_0" departPos="4.40" departSpeed="0.00" departDelay="2.00" arrival="25389.00" arrivalLane="32324544#0_1" arrivalPos="90.48" arrivalSpeed="20.72" duration="60.00" routeLength="465.51" waitingTime="13.00" waitingCount="3" stopTime="0.00" timeLoss="31.66" rerouteNo="0" devices="tripinfo_130372_409_0 routing_130372_409_0" vType="pkw" speedFactor="1.12" vaporized=""/>
    <tripinfo id="85922_391_0" depart="25294.00" departLane="-32038056#3_0" departPos="4.40" departSpeed="0.00" departDelay="1.00" arrival="25398.00" arrivalLane="32038051#0_0" arrivalPos="89.25" arrivalSpeed="18.05" duration="104.00" routeLength="446.95" waitingTime="38.00" waitingCount="5" stopTime="0.00" timeLoss="72.23" rerouteNo="0" devices="tripinfo_85922_391_0 routing_85922_391_0" vType="pkw" speedFactor="0.96" vaporized=""/>
    <tripinfo id="167799_425_0" depart="25327.00" departLane="-32038056#3_0" departPos="4.40" departSpeed="0.00" departDelay="0.00" arrival="25398.00" arrivalLane="-28198821#4_0" arrivalPos="57.10" arrivalSpeed="14.00" duration="71.00" routeLength="437.47" waitingTime="16.00" waitingCount="4" stopTime="0.00" timeLoss="40.09" rerouteNo="0" devices="tripinfo_167799_425_0 routing_167799_425_0" vType="pkw" speedFactor="1.04" vaporized=""/>
    <tripinfo id="118963_405_0" depart="25304.00" departLane="-32038056#3_0" departPos="4.40" departSpeed="0.00" departDelay="0.00" arrival="25408.00" arrivalLane="32038051#0_0" arrivalPos="89.25" arrivalSpeed="21.56" duration="104.00" routeLength="446.95" waitingTime="37.00" waitingCount="5" stopTime="0.00" timeLoss="76.44" rerouteNo="0" devices="tripinfo_118963_405_0 routing_118963_405_0" vType="pkw" speedFactor="1.11" vaporized=""/>
    <tripinfo id="104806_398_0" depart="25332.00" departLane="-32038056#3_0" departPos="4.40" departSpeed="0.00" departDelay="3.00" arrival="25409.00" arrivalLane="32324544#0_1" arrivalPos="90.48" arrivalSpeed="17.35" duration="77.00" routeLength="465.51" waitingTime="17.00" waitingCount="4" stopTime="0.00" timeLoss="43.89" rerouteNo="0" devices="tripinfo_104806_398_0 routing_104806_398_0" vType="pkw" speedFactor="0.95" vaporized=""/>
    <tripinfo id="136152_411_0" depart="25313.00" departLane="-32038056#3_0" departPos="4.40" departSpeed="0.00" departDelay="0.00" arrival="25418.00" arrivalLane="32038051#0_0" arrivalPos="89.25" arrivalSpeed="19.00" duration="105.00" routeLength="446.95" waitingTime="36.00" waitingCount="6" stopTime="0.00" timeLoss="79.15" rerouteNo="0" devices="tripinfo_136152_411_0 routing_136152_411_0" vType="pkw" speedFactor="1.17" vaporized=""/>
    <tripinfo id="122154_406_0" depart="25337.00" departLane="-32038056#3_0" departPos="4.40" departSpeed="0.00" departDelay="0.00" arrival="25419.00" arrivalLane="-28198821#4_0" arrivalPos="57.10" arrivalSpeed="10.60" duration="82.00" routeLength="437.47" waitingTime="15.00" waitingCount="4" stopTime="0.00" timeLoss="43.04" rerouteNo="0" devices="tripinfo_122154_406_0 routing_122154_406_0" vType="pkw" speedFactor="0.82" vaporized=""/>
    <tripinfo id="135138_411_0" depart="25350.00" departLane="-32038056#3_0" departPos="4.40" departSpeed="0.00" departDelay="1.00" arrival="25428.00" arrivalLane="-28198821#4_1" arrivalPos="57.10" arrivalSpeed="14.14" duration="78.00" routeLength="437.47" waitingTime="20.00" waitingCount="5" stopTime="0.00" timeLoss="48.39" rerouteNo="0" devices="tripinfo_135138_411_0 routing_135138_411_0" vType="pkw" speedFactor="1.08" vaporized=""/>
    <tripinfo id="121091_405_0" depart="25345.00" departLane="-32038056#3_0" departPos="4.40" departSpeed="0.00" departDelay="0.00" arrival="25429.00" arrivalLane="32038051#0_0" arrivalPos="89.25" arrivalSpeed="15.22" duration="84.00" routeLength="446.95" waitingTime="16.00" waitingCount="5" stopTime="0.00" timeLoss="47.19" rerouteNo="0" devices="tripinfo_121091_405_0 routing_121091_405_0" vType="pkw" speedFactor="0.84" vaporized=""/>
    <tripinfo id="169772_426_0" depart="25347.00" departLane="-32038056#3_0" departPos="4.40" departSpeed="0.00" departDelay="0.00" arrival="25438.00" arrivalLane="32038051#0_0" arrivalPos="89.25" arrivalSpeed="18.71" duration="91.00" routeLength="446.95" waitingTime="16.00" waitingCount="6" stopTime="0.00" timeLoss="64.83" rerouteNo="0" devices="tripinfo_169772_426_0 routing_169772_426_0" vType="pkw" speedFactor="1.16" vaporized=""/>
    <tripinfo id="150753_418_0" depart="25353.00" departLane="-32038056#3_0" departPos="4.40" departSpeed="0.00" departDelay="2.00" arrival="25439.00" arrivalLane="32324544#0_1" arrivalPos="90.48" arrivalSpeed="18.04" duration="86.00" routeLength="465.51" waitingTime="22.00" waitingCount="5" stopTime="0.00" timeLoss="53.43" rerouteNo="0" devices="tripinfo_150753_418_0 routing_150753_418_0" vType="pkw" speedFactor="0.98" vaporized=""/>
    <tripinfo id="114183_402_0" depart="25359.00" departLane="-32038056#3_0" departPos="4.40" departSpeed="0.00" departDelay="0.00" arrival="25448.00" arrivalLane="32038051#0_0" arrivalPos="89.25" arrivalSpeed="19.48" duration="89.00" routeLength="446.95" waitingTime="18.00" waitingCount="6" stopTime="0.00" timeLoss="58.92" rerouteNo="0" devices="tripinfo_114183_402_0 routing_114183_402_0" vType="pkw" speedFactor="1.02" vaporized=""/>
    <tripinfo id="148536_417_0" depart="25362.00" departLane="-32038056#3_0" departPos="4.40" departSpeed="0.00" departDelay="1.00" arrival="25449.00" arrivalLane="32324544#0_1" arrivalPos="90.48" arrivalSpeed="21.31" duration="87.00" routeLength="465.51" waitingTime="23.00" waitingCount="6" stopTime="0.00" timeLoss="61.07" rerouteNo="0" devices="tripinfo_148536_417_0 routing_148536_417_0" vType="pkw" speedFactor="1.22" vaporized=""/>
    <tripinfo id="154290_420_0" depart="25431.00" departLane="27115123#2_0" departPos="4.40" departSpeed="0.00" departDelay="0.00" arrival="25452.00" arrivalLane="32324544#0_1" arrivalPos="90.48" arrivalSpeed="20.50" duration="21.00" routeLength="198.06" waitingTime="0.00" waitingCount="0" stopTime="0.00" timeLoss="10.66" rerouteNo="1" devices="tripinfo_154290_420_0 routing_154290_420_0" vType="pkw" speedFactor="1.06" vaporized=""/>
    <tripinfo id="121258_405_0" depart="25240.00" departLane="23429231#1_0" departPos="4.40" departSpeed="0.00" departDelay="0.00" arrival="25453.00" arrivalLane="32038051#0_0" arrivalPos="89.25" arrivalSpeed="19.61" duration="213.00" routeLength="203.79" waitingTime="189.00" waitingCount="1" stopTime="0.00" timeLoss="201.81" rerouteNo="0" devices="tripinfo_121258_405_0 routing_121258_405_0" vType="pkw" speedFactor="1.02" vaporized=""/>
    <tripinfo id="126742_407_0" depart="25242.00" departLane="23429231#1_0" departPos="4.40" departSpeed="0.00" departDelay="2.00" arrival="25453.00" arrivalLane="32038051#0_1" arrivalPos="89.25" arrivalSpeed="20.67" duration="211.00" routeLength="203.79" waitingTime="186.00" waitingCount="1" stopTime="0.00" timeLoss="200.76" rerouteNo="0" devices="tripinfo_126742_407_0 routing_126742_407_0" vType="pkw" speedFactor="1.13" vaporized=""/>
    <tripinfo id="148629_417_0" depart="25284.00" departLane="27115123#2_0" departPos="4.40" departSpeed="0.00" departDelay="0.00" arrival="25453.00" arrivalLane="32324544#0_0" arrivalPos="90.48" arrivalSpeed="18.54" duration="169.00" routeLength="198.06" waitingTime="145.00" waitingCount="1" stopTime="0.00" timeLoss="158.31" rerouteNo="1" devices="tripinfo_148629_417_0 routing_148629_417_0" vType="pkw" speedFactor="1.01" vaporized=""/>
    <tripinfo id="102501_396_0" depart="25245.00" departLane="23429231#1_0" departPos="4.40" departSpeed="0.00" departDelay="1.00" arrival="25454.00" arrivalLane="32038051#0_0" arrivalPos="89.25" arrivalSpeed="20.97" duration="209.00" routeLength="203.79" waitingTime="187.00" waitingCount="1" stopTime="0.00" timeLoss="200.54" rerouteNo="0" devices="tripinfo_102501_396_0 routing_102501_396_0" vType="pkw" speedFactor="1.25" vaporized=""/>
    <tripinfo id="113509_402_0" depart="25250.00" departLane="23429231#1_0" departPos="4.40" departSpeed="0.00" departDelay="2.00" arrival="25455.00" arrivalLane="-28198821#4_1" arrivalPos="57.10" arrivalSpeed="14.56" duration="205.00" routeLength="179.90" waitingTime="182.00" waitingCount="1" stopTime="0.00" timeLoss="194.63" rerouteNo="0" devices="tripinfo_113509_402_0 routing_113509_402_0" vType="pkw" speedFactor="1.10" vaporized=""/>
    <tripinfo id="129330_408_0" depart="25434.00" departLane="27115123#2_0" departPos="4.40" departSpeed="0.00" departDelay="2.00" arrival="25455.00" arrivalLane="32324544#0_0" arrivalPos="90.48" arrivalSpeed="15.35" duration="21.00" routeLength="198.06" waitingTime="0.00" waitingCount="0" stopTime="0.00" timeLoss="8.01" rerouteNo="1" devices="tripinfo_129330_408_0 routing_129330_408_0" vType="pkw" speedFactor="0.83" vaporized=""/>
    <tripinfo id="120663_405_0" depart="25247.00" departLane="23429231#1_0" departPos="4.40" departSpeed="0.00" departDelay="1.00" arrival="25456.00" arrivalLane="32038051#0_0" arrivalPos="89.25" arrivalSpeed="17.24" duration="209.00" routeLength="203.79" waitingTime="185.00" waitingCount="1" stopTime="0.00" timeLoss="199.48" rerouteNo="0" devices="tripinfo_120663_405_0 routing_120663_405_0" vType="pkw" speedFactor="1.13" vaporized=""/>
    <tripinfo id="130147_409_0" depart="25252.00" departLane="23429231#1_0" departPos="4.40" departSpeed="0.00" departDelay="1.00" arrival="25456.00" arrivalLane="32038051#0_1" arrivalPos="89.25" arrivalSpeed="16.99" duration="204.00" routeLength="203.79" waitingTime="179.00" waitingCount="1" stopTime="0.00" timeLoss="191.93" rerouteNo="0" devices="tripinfo_130147_409_0 routing_130147_409_0" vType="pkw" speedFactor="0.92" vaporized=""/>
    <tripinfo id="137320_412_0" depart="25414.00" departLane="130165204_0" departPos="4.40" departSpeed="0.00" departDelay="0.00" arrival="25460.00" arrivalLane="32038051#0_1" arrivalPos="89.25" arrivalSpeed="18.78" duration="46.00" routeLength="410.03" waitingTime="1.00" waitingCount="1" stopTime="0.00" timeLoss="18.74" rerouteNo="1" devices="tripinfo_137320_412_0 routing_137320_412_0" vType="pkw" speedFactor="0.98" vaporized=""/>
    <tripinfo id="120618_405_0" depart="25364.00" departLane="-32038056#3_0" departPos="4.40" departSpeed="0.00" departDelay="1.00" arrival="25468.00" arrivalLane="32038051#0_0" arrivalPos="89.25" arrivalSpeed="17.74" duration="104.00" routeLength="446.95" waitingTime="29.00" waitingCount="6" stopTime="0.00" timeLoss="72.76" rerouteNo="0" devices="tripinfo_120618_405_0 routing_120618_405_0" vType="pkw" speedFactor="0.97" vaporized=""/>
    <tripinfo id="165043_423_0" depart="25370.00" departLane="-32038056#3_0" departPos="4.40" departSpeed="0.00" departDelay="4.00" arrival="25468.00" arrivalLane="32324544#0_1" arrivalPos="90.48" arrivalSpeed="21.48" duration="98.00" routeLength="465.51" waitingTime="31.00" waitingCount="7" stopTime="0.00" timeLoss="70.08" rerouteNo="0" devices="tripinfo_165043_423_0 routing_165043_423_0" vType="pkw" speedFactor="1.13" vaporized=""/>
    <tripinfo id="137508_412_0" depart="25374.00" departLane="-32038056#3_0" departPos="4.40" departSpeed="0.00" departDelay="7.00" arrival="25478.00" arrivalLane="32038051#0_0" arrivalPos="89.25" arrivalSpeed="17.96" duration="104.00" routeLength="446.95" waitingTime="30.00" waitingCount="6" stopTime="0.00" timeLoss="72.98" rerouteNo="0" devices="tripinfo_137508_412_0 routing_137508_412_0" vType="pkw" speedFactor="0.98" vaporized=""/>
    <tripinfo id="167170_425_0" depart="25368.00" departLane="-32038056#3_0" departPos="4.40" departSpeed="0.00" departDelay="4.00" arrival="25479.00" arrivalLane="-28198821#4_1" arrivalPos="57.10" arrivalSpeed="13.68" duration="111.00" routeLength="437.47" waitingTime="30.00" waitingCount="6" stopTime="0.00" timeLoss="79.85" rerouteNo="0" devices="tripinfo_167170_425_0 routing_167170_425_0" vType="pkw" speedFactor="1.03" vaporized=""/>
    <tripinfo id="163503_422_0" depart="25384.00" departLane="-32038056#3_0" departPos="4.40" departSpeed="0.00" departDelay="9.00" arrival="25488.00" arrivalLane="-28198821#4_1" arrivalPos="57.10" arrivalSpeed="14.04" duration="104.00" routeLength="437.47" waitingTime="31.00" waitingCount="6" stopTime="0.00" timeLoss="74.42" rerouteNo="0" devices="tripinfo_163503_422_0 routing_163503_422_0" vType="pkw" speedFactor="1.07" vaporized=""/>
    <tripinfo id="173487_427_0" depart="25376.00" departLane="-32038056#3_0" departPos="4.40" departSpeed="0.00" departDelay="7.00" arrival="25489.00" arrivalLane="32038051#0_0" arrivalPos="89.25" arrivalSpeed="19.35" duration="113.00" routeLength="446.95" waitingTime="33.00" waitingCount="6" stopTime="0.00" timeLoss="83.65" rerouteNo="0" devices="tripinfo_173487_427_0 routing_173487_427_0" vType="pkw" speedFactor="1.06" vaporized=""/>
    <tripinfo id="162547_422_0" depart="25379.00" departLane="-32038056#3_0" departPos="4.40" departSpeed="0.00" departDelay="9.00" arrival="25498.00" arrivalLane="32038051#0_0" arrivalPos="89.25" arrivalSpeed="19.72" duration="119.00" routeLength="446.95" waitingTime="32.00" waitingCount="6" stopTime="0.00" timeLoss="88.87" rerouteNo="0" devices="tripinfo_162547_422_0 routing_162547_422_0" vType="pkw" speedFactor="1.02" vaporized=""/>
    <tripinfo id="95948_394_0" depart="25387.00" departLane="-32038056#3_0" departPos="4.40" departSpeed="0.00" departDelay="11.00" arrival="25498.00" arrivalLane="-28198821#4_0" arrivalPos="57.10" arrivalSpeed="14.61" duration="111.00" routeLength="437.47" waitingTime="32.00" waitingCount="7" stopTime="0.00" timeLoss="82.26" rerouteNo="0" devices="tripinfo_95948_394_0 routing_95948_394_0" vType="pkw" speedFactor="1.10" vaporized=""/>
    <tripinfo id="171810_426_0" depart="25381.00" departLane="-32038056#3_0" departPos="4.40" departSpeed="0.00" departDelay="9.00" arrival="25508.00" arrivalLane="32038051#0_0" arrivalPos="89.25" arrivalSpeed="19.97" duration="127.00" routeLength="446.95" waitingTime="31.00" waitingCount="6" stopTime="0.00" timeLoss="99.33" rerouteNo="0" devices="tripinfo_171810_426_0 routing_171810_426_0" vType="pkw" speedFactor="1.11" vaporized=""/>
    <tripinfo id="115620_403_0" depart="25389.00" departLane="-32038056#3_0" departPos="4.40" departSpeed="0.00" departDelay="12.00" arrival="25508.00" arrivalLane="-28198821#4_1" arrivalPos="57.10" arrivalSpeed="14.10" duration="119.00" routeLength="437.47" waitingTime="33.00" waitingCount="9" stopTime="0.00" timeLoss="88.38" rerouteNo="0" devices="tripinfo_115620_403_0 routing_115620_403_0" vType="pkw" speedFactor="1.03" vaporized=""/>
    <tripinfo id="127513_407_0" depart="25393.00" departLane="-32038056#3_0" departPos="4.40" departSpeed="0.00" departDelay="15.00" arrival="25519.00" arrivalLane="-28198821#4_1" arrivalPos="57.10" arrivalSpeed="12.81" duration="126.00" routeLength="437.47" waitingTime="33.00" waitingCount="9" stopTime="0.00" timeLoss="92.79" rerouteNo="0" devices="tripinfo_127513_407_0 routing_127513_407_0" vType="pkw" speedFactor="0.97" vaporized=""/>
    <tripinfo id="84424_390_0" depart="25396.00" departLane="-32038056#3_0" departPos="4.40" departSpeed="0.00" departDelay="16.00" arrival="25519.00" arrivalLane="32038051#0_0" arrivalPos="89.25" arrivalSpeed="19.64" duration="123.00" routeLength="446.95" waitingTime="33.00" waitingCount="8" stopTime="0.00" timeLoss="94.00" rerouteNo="0" devices="tripinfo_84424_390_0 routing_84424_390_0" vType="pkw" speedFactor="1.07" vaporized=""/>
    <tripinfo id="100057_396_0" depart="25398.00" departLane="-32038056#3_0" departPos="4.40" departSpeed="0.00" departDelay="14.00" arrival="25538.00" arrivalLane="32038051#0_0" arrivalPos="89.25" arrivalSpeed="17.26" duration="140.00" routeLength="446.95" waitingTime="40.00" waitingCount="8" stopTime="0.00" timeLoss="107.14" rerouteNo="0" devices="tripinfo_100057_396_0 routing_100057_396_0" vType="pkw" speedFactor="0.93" vaporized=""/>
    <tripinfo id="119040_405_0" depart="25401.00" departLane="-32038056#3_0" departPos="4.40" departSpeed="0.00" departDelay="15.00" arrival="25538.00" arrivalLane="-28198821#4_0" arrivalPos="57.10" arrivalSpeed="14.61" duration="137.00" routeLength="437.47" waitingTime="41.00" waitingCount="8" stopTime="0.00" timeLoss="107.53" rerouteNo="0" devices="tripinfo_119040_405_0 routing_119040_405_0" vType="pkw" speedFactor="1.09" vaporized=""/>
    <tripinfo id="163150_422_0" depart="25406.00" departLane="-32038056#3_0" departPos="4.40" departSpeed="0.00" departDelay="13.00" arrival="25540.00" arrivalLane="32324544#0_1" arrivalPos="90.48" arrivalSpeed="22.39" duration="134.00" routeLength="465.51" waitingTime="39.00" waitingCount="8" stopTime="0.00" timeLoss="108.84" rerouteNo="0" devices="tripinfo_163150_422_0 routing_163150_422_0" vType="pkw" speedFactor="1.26" vaporized=""/>
    <tripinfo id="105238_398_0" depart="25409.00" departLane="-32038056#3_0" departPos="4.40" departSpeed="0.00" departDelay="15.00" arrival="25543.00" arrivalLane="32324544#0_1" arrivalPos="90.48" arrivalSpeed="14.73" duration="134.00" routeLength="465.51" waitingTime="32.00" waitingCount="6" stopTime="0.00" timeLoss="94.95" rerouteNo="0" devices="tripinfo_105238_398_0 routing_105238_398_0" vType="pkw" speedFactor="0.81" vaporized=""/>