<?xml version="1.0" encoding="UTF-8"?>

<!-- generated on 2023-08-29 12:30:42 by Eclipse SUMO libsumo Version 1.18.0
<configuration xmlns:xsi="http://www.w3.org/2001/XMLSchema-instance" xsi:noNamespaceSchemaLocation="http://sumo.dlr.de/xsd/libsumoConfiguration.xsd">

    <input>
        <net-file value="/home/stefan/RESCO/./environments/ingolstadt7/ingolstadt7.net.xml"/>
        <route-files value="/home/stefan/RESCO/./environments/ingolstadt7/ingolstadt7.rou.xml"/>
    </input>

    <output>
        <tripinfo-output value="/home/stefan/results/ITRPO-tr0-ingolstadt7-7-drq_norm-wait_norm/tripinfo_6.xml"/>
        <tripinfo-output.write-unfinished value="true"/>
    </output>

    <time>
        <begin value="57600"/>
        <end value="61200"/>
    </time>

    <processing>
        <time-to-teleport value="-1"/>
    </processing>

    <report>
        <no-warnings value="True"/>
        <no-step-log value="True"/>
    </report>

    <random_number>
        <random value="true"/>
    </random_number>

</configuration>
-->

<tripinfos xmlns:xsi="http://www.w3.org/2001/XMLSchema-instance" xsi:noNamespaceSchemaLocation="http://sumo.dlr.de/xsd/tripinfo_file.xsd">
    <tripinfo id="carIn89578:1" depart="57614.00" departLane="124812856#0_1" departPos="5.10" departSpeed="0.00" departDelay="3.60" arrival="57632.00" arrivalLane="201956810_1" arrivalPos="71.65" arrivalSpeed="13.15" duration="18.00" routeLength="134.91" waitingTime="0.00" waitingCount="0" stopTime="0.00" timeLoss="7.28" rerouteNo="1" devices="tripinfo_carIn89578:1 routing_carIn89578:1" vType="default_016" speedFactor="1.02" vaporized=""/>
    <tripinfo id="carIn105842:1" depart="57601.00" departLane="653473569#5_1" departPos="5.10" departSpeed="0.00" departDelay="0.80" arrival="57638.00" arrivalLane="201956811#0_1" arrivalPos="40.40" arrivalSpeed="11.76" duration="37.00" routeLength="313.24" waitingTime="1.00" waitingCount="1" stopTime="0.00" timeLoss="10.55" rerouteNo="1" devices="tripinfo_carIn105842:1 routing_carIn105842:1" vType="default_016" speedFactor="0.88" vaporized=""/>
    <tripinfo id="carIn28951:1" depart="57606.00" departLane="10425609#0_1" departPos="5.10" departSpeed="0.00" departDelay="0.20" arrival="57645.00" arrivalLane="-653473569#5_1" arrivalPos="73.05" arrivalSpeed="13.51" duration="39.00" routeLength="312.95" waitingTime="5.00" waitingCount="1" stopTime="0.00" timeLoss="14.51" rerouteNo="1" devices="tripinfo_carIn28951:1 routing_carIn28951:1" vType="default_016" speedFactor="1.00" vaporized=""/>
    <tripinfo id="carIn107084:1" depart="57601.00" departLane="124812856#0_1" departPos="5.10" departSpeed="0.00" departDelay="0.70" arrival="57651.00" arrivalLane="-653473569#5_1" arrivalPos="73.05" arrivalSpeed="12.11" duration="50.00" routeLength="450.40" waitingTime="3.00" waitingCount="1" stopTime="0.00" timeLoss="12.91" rerouteNo="1" devices="tripinfo_carIn107084:1 routing_carIn107084:1" vType="default_016" speedFactor="0.90" vaporized=""/>
    <tripinfo id="randUni10474:1" depart="57605.00" departLane="124812856#0_1" departPos="5.10" departSpeed="0.00" departDelay="0.20" arrival="57653.00" arrivalLane="-653473569#5_1" arrivalPos="73.05" arrivalSpeed="14.27" duration="48.00" routeLength="450.40" waitingTime="2.00" waitingCount="1" stopTime="0.00" timeLoss="15.89" rerouteNo="1" devices="tripinfo_randUni10474:1 routing_randUni10474:1" vType="random_016" speedFactor="1.05" vaporized=""/>
    <tripinfo id="carIn77943:1" depart="57608.00" departLane="124812856#0_1" departPos="5.10" departSpeed="0.00" departDelay="2.50" arrival="57655.00" arrivalLane="-653473569#5_1" arrivalPos="73.05" arrivalSpeed="13.17" duration="47.00" routeLength="450.40" waitingTime="1.00" waitingCount="1" stopTime="0.00" timeLoss="12.89" rerouteNo="1" devices="tripinfo_carIn77943:1 routing_carIn77943:1" vType="default_016" speedFactor="0.99" vaporized=""/>
    <tripinfo id="h15454c2:3" depart="57612.00" departLane="24608844_1" departPos="5.10" departSpeed="0.00" departDelay="0.50" arrival="57656.00" arrivalLane="32978638#0_1" arrivalPos="49.29" arrivalSpeed="13.60" duration="44.00" routeLength="354.79" waitingTime="2.00" waitingCount="1" stopTime="0.00" timeLoss="11.69" rerouteNo="1" devices="tripinfo_h15454c2:3 routing_h15454c2:3" vType="default_016" speedFactor="1.05" vaporized=""/>
    <tripinfo id="h20540c1:1" depart="57634.00" departLane="10425609#0_1" departPos="5.10" departSpeed="0.00" departDelay="0.50" arrival="57663.00" arrivalLane="-653473569#5_1" arrivalPos="73.05" arrivalSpeed="14.58" duration="29.00" routeLength="312.95" waitingTime="0.00" waitingCount="0" stopTime="0.00" timeLoss="6.69" rerouteNo="1" devices="tripinfo_h20540c1:1 routing_h20540c1:1" vType="default_016" speedFactor="1.10" vaporized=""/>
    <tripinfo id="h20232c1:2" depart="57634.00" departLane="-173169611#0_1" departPos="5.10" departSpeed="0.00" departDelay="0.50" arrival="57665.00" arrivalLane="201956820_1" arrivalPos="48.33" arrivalSpeed="13.97" duration="31.00" routeLength="122.35" waitingTime="14.00" waitingCount="1" stopTime="0.00" timeLoss="22.27" rerouteNo="0" devices="tripinfo_h20232c1:2 routing_h20232c1:2" vType="default_016" speedFactor="1.07" vaporized=""/>
    <tripinfo id="carIn25202:1" depart="57629.00" departLane="315358253#1_1" departPos="5.10" departSpeed="0.00" departDelay="1.50" arrival="57668.00" arrivalLane="32978638#0_1" arrivalPos="49.29" arrivalSpeed="12.59" duration="39.00" routeLength="405.15" waitingTime="0.00" waitingCount="0" stopTime="0.00" timeLoss="5.78" rerouteNo="1" devices="tripinfo_carIn25202:1 routing_carIn25202:1" vType="default_016" speedFactor="0.91" vaporized=""/>
    <tripinfo id="carIn106322:1" depart="57614.00" departLane="653473569#5_1" departPos="5.10" departSpeed="0.00" departDelay="2.20" arrival="57669.00" arrivalLane="201956811#0_1" arrivalPos="40.40" arrivalSpeed="9.94" duration="55.00" routeLength="313.24" waitingTime="9.00" waitingCount="3" stopTime="0.00" timeLoss="25.22" rerouteNo="1" devices="tripinfo_carIn106322:1 routing_carIn106322:1" vType="default_016" speedFactor="0.80" vaporized=""/>
    <tripinfo id="carIn5482:1" depart="57616.00" departLane="653473569#5_1" departPos="5.10" departSpeed="0.00" departDelay="2.60" arrival="57671.00" arrivalLane="201956811#0_1" arrivalPos="40.40" arrivalSpeed="12.11" duration="55.00" routeLength="313.24" waitingTime="5.00" waitingCount="2" stopTime="0.00" timeLoss="27.89" rerouteNo="1" devices="tripinfo_carIn5482:1 routing_carIn5482:1" vType="default_016" speedFactor="0.88" vaporized=""/>
    <tripinfo id="h645c1:1" depart="57622.00" departLane="266565295#5_1" departPos="5.10" departSpeed="0.00" departDelay="0.40" arrival="57671.00" arrivalLane="-315358253#1_1" arrivalPos="63.90" arrivalSpeed="13.04" duration="49.00" routeLength="547.76" waitingTime="0.00" waitingCount="0" stopTime="0.00" timeLoss="6.07" rerouteNo="1" devices="tripinfo_h645c1:1 routing_h645c1:1" vType="default_016" speedFactor="0.94" vaporized=""/>
    <tripinfo id="carIn36103:1" depart="57619.00" departLane="653473569#5_1" departPos="5.10" departSpeed="0.00" departDelay="3.00" arrival="57673.00" arrivalLane="201956811#0_1" arrivalPos="40.40" arrivalSpeed="14.76" duration="54.00" routeLength="313.24" waitingTime="3.00" waitingCount="2" stopTime="0.00" timeLoss="30.85" rerouteNo="1" devices="tripinfo_carIn36103:1 routing_carIn36103:1" vType="default_016" speedFactor="1.07" vaporized=""/>
    <tripinfo id="carIn102997:1" depart="57623.00" departLane="653473569#5_1" departPos="5.10" departSpeed="0.00" departDelay="4.80" arrival="57676.00" arrivalLane="201956811#0_1" arrivalPos="40.40" arrivalSpeed="12.40" duration="53.00" routeLength="313.24" waitingTime="0.00" waitingCount="0" stopTime="0.00" timeLoss="26.97" rerouteNo="1" devices="tripinfo_carIn102997:1 routing_carIn102997:1" vType="default_016" speedFactor="0.91" vaporized=""/>
    <tripinfo id="h21130c2:1" depart="57630.00" departLane="10425609#0_1" departPos="5.10" departSpeed="0.00" departDelay="0.10" arrival="57676.00" arrivalLane="202070434#2_1" arrivalPos="39.03" arrivalSpeed="15.65" duration="46.00" routeLength="432.30" waitingTime="5.00" waitingCount="1" stopTime="0.00" timeLoss="17.81" rerouteNo="1" devices="tripinfo_h21130c2:1 routing_h21130c2:1" vType="default_016" speedFactor="1.14" vaporized=""/>
    <tripinfo id="carIn28488:1" depart="57611.00" departLane="653473569#5_1" departPos="5.10" departSpeed="0.00" departDelay="0.80" arrival="57680.00" arrivalLane="201956820_1" arrivalPos="48.33" arrivalSpeed="15.09" duration="69.00" routeLength="437.07" waitingTime="19.00" waitingCount="3" stopTime="0.00" timeLoss="40.25" rerouteNo="1" devices="tripinfo_carIn28488:1 routing_carIn28488:1" vType="default_016" speedFactor="1.13" vaporized=""/>
    <tripinfo id="carIn75554:1" depart="57626.00" departLane="653473569#5_1" departPos="5.10" departSpeed="0.00" departDelay="5.20" arrival="57681.00" arrivalLane="201956811#0_1" arrivalPos="40.40" arrivalSpeed="14.30" duration="55.00" routeLength="313.24" waitingTime="0.00" waitingCount="0" stopTime="0.00" timeLoss="31.30" rerouteNo="1" devices="tripinfo_carIn75554:1 routing_carIn75554:1" vType="default_016" speedFactor="1.04" vaporized=""/>
    <tripinfo id="randUni20090:1" depart="57629.00" departLane="653473569#5_1" departPos="5.10" departSpeed="0.00" departDelay="1.00" arrival="57682.00" arrivalLane="201956811#0_1" arrivalPos="40.40" arrivalSpeed="15.11" duration="53.00" routeLength="313.24" waitingTime="0.00" waitingCount="0" stopTime="0.00" timeLoss="32.39" rerouteNo="1" devices="tripinfo_randUni20090:1 routing_randUni20090:1" vType="random_016" speedFactor="1.14" vaporized=""/>
    <tripinfo id="carIn925:1" depart="57655.00" departLane="124812856#0_1" departPos="5.10" departSpeed="0.00" departDelay="28.90" arrival="57685.00" arrivalLane="201956810_1" arrivalPos="71.65" arrivalSpeed="11.91" duration="30.00" routeLength="134.91" waitingTime="11.00" waitingCount="1" stopTime="0.00" timeLoss="18.02" rerouteNo="1" devices="tripinfo_carIn925:1 routing_carIn925:1" vType="default_016" speedFactor="0.91" vaporized=""/>
    <tripinfo id="carIn37268:1" depart="57636.00" departLane="653473569#5_1" departPos="5.10" departSpeed="0.00" departDelay="0.90" arrival="57686.00" arrivalLane="201956811#0_1" arrivalPos="40.40" arrivalSpeed="11.75" duration="50.00" routeLength="313.24" waitingTime="0.00" waitingCount="0" stopTime="0.00" timeLoss="22.93" rerouteNo="1" devices="tripinfo_carIn37268:1 routing_carIn37268:1" vType="default_016" speedFactor="0.89" vaporized=""/>
    <tripinfo id="carIn33538:1" depart="57671.00" departLane="37386279_1" departPos="5.10" departSpeed="0.00" departDelay="0.30" arrival="57686.00" arrivalLane="-24634414#4_1" arrivalPos="22.88" arrivalSpeed="8.10" duration="15.00" routeLength="125.23" waitingTime="0.00" waitingCount="0" stopTime="0.00" timeLoss="3.55" rerouteNo="0" devices="tripinfo_carIn33538:1 routing_carIn33538:1" vType="default_016" speedFactor="0.98" vaporized=""/>
    <tripinfo id="carIn124416:1" depart="57663.00" departLane="-173169611#0_1" departPos="5.10" departSpeed="0.00" departDelay="0.50" arrival="57690.00" arrivalLane="201956820_1" arrivalPos="48.33" arrivalSpeed="12.98" duration="27.00" routeLength="122.35" waitingTime="10.00" waitingCount="1" stopTime="0.00" timeLoss="17.55" rerouteNo="0" devices="tripinfo_carIn124416:1 routing_carIn124416:1" vType="default_016" speedFactor="1.02" vaporized=""/>
    <tripinfo id="carIn55461:1" depart="57652.00" departLane="10425609#0_1" departPos="5.10" departSpeed="0.00" departDelay="0.30" arrival="57691.00" arrivalLane="201956810_1" arrivalPos="71.65" arrivalSpeed="14.94" duration="39.00" routeLength="255.78" waitingTime="7.00" waitingCount="1" stopTime="0.00" timeLoss="21.28" rerouteNo="1" devices="tripinfo_carIn55461:1 routing_carIn55461:1" vType="default_016" speedFactor="1.15" vaporized=""/>
    <tripinfo id="carIn55090:1" depart="57666.00" departLane="-173169611#0_1" departPos="5.10" departSpeed="0.00" departDelay="1.40" arrival="57692.00" arrivalLane="201956820_1" arrivalPos="48.33" arrivalSpeed="14.16" duration="26.00" routeLength="122.35" waitingTime="6.00" waitingCount="1" stopTime="0.00" timeLoss="17.40" rerouteNo="0" devices="tripinfo_carIn55090:1 routing_carIn55090:1" vType="default_016" speedFactor="1.13" vaporized=""/>
    <tripinfo id="carIn81046:1" depart="57611.00" departLane="124812856#0_1" departPos="5.10" departSpeed="0.00" departDelay="2.50" arrival="57703.00" arrivalLane="-653473569#5_1" arrivalPos="73.05" arrivalSpeed="12.60" duration="92.00" routeLength="450.40" waitingTime="38.00" waitingCount="3" stopTime="0.00" timeLoss="57.19" rerouteNo="1" devices="tripinfo_carIn81046:1 routing_carIn81046:1" vType="default_016" speedFactor="0.96" vaporized=""/>
    <tripinfo id="carIn12152:1" depart="57647.00" departLane="24599188#0.94_1" departPos="5.10" departSpeed="0.00" departDelay="0.50" arrival="57705.00" arrivalLane="24693977#1_1" arrivalPos="96.83" arrivalSpeed="14.59" duration="58.00" routeLength="511.77" waitingTime="2.00" waitingCount="1" stopTime="0.00" timeLoss="12.72" rerouteNo="1" devices="tripinfo_carIn12152:1 routing_carIn12152:1" vType="default_016" speedFactor="1.05" vaporized=""/>
    <tripinfo id="carIn77438:1" depart="57618.00" departLane="124812856#0_1" departPos="5.10" departSpeed="0.00" departDelay="5.10" arrival="57706.00" arrivalLane="-653473569#5_1" arrivalPos="73.05" arrivalSpeed="11.96" duration="88.00" routeLength="450.40" waitingTime="28.00" waitingCount="3" stopTime="0.00" timeLoss="51.96" rerouteNo="1" devices="tripinfo_carIn77438:1 routing_carIn77438:1" vType="default_016" speedFactor="0.94" vaporized=""/>
    <tripinfo id="h19804c1:3" depart="57624.00" departLane="124812856#0_1" departPos="5.10" departSpeed="0.00" departDelay="8.50" arrival="57707.00" arrivalLane="-653473569#5_1" arrivalPos="73.05" arrivalSpeed="12.94" duration="83.00" routeLength="450.40" waitingTime="24.00" waitingCount="3" stopTime="0.00" timeLoss="48.08" rerouteNo="1" devices="tripinfo_h19804c1:3 routing_h19804c1:3" vType="default_016" speedFactor="0.95" vaporized=""/>
    <tripinfo id="carIn13117:1" depart="57627.00" departLane="27920078#0_1" departPos="5.10" departSpeed="0.00" departDelay="1.80" arrival="57708.00" arrivalLane="201956820_2" arrivalPos="48.33" arrivalSpeed="16.70" duration="81.00" routeLength="552.44" waitingTime="28.00" waitingCount="2" stopTime="0.00" timeLoss="48.22" rerouteNo="1" devices="tripinfo_carIn13117:1 routing_carIn13117:1" vType="default_016" speedFactor="1.22" vaporized=""/>
    <tripinfo id="carIn131078:1" depart="57676.00" departLane="124812856#0_1" departPos="5.10" departSpeed="0.00" departDelay="40.60" arrival="57713.00" arrivalLane="201956810_1" arrivalPos="71.65" arrivalSpeed="16.33" duration="37.00" routeLength="134.91" waitingTime="11.00" waitingCount="2" stopTime="0.00" timeLoss="28.24" rerouteNo="1" devices="tripinfo_carIn131078:1 routing_carIn131078:1" vType="default_016" speedFactor="1.21" vaporized=""/>
    <tripinfo id="carIn12775:1" depart="57676.00" departLane="10425609#0_1" departPos="5.10" departSpeed="0.00" departDelay="0.60" arrival="57714.00" arrivalLane="-653473569#5_1" arrivalPos="73.05" arrivalSpeed="16.66" duration="38.00" routeLength="312.95" waitingTime="3.00" waitingCount="1" stopTime="0.00" timeLoss="18.35" rerouteNo="1" devices="tripinfo_carIn12775:1 routing_carIn12775:1" vType="default_016" speedFactor="1.22" vaporized=""/>
    <tripinfo id="carIn20106:1" depart="57630.00" departLane="27920078#0_1" departPos="5.10" departSpeed="0.00" departDelay="2.70" arrival="57716.00" arrivalLane="201956820_2" arrivalPos="48.33" arrivalSpeed="12.37" duration="86.00" routeLength="552.44" waitingTime="25.00" waitingCount="2" stopTime="0.00" timeLoss="42.88" rerouteNo="1" devices="tripinfo_carIn20106:1 routing_carIn20106:1" vType="default_016" speedFactor="0.93" vaporized=""/>
    <tripinfo id="h3688c1:1" depart="57679.00" departLane="315358253#1_1" departPos="5.10" departSpeed="0.00" departDelay="0.50" arrival="57717.00" arrivalLane="32978638#0_1" arrivalPos="49.29" arrivalSpeed="13.22" duration="38.00" routeLength="405.15" waitingTime="0.00" waitingCount="0" stopTime="0.00" timeLoss="6.10" rerouteNo="1" devices="tripinfo_h3688c1:1 routing_h3688c1:1" vType="default_016" speedFactor="0.97" vaporized=""/>
    <tripinfo id="carIn129760:1" depart="57661.00" departLane="653473569#5_1" departPos="5.10" departSpeed="0.00" departDelay="0.80" arrival="57719.00" arrivalLane="201956811#0_1" arrivalPos="40.40" arrivalSpeed="12.26" duration="58.00" routeLength="313.24" waitingTime="17.00" waitingCount="2" stopTime="0.00" timeLoss="31.81" rerouteNo="1" devices="tripinfo_carIn129760:1 routing_carIn129760:1" vType="default_016" speedFactor="0.94" vaporized=""/>
    <tripinfo id="carIn12900:1" depart="57700.00" departLane="124812856#0_1" departPos="5.10" departSpeed="0.00" departDelay="51.80" arrival="57720.00" arrivalLane="201956810_1" arrivalPos="71.65" arrivalSpeed="13.63" duration="20.00" routeLength="134.91" waitingTime="0.00" waitingCount="0" stopTime="0.00" timeLoss="9.69" rerouteNo="1" devices="tripinfo_carIn12900:1 routing_carIn12900:1" vType="default_016" speedFactor="1.07" vaporized=""/>
    <tripinfo id="carIn129626:1" depart="57664.00" departLane="653473569#5_1" departPos="5.10" departSpeed="0.00" departDelay="1.60" arrival="57721.00" arrivalLane="201956811#0_1" arrivalPos="40.40" arrivalSpeed="13.77" duration="57.00" routeLength="313.24" waitingTime="15.00" waitingCount="2" stopTime="0.00" timeLoss="33.61" rerouteNo="1" devices="tripinfo_carIn129626:1 routing_carIn129626:1" vType="default_016" speedFactor="1.05" vaporized=""/>
    <tripinfo id="h20539c1:3" depart="57667.00" departLane="653473569#5_1" departPos="5.10" departSpeed="0.00" departDelay="2.20" arrival="57723.00" arrivalLane="201956811#0_1" arrivalPos="40.40" arrivalSpeed="13.28" duration="56.00" routeLength="313.24" waitingTime="13.00" waitingCount="2" stopTime="0.00" timeLoss="32.49" rerouteNo="1" devices="tripinfo_h20539c1:3 routing_h20539c1:3" vType="default_016" speedFactor="1.05" vaporized=""/>
    <tripinfo id="h10915c2:1" depart="57626.00" departLane="315358253#1_1" departPos="5.10" departSpeed="0.00" departDelay="0.20" arrival="57725.00" arrivalLane="-653473569#5_1" arrivalPos="73.05" arrivalSpeed="13.48" duration="99.00" routeLength="970.09" waitingTime="9.00" waitingCount="2" stopTime="0.00" timeLoss="31.45" rerouteNo="1" devices="tripinfo_h10915c2:1 routing_h10915c2:1" vType="default_016" speedFactor="1.05" vaporized=""/>
    <tripinfo id="carIn73466:1" depart="57643.00" departLane="27920078#0_1" departPos="5.10" departSpeed="0.00" departDelay="6.10" arrival="57727.00" arrivalLane="201956811#0_1" arrivalPos="40.40" arrivalSpeed="14.35" duration="84.00" routeLength="428.61" waitingTime="24.00" waitingCount="3" stopTime="0.00" timeLoss="55.49" rerouteNo="1" devices="tripinfo_carIn73466:1 routing_carIn73466:1" vType="default_016" speedFactor="1.12" vaporized=""/>
    <tripinfo id="randUni5403:1" depart="57632.00" departLane="315358253#1_1" departPos="5.10" departSpeed="0.00" departDelay="2.90" arrival="57728.00" arrivalLane="-653473569#5_1" arrivalPos="73.05" arrivalSpeed="13.96" duration="96.00" routeLength="974.99" waitingTime="6.00" waitingCount="1" stopTime="0.00" timeLoss="26.81" rerouteNo="1" devices="tripinfo_randUni5403:1 routing_randUni5403:1" vType="random_016" speedFactor="1.04" vaporized=""/>
    <tripinfo id="carIn79400:1" depart="57604.00" departLane="-24693977#1_1" departPos="5.10" departSpeed="0.00" departDelay="0.10" arrival="57732.00" arrivalLane="-266565295#5_1" arrivalPos="172.76" arrivalSpeed="10.90" duration="128.00" routeLength="840.03" waitingTime="28.00" waitingCount="3" stopTime="0.00" timeLoss="49.87" rerouteNo="1" devices="tripinfo_carIn79400:1 routing_carIn79400:1" vType="default_016" speedFactor="0.79" vaporized=""/>
    <tripinfo id="carIn52610:1" depart="57615.00" departLane="-24693977#1_1" departPos="5.10" departSpeed="0.00" departDelay="0.10" arrival="57733.00" arrivalLane="-266565295#5_2" arrivalPos="172.76" arrivalSpeed="13.85" duration="118.00" routeLength="840.03" waitingTime="21.00" waitingCount="2" stopTime="0.00" timeLoss="56.75" rerouteNo="1" devices="tripinfo_carIn52610:1 routing_carIn52610:1" vType="default_016" speedFactor="1.00" vaporized=""/>
    <tripinfo id="carIn38625:1" depart="57652.00" departLane="124812856#0_1" departPos="5.10" departSpeed="0.00" departDelay="26.50" arrival="57733.00" arrivalLane="-653473569#5_1" arrivalPos="73.05" arrivalSpeed="11.83" duration="81.00" routeLength="450.40" waitingTime="24.00" waitingCount="3" stopTime="0.00" timeLoss="43.11" rerouteNo="1" devices="tripinfo_carIn38625:1 routing_carIn38625:1" vType="default_016" speedFactor="0.90" vaporized=""/>
    <tripinfo id="carIn113711:1" depart="57601.00" departLane="-24693977#1_1" departPos="5.10" departSpeed="0.00" departDelay="0.70" arrival="57734.00" arrivalLane="-266565295#5_1" arrivalPos="172.76" arrivalSpeed="9.38" duration="133.00" routeLength="840.03" waitingTime="31.00" waitingCount="3" stopTime="0.00" timeLoss="49.39" rerouteNo="1" devices="tripinfo_carIn113711:1 routing_carIn113711:1" vType="default_016" speedFactor="0.74" vaporized=""/>
    <tripinfo id="h3568c1:3" depart="57656.00" departLane="266565295#5_1" departPos="5.10" departSpeed="0.00" departDelay="0.80" arrival="57734.00" arrivalLane="-24634415_1" arrivalPos="64.03" arrivalSpeed="13.88" duration="78.00" routeLength="810.20" waitingTime="0.00" waitingCount="0" stopTime="0.00" timeLoss="18.16" rerouteNo="1" devices="tripinfo_h3568c1:3 routing_h3568c1:3" vType="default_016" speedFactor="1.08" vaporized=""/>
    <tripinfo id="carIn115641:1" depart="57614.00" departLane="-24693977#1_1" departPos="5.10" departSpeed="0.00" departDelay="0.90" arrival="57735.00" arrivalLane="-266565295#5_1" arrivalPos="172.76" arrivalSpeed="12.20" duration="121.00" routeLength="840.03" waitingTime="21.00" waitingCount="2" stopTime="0.00" timeLoss="59.42" rerouteNo="1" devices="tripinfo_carIn115641:1 routing_carIn115641:1" vType="default_016" speedFactor="1.00" vaporized=""/>
    <tripinfo id="carIn767:1" depart="57633.00" departLane="124812856#0_1" departPos="5.10" departSpeed="0.00" departDelay="14.50" arrival="57735.00" arrivalLane="-653473569#5_1" arrivalPos="73.05" arrivalSpeed="12.82" duration="102.00" routeLength="450.40" waitingTime="36.00" waitingCount="3" stopTime="0.00" timeLoss="67.68" rerouteNo="1" devices="tripinfo_carIn767:1 routing_carIn767:1" vType="default_016" speedFactor="0.99" vaporized=""/>
    <tripinfo id="carIn106665:1" depart="57659.00" departLane="266565295#5_1" departPos="5.10" departSpeed="0.00" departDelay="1.80" arrival="57736.00" arrivalLane="24693977#1_1" arrivalPos="96.83" arrivalSpeed="12.07" duration="77.00" routeLength="834.40" waitingTime="0.00" waitingCount="0" stopTime="0.00" timeLoss="8.26" rerouteNo="1" devices="tripinfo_carIn106665:1 routing_carIn106665:1" vType="default_016" speedFactor="0.89" vaporized=""/>
    <tripinfo id="h317c2:1" depart="57707.00" departLane="-32978638#0_1" departPos="5.10" departSpeed="0.00" departDelay="0.10" arrival="57743.00" arrivalLane="-266565295#5_1" arrivalPos="172.76" arrivalSpeed="11.50" duration="36.00" routeLength="370.53" waitingTime="0.00" waitingCount="0" stopTime="0.00" timeLoss="5.76" rerouteNo="1" devices="tripinfo_h317c2:1 routing_h317c2:1" vType="default_016" speedFactor="0.91" vaporized=""/>
    <tripinfo id="carIn96537:1" depart="57615.00" departLane="124812856#0_1" departPos="5.10" departSpeed="0.00" departDelay="3.80" arrival="57748.00" arrivalLane="202070434#2_1" arrivalPos="39.03" arrivalSpeed="13.25" duration="133.00" routeLength="569.75" waitingTime="68.00" waitingCount="3" stopTime="0.00" timeLoss="92.65" rerouteNo="1" devices="tripinfo_carIn96537:1 routing_carIn96537:1" vType="default_016" speedFactor="1.02" vaporized=""/>
    <tripinfo id="carIn26410:1" depart="57621.00" departLane="124812856#0_1" departPos="5.10" departSpeed="0.00" departDelay="7.50" arrival="57748.00" arrivalLane="202070434#2_2" arrivalPos="39.03" arrivalSpeed="14.72" duration="127.00" routeLength="569.75" waitingTime="50.00" waitingCount="5" stopTime="0.00" timeLoss="87.93" rerouteNo="1" devices="tripinfo_carIn26410:1 routing_carIn26410:1" vType="default_016" speedFactor="1.07" vaporized=""/>
    <tripinfo id="carIn51024:1" depart="57627.00" departLane="124812856#0_1" departPos="5.10" departSpeed="0.00" departDelay="10.90" arrival="57750.00" arrivalLane="202070434#2_2" arrivalPos="39.03" arrivalSpeed="12.62" duration="123.00" routeLength="569.75" waitingTime="43.00" waitingCount="3" stopTime="0.00" timeLoss="79.81" rerouteNo="1" devices="tripinfo_carIn51024:1 routing_carIn51024:1" vType="default_016" speedFactor="0.96" vaporized=""/>
    <tripinfo id="h2215c1:1" depart="57657.00" departLane="25145012#7_1" departPos="5.10" departSpeed="0.00" departDelay="0.90" arrival="57750.00" arrivalLane="201956811#0_1" arrivalPos="40.40" arrivalSpeed="13.05" duration="93.00" routeLength="384.54" waitingTime="32.00" waitingCount="4" stopTime="0.00" timeLoss="62.40" rerouteNo="1" devices="tripinfo_h2215c1:1 routing_h2215c1:1" vType="default_016" speedFactor="0.95" vaporized=""/>
    <tripinfo id="carIn128705:1" depart="57630.00" departLane="124812856#0_1" departPos="5.10" departSpeed="0.00" departDelay="11.60" arrival="57752.00" arrivalLane="202070434#2_1" arrivalPos="39.03" arrivalSpeed="12.18" duration="122.00" routeLength="569.75" waitingTime="41.00" waitingCount="3" stopTime="0.00" timeLoss="77.31" rerouteNo="1" devices="tripinfo_carIn128705:1 routing_carIn128705:1" vType="default_016" speedFactor="0.93" vaporized=""/>
    <tripinfo id="h21989c1:1" depart="57636.00" departLane="124812856#0_1" departPos="5.10" departSpeed="0.00" departDelay="15.60" arrival="57754.00" arrivalLane="202070434#2_1" arrivalPos="39.03" arrivalSpeed="12.97" duration="118.00" routeLength="569.75" waitingTime="35.00" waitingCount="3" stopTime="0.00" timeLoss="74.55" rerouteNo="1" devices="tripinfo_h21989c1:1 routing_h21989c1:1" vType="default_016" speedFactor="0.96" vaporized=""/>
    <tripinfo id="carIn107842:1" depart="57639.00" departLane="124812856#0_1" departPos="5.10" departSpeed="0.00" departDelay="17.90" arrival="57754.00" arrivalLane="-653473569#5_1" arrivalPos="73.05" arrivalSpeed="13.85" duration="115.00" routeLength="450.40" waitingTime="50.00" waitingCount="3" stopTime="0.00" timeLoss="83.57" rerouteNo="1" devices="tripinfo_carIn107842:1 routing_carIn107842:1" vType="default_016" speedFactor="1.07" vaporized=""/>
    <tripinfo id="60R.41" depart="57623.00" departLane="27920078#0_1" departPos="12.10" departSpeed="0.00" departDelay="0.30" arrival="57755.00" arrivalLane="201956811#0_1" arrivalPos="40.40" arrivalSpeed="10.77" duration="132.00" routeLength="425.03" waitingTime="47.00" waitingCount="4" stopTime="0.00" timeLoss="100.75" rerouteNo="1" devices="tripinfo_60R.41 routing_60R.41" vType="bus" speedFactor="1.00" vaporized=""/>
    <tripinfo id="carIn64859:1" depart="57659.00" departLane="124812856#0_1" departPos="5.10" departSpeed="0.00" departDelay="30.60" arrival="57756.00" arrivalLane="-653473569#5_1" arrivalPos="73.05" arrivalSpeed="15.18" duration="97.00" routeLength="450.40" waitingTime="27.00" waitingCount="2" stopTime="0.00" timeLoss="67.15" rerouteNo="1" devices="tripinfo_carIn64859:1 routing_carIn64859:1" vType="default_016" speedFactor="1.12" vaporized=""/>
    <tripinfo id="carIn91254:1" depart="57696.00" departLane="653473569#5_1" departPos="5.10" departSpeed="0.00" departDelay="0.10" arrival="57757.00" arrivalLane="201956811#0_1" arrivalPos="40.40" arrivalSpeed="14.14" duration="61.00" routeLength="313.24" waitingTime="11.00" waitingCount="1" stopTime="0.00" timeLoss="37.88" rerouteNo="1" devices="tripinfo_carIn91254:1 routing_carIn91254:1" vType="default_016" speedFactor="1.03" vaporized=""/>
    <tripinfo id="carIn35345:1" depart="57670.00" departLane="25145012#7_1" departPos="5.10" departSpeed="0.00" departDelay="1.40" arrival="57759.00" arrivalLane="201956811#0_1" arrivalPos="40.40" arrivalSpeed="13.28" duration="89.00" routeLength="384.54" waitingTime="28.00" waitingCount="4" stopTime="0.00" timeLoss="60.08" rerouteNo="1" devices="tripinfo_carIn35345:1 routing_carIn35345:1" vType="default_016" speedFactor="1.01" vaporized=""/>
    <tripinfo id="h134c1:3" depart="57721.00" departLane="315358253#1_1" departPos="5.10" departSpeed="0.00" departDelay="1.60" arrival="57760.00" arrivalLane="32978638#0_2" arrivalPos="49.29" arrivalSpeed="15.10" duration="39.00" routeLength="409.47" waitingTime="0.00" waitingCount="0" stopTime="0.00" timeLoss="11.34" rerouteNo="1" devices="tripinfo_h134c1:3 routing_h134c1:3" vType="default_016" speedFactor="1.11" vaporized=""/>
    <tripinfo id="carIn99509:1" depart="57720.00" departLane="-32978638#0_1" departPos="5.10" departSpeed="0.00" departDelay="0.20" arrival="57760.00" arrivalLane="-315358253#1_1" arrivalPos="63.90" arrivalSpeed="12.80" duration="40.00" routeLength="422.17" waitingTime="0.00" waitingCount="0" stopTime="0.00" timeLoss="6.60" rerouteNo="1" devices="tripinfo_carIn99509:1 routing_carIn99509:1" vType="default_015" speedFactor="0.95" vaporized=""/>
    <tripinfo id="randUni27349:1" depart="57637.00" departLane="27920078#0_1" departPos="5.10" departSpeed="0.00" departDelay="3.10" arrival="57761.00" arrivalLane="201956811#0_1" arrivalPos="40.40" arrivalSpeed="13.24" duration="124.00" routeLength="432.03" waitingTime="48.00" waitingCount="4" stopTime="0.00" timeLoss="91.78" rerouteNo="1" devices="tripinfo_randUni27349:1 routing_randUni27349:1" vType="random_016" speedFactor="0.99" vaporized=""/>