<?xml version="1.0" encoding="UTF-8"?>

<!-- generated on 2023-08-29 12:30:06 by Eclipse SUMO libsumo Version 1.18.0
<configuration xmlns:xsi="http://www.w3.org/2001/XMLSchema-instance" xsi:noNamespaceSchemaLocation="http://sumo.dlr.de/xsd/libsumoConfiguration.xsd">

    <input>
        <net-file value="/home/stefan/RESCO/./environments/ingolstadt7/ingolstadt7.net.xml"/>
        <route-files value="/home/stefan/RESCO/./environments/ingolstadt7/ingolstadt7.rou.xml"/>
    </input>

    <output>
        <tripinfo-output value="/home/stefan/results/ITRPO-tr0-ingolstadt7-7-drq_norm-wait_norm/tripinfo_2.xml"/>
        <tripinfo-output.write-unfinished value="true"/>
    </output>

    <time>
        <begin value="57600"/>
        <end value="61200"/>
    </time>

    <processing>
        <time-to-teleport value="-1"/>
    </processing>

    <report>
        <no-warnings value="True"/>
        <no-step-log value="True"/>
    </report>

    <random_number>
        <random value="true"/>
    </random_number>

</configuration>
-->

<tripinfos xmlns:xsi="http://www.w3.org/2001/XMLSchema-instance" xsi:noNamespaceSchemaLocation="http://sumo.dlr.de/xsd/tripinfo_file.xsd">
    <tripinfo id="carIn105842:1" depart="57601.00" departLane="653473569#5_1" departPos="5.10" departSpeed="0.00" departDelay="0.80" arrival="57630.00" arrivalLane="201956811#0_1" arrivalPos="40.40" arrivalSpeed="14.38" duration="29.00" routeLength="313.24" waitingTime="0.00" waitingCount="0" stopTime="0.00" timeLoss="5.48" rerouteNo="1" devices="tripinfo_carIn105842:1 routing_carIn105842:1" vType="default_016" speedFactor="1.05" vaporized=""/>
    <tripinfo id="carIn28951:1" depart="57606.00" departLane="10425609#0_1" departPos="5.10" departSpeed="0.00" departDelay="0.20" arrival="57637.00" arrivalLane="-653473569#5_1" arrivalPos="73.05" arrivalSpeed="12.95" duration="31.00" routeLength="312.95" waitingTime="0.00" waitingCount="0" stopTime="0.00" timeLoss="6.52" rerouteNo="1" devices="tripinfo_carIn28951:1 routing_carIn28951:1" vType="default_016" speedFactor="0.98" vaporized=""/>
    <tripinfo id="carIn89578:1" depart="57613.00" departLane="124812856#0_1" departPos="5.10" departSpeed="0.00" departDelay="2.60" arrival="57643.00" arrivalLane="201956810_1" arrivalPos="71.65" arrivalSpeed="14.65" duration="30.00" routeLength="134.91" waitingTime="11.00" waitingCount="1" stopTime="0.00" timeLoss="19.73" rerouteNo="1" devices="tripinfo_carIn89578:1 routing_carIn89578:1" vType="default_016" speedFactor="1.07" vaporized=""/>
    <tripinfo id="h15454c2:3" depart="57612.00" departLane="24608844_1" departPos="5.10" departSpeed="0.00" departDelay="0.50" arrival="57657.00" arrivalLane="32978638#0_1" arrivalPos="49.29" arrivalSpeed="13.77" duration="45.00" routeLength="354.79" waitingTime="3.00" waitingCount="1" stopTime="0.00" timeLoss="10.85" rerouteNo="1" devices="tripinfo_h15454c2:3 routing_h15454c2:3" vType="default_016" speedFactor="1.01" vaporized=""/>
    <tripinfo id="carIn925:1" depart="57649.00" departLane="124812856#0_1" departPos="5.10" departSpeed="0.00" departDelay="22.90" arrival="57663.00" arrivalLane="201956810_1" arrivalPos="71.65" arrivalSpeed="14.72" duration="14.00" routeLength="134.91" waitingTime="0.00" waitingCount="0" stopTime="0.00" timeLoss="4.41" rerouteNo="1" devices="tripinfo_carIn925:1 routing_carIn925:1" vType="default_016" speedFactor="1.15" vaporized=""/>
    <tripinfo id="carIn25202:1" depart="57629.00" departLane="315358253#1_1" departPos="5.10" departSpeed="0.00" departDelay="1.50" arrival="57664.00" arrivalLane="32978638#0_1" arrivalPos="49.29" arrivalSpeed="14.75" duration="35.00" routeLength="405.15" waitingTime="0.00" waitingCount="0" stopTime="0.00" timeLoss="6.04" rerouteNo="1" devices="tripinfo_carIn25202:1 routing_carIn25202:1" vType="default_016" speedFactor="1.08" vaporized=""/>
    <tripinfo id="h20232c1:2" depart="57634.00" departLane="-173169611#0_1" departPos="5.10" departSpeed="0.00" departDelay="0.50" arrival="57667.00" arrivalLane="201956820_1" arrivalPos="48.33" arrivalSpeed="10.29" duration="33.00" routeLength="122.35" waitingTime="13.00" waitingCount="1" stopTime="0.00" timeLoss="20.95" rerouteNo="0" devices="tripinfo_h20232c1:2 routing_h20232c1:2" vType="default_016" speedFactor="0.83" vaporized=""/>
    <tripinfo id="carIn106322:1" depart="57614.00" departLane="653473569#5_1" departPos="5.10" departSpeed="0.00" departDelay="2.20" arrival="57668.00" arrivalLane="201956811#0_1" arrivalPos="40.40" arrivalSpeed="13.58" duration="54.00" routeLength="313.24" waitingTime="12.00" waitingCount="3" stopTime="0.00" timeLoss="31.16" rerouteNo="1" devices="tripinfo_carIn106322:1 routing_carIn106322:1" vType="default_016" speedFactor="1.03" vaporized=""/>
    <tripinfo id="h645c1:1" depart="57622.00" departLane="266565295#5_1" departPos="5.10" departSpeed="0.00" departDelay="0.40" arrival="57670.00" arrivalLane="-315358253#1_1" arrivalPos="63.90" arrivalSpeed="13.24" duration="48.00" routeLength="547.76" waitingTime="0.00" waitingCount="0" stopTime="0.00" timeLoss="5.54" rerouteNo="1" devices="tripinfo_h645c1:1 routing_h645c1:1" vType="default_016" speedFactor="0.96" vaporized=""/>
    <tripinfo id="h21130c2:1" depart="57630.00" departLane="10425609#0_1" departPos="5.10" departSpeed="0.00" departDelay="0.10" arrival="57672.00" arrivalLane="202070434#2_1" arrivalPos="39.03" arrivalSpeed="13.42" duration="42.00" routeLength="432.30" waitingTime="1.00" waitingCount="1" stopTime="0.00" timeLoss="10.68" rerouteNo="1" devices="tripinfo_h21130c2:1 routing_h21130c2:1" vType="default_016" speedFactor="1.04" vaporized=""/>
    <tripinfo id="carIn28488:1" depart="57611.00" departLane="653473569#5_1" departPos="5.10" departSpeed="0.00" departDelay="0.80" arrival="57680.00" arrivalLane="201956820_1" arrivalPos="48.33" arrivalSpeed="13.29" duration="69.00" routeLength="437.07" waitingTime="24.00" waitingCount="2" stopTime="0.00" timeLoss="37.00" rerouteNo="1" devices="tripinfo_carIn28488:1 routing_carIn28488:1" vType="default_016" speedFactor="1.00" vaporized=""/>
    <tripinfo id="randUni10474:1" depart="57605.00" departLane="124812856#0_1" departPos="5.10" departSpeed="0.00" departDelay="0.20" arrival="57682.00" arrivalLane="-653473569#5_1" arrivalPos="73.05" arrivalSpeed="13.68" duration="77.00" routeLength="450.40" waitingTime="26.00" waitingCount="3" stopTime="0.00" timeLoss="44.13" rerouteNo="1" devices="tripinfo_randUni10474:1 routing_randUni10474:1" vType="random_016" speedFactor="1.02" vaporized=""/>
    <tripinfo id="carIn107084:1" depart="57601.00" departLane="124812856#0_1" departPos="5.10" departSpeed="0.00" departDelay="0.70" arrival="57684.00" arrivalLane="-653473569#5_1" arrivalPos="73.05" arrivalSpeed="12.25" duration="83.00" routeLength="450.40" waitingTime="25.00" waitingCount="4" stopTime="0.00" timeLoss="48.29" rerouteNo="1" devices="tripinfo_carIn107084:1 routing_carIn107084:1" vType="default_016" speedFactor="0.95" vaporized=""/>
    <tripinfo id="carIn55461:1" depart="57652.00" departLane="10425609#0_1" departPos="5.10" departSpeed="0.00" departDelay="0.30" arrival="57685.00" arrivalLane="201956810_1" arrivalPos="71.65" arrivalSpeed="13.85" duration="33.00" routeLength="255.78" waitingTime="1.00" waitingCount="1" stopTime="0.00" timeLoss="13.15" rerouteNo="1" devices="tripinfo_carIn55461:1 routing_carIn55461:1" vType="default_016" speedFactor="1.03" vaporized=""/>
    <tripinfo id="carIn77943:1" depart="57607.00" departLane="124812856#0_1" departPos="5.10" departSpeed="0.00" departDelay="1.50" arrival="57686.00" arrivalLane="-653473569#5_1" arrivalPos="73.05" arrivalSpeed="17.86" duration="79.00" routeLength="450.40" waitingTime="22.00" waitingCount="3" stopTime="0.00" timeLoss="53.12" rerouteNo="1" devices="tripinfo_carIn77943:1 routing_carIn77943:1" vType="default_016" speedFactor="1.31" vaporized=""/>
    <tripinfo id="carIn33538:1" depart="57671.00" departLane="37386279_1" departPos="5.10" departSpeed="0.00" departDelay="0.30" arrival="57687.00" arrivalLane="-24634414#4_1" arrivalPos="22.88" arrivalSpeed="8.06" duration="16.00" routeLength="125.23" waitingTime="0.00" waitingCount="0" stopTime="0.00" timeLoss="3.97" rerouteNo="0" devices="tripinfo_carIn33538:1 routing_carIn33538:1" vType="default_016" speedFactor="0.98" vaporized=""/>
    <tripinfo id="carIn81046:1" depart="57610.00" departLane="124812856#0_1" departPos="5.10" departSpeed="0.00" departDelay="1.50" arrival="57689.00" arrivalLane="-653473569#5_1" arrivalPos="73.05" arrivalSpeed="14.31" duration="79.00" routeLength="450.40" waitingTime="17.00" waitingCount="2" stopTime="0.00" timeLoss="48.19" rerouteNo="1" devices="tripinfo_carIn81046:1 routing_carIn81046:1" vType="default_016" speedFactor="1.08" vaporized=""/>
    <tripinfo id="carIn124416:1" depart="57663.00" departLane="-173169611#0_1" departPos="5.10" departSpeed="0.00" departDelay="0.50" arrival="57690.00" arrivalLane="201956820_1" arrivalPos="48.33" arrivalSpeed="13.29" duration="27.00" routeLength="122.35" waitingTime="9.00" waitingCount="1" stopTime="0.00" timeLoss="16.65" rerouteNo="0" devices="tripinfo_carIn124416:1 routing_carIn124416:1" vType="default_016" speedFactor="0.97" vaporized=""/>
    <tripinfo id="carIn55090:1" depart="57666.00" departLane="-173169611#0_1" departPos="5.10" departSpeed="0.00" departDelay="1.40" arrival="57692.00" arrivalLane="201956820_1" arrivalPos="48.33" arrivalSpeed="14.14" duration="26.00" routeLength="122.35" waitingTime="8.00" waitingCount="1" stopTime="0.00" timeLoss="16.95" rerouteNo="0" devices="tripinfo_carIn55090:1 routing_carIn55090:1" vType="default_016" speedFactor="1.12" vaporized=""/>
    <tripinfo id="carIn77438:1" depart="57617.00" departLane="124812856#0_1" departPos="5.10" departSpeed="0.00" departDelay="4.10" arrival="57695.00" arrivalLane="-653473569#5_1" arrivalPos="73.05" arrivalSpeed="12.91" duration="78.00" routeLength="450.40" waitingTime="11.00" waitingCount="2" stopTime="0.00" timeLoss="42.67" rerouteNo="1" devices="tripinfo_carIn77438:1 routing_carIn77438:1" vType="default_016" speedFactor="0.94" vaporized=""/>
    <tripinfo id="carIn26410:1" depart="57619.00" departLane="124812856#0_1" departPos="5.10" departSpeed="0.00" departDelay="5.50" arrival="57698.00" arrivalLane="202070434#2_2" arrivalPos="39.03" arrivalSpeed="13.37" duration="79.00" routeLength="569.75" waitingTime="11.00" waitingCount="2" stopTime="0.00" timeLoss="38.03" rerouteNo="1" devices="tripinfo_carIn26410:1 routing_carIn26410:1" vType="default_016" speedFactor="1.02" vaporized=""/>
    <tripinfo id="carIn96537:1" depart="57614.00" departLane="124812856#0_1" departPos="5.10" departSpeed="0.00" departDelay="2.80" arrival="57699.00" arrivalLane="202070434#2_1" arrivalPos="39.03" arrivalSpeed="12.03" duration="85.00" routeLength="569.75" waitingTime="18.00" waitingCount="2" stopTime="0.00" timeLoss="37.82" rerouteNo="1" devices="tripinfo_carIn96537:1 routing_carIn96537:1" vType="default_016" speedFactor="0.89" vaporized=""/>
    <tripinfo id="h19804c1:3" depart="57622.00" departLane="124812856#0_1" departPos="5.10" departSpeed="0.00" departDelay="6.50" arrival="57699.00" arrivalLane="-653473569#5_1" arrivalPos="73.05" arrivalSpeed="11.48" duration="77.00" routeLength="450.40" waitingTime="6.00" waitingCount="1" stopTime="0.00" timeLoss="36.44" rerouteNo="1" devices="tripinfo_h19804c1:3 routing_h19804c1:3" vType="default_016" speedFactor="0.84" vaporized=""/>
    <tripinfo id="carIn51024:1" depart="57625.00" departLane="124812856#0_1" departPos="5.10" departSpeed="0.00" departDelay="8.90" arrival="57701.00" arrivalLane="202070434#2_1" arrivalPos="39.03" arrivalSpeed="15.56" duration="76.00" routeLength="569.75" waitingTime="7.00" waitingCount="2" stopTime="0.00" timeLoss="41.00" rerouteNo="1" devices="tripinfo_carIn51024:1 routing_carIn51024:1" vType="default_016" speedFactor="1.19" vaporized=""/>
    <tripinfo id="carIn128705:1" depart="57628.00" departLane="124812856#0_1" departPos="5.10" departSpeed="0.00" departDelay="9.60" arrival="57701.00" arrivalLane="202070434#2_2" arrivalPos="39.03" arrivalSpeed="13.56" duration="73.00" routeLength="569.75" waitingTime="3.00" waitingCount="2" stopTime="0.00" timeLoss="34.17" rerouteNo="1" devices="tripinfo_carIn128705:1 routing_carIn128705:1" vType="default_016" speedFactor="1.07" vaporized=""/>
    <tripinfo id="h10915c2:1" depart="57626.00" departLane="315358253#1_1" departPos="5.10" departSpeed="0.00" departDelay="0.20" arrival="57701.00" arrivalLane="-653473569#5_1" arrivalPos="73.05" arrivalSpeed="14.10" duration="75.00" routeLength="970.09" waitingTime="0.00" waitingCount="0" stopTime="0.00" timeLoss="8.71" rerouteNo="1" devices="tripinfo_h10915c2:1 routing_h10915c2:1" vType="default_016" speedFactor="1.07" vaporized=""/>
    <tripinfo id="h21989c1:1" depart="57633.00" departLane="124812856#0_1" departPos="5.10" departSpeed="0.00" departDelay="12.60" arrival="57704.00" arrivalLane="202070434#2_1" arrivalPos="39.03" arrivalSpeed="12.61" duration="71.00" routeLength="569.75" waitingTime="3.00" waitingCount="1" stopTime="0.00" timeLoss="25.10" rerouteNo="1" devices="tripinfo_h21989c1:1 routing_h21989c1:1" vType="default_016" speedFactor="0.91" vaporized=""/>
    <tripinfo id="carIn5482:1" depart="57617.00" departLane="653473569#5_1" departPos="5.10" departSpeed="0.00" departDelay="3.60" arrival="57710.00" arrivalLane="201956811#0_1" arrivalPos="40.40" arrivalSpeed="12.35" duration="93.00" routeLength="313.24" waitingTime="41.00" waitingCount="5" stopTime="0.00" timeLoss="68.35" rerouteNo="1" devices="tripinfo_carIn5482:1 routing_carIn5482:1" vType="default_016" speedFactor="0.98" vaporized=""/>
    <tripinfo id="carIn13117:1" depart="57627.00" departLane="27920078#0_1" departPos="5.10" departSpeed="0.00" departDelay="1.80" arrival="57710.00" arrivalLane="201956820_1" arrivalPos="48.33" arrivalSpeed="12.73" duration="83.00" routeLength="552.44" waitingTime="20.00" waitingCount="3" stopTime="0.00" timeLoss="40.60" rerouteNo="1" devices="tripinfo_carIn13117:1 routing_carIn13117:1" vType="default_016" speedFactor="0.94" vaporized=""/>
    <tripinfo id="carIn20106:1" depart="57630.00" departLane="27920078#0_1" departPos="5.10" departSpeed="0.00" departDelay="2.70" arrival="57710.00" arrivalLane="201956820_2" arrivalPos="48.33" arrivalSpeed="12.29" duration="80.00" routeLength="552.44" waitingTime="17.00" waitingCount="2" stopTime="0.00" timeLoss="35.76" rerouteNo="1" devices="tripinfo_carIn20106:1 routing_carIn20106:1" vType="default_016" speedFactor="0.90" vaporized=""/>
    <tripinfo id="carIn36103:1" depart="57620.00" departLane="653473569#5_1" departPos="5.10" departSpeed="0.00" departDelay="4.00" arrival="57711.00" arrivalLane="201956811#0_1" arrivalPos="40.40" arrivalSpeed="13.93" duration="91.00" routeLength="313.24" waitingTime="32.00" waitingCount="6" stopTime="0.00" timeLoss="67.81" rerouteNo="1" devices="tripinfo_carIn36103:1 routing_carIn36103:1" vType="default_016" speedFactor="1.01" vaporized=""/>
    <tripinfo id="carIn102997:1" depart="57622.00" departLane="653473569#5_1" departPos="5.10" departSpeed="0.00" departDelay="3.80" arrival="57713.00" arrivalLane="201956811#0_1" arrivalPos="40.40" arrivalSpeed="14.22" duration="91.00" routeLength="313.24" waitingTime="31.00" waitingCount="5" stopTime="0.00" timeLoss="68.75" rerouteNo="1" devices="tripinfo_carIn102997:1 routing_carIn102997:1" vType="default_016" speedFactor="1.08" vaporized=""/>
    <tripinfo id="randUni5403:1" depart="57632.00" departLane="315358253#1_1" departPos="5.10" departSpeed="0.00" departDelay="2.90" arrival="57715.00" arrivalLane="-653473569#5_1" arrivalPos="73.05" arrivalSpeed="14.17" duration="83.00" routeLength="970.09" waitingTime="4.00" waitingCount="1" stopTime="0.00" timeLoss="17.62" rerouteNo="1" devices="tripinfo_randUni5403:1 routing_randUni5403:1" vType="random_016" speedFactor="1.09" vaporized=""/>
    <tripinfo id="carIn131078:1" depart="57673.00" departLane="124812856#0_1" departPos="5.10" departSpeed="0.00" departDelay="37.60" arrival="57715.00" arrivalLane="201956810_1" arrivalPos="71.65" arrivalSpeed="14.46" duration="42.00" routeLength="134.91" waitingTime="22.00" waitingCount="1" stopTime="0.00" timeLoss="31.78" rerouteNo="1" devices="tripinfo_carIn131078:1 routing_carIn131078:1" vType="default_016" speedFactor="1.11" vaporized=""/>
    <tripinfo id="carIn12152:1" depart="57647.00" departLane="24599188#0.94_1" departPos="5.10" departSpeed="0.00" departDelay="0.50" arrival="57715.00" arrivalLane="24693977#1_1" arrivalPos="96.83" arrivalSpeed="13.34" duration="68.00" routeLength="511.77" waitingTime="11.00" waitingCount="1" stopTime="0.00" timeLoss="22.32" rerouteNo="1" devices="tripinfo_carIn12152:1 routing_carIn12152:1" vType="default_016" speedFactor="1.05" vaporized=""/>
    <tripinfo id="60R.41" depart="57623.00" departLane="27920078#0_1" departPos="12.10" departSpeed="0.00" departDelay="0.30" arrival="57718.00" arrivalLane="201956811#0_1" arrivalPos="40.40" arrivalSpeed="11.89" duration="95.00" routeLength="425.03" waitingTime="31.00" waitingCount="3" stopTime="0.00" timeLoss="63.71" rerouteNo="1" devices="tripinfo_60R.41 routing_60R.41" vType="bus" speedFactor="1.00" vaporized=""/>
    <tripinfo id="h3688c1:1" depart="57679.00" departLane="315358253#1_1" departPos="5.10" departSpeed="0.00" departDelay="0.50" arrival="57718.00" arrivalLane="32978638#0_1" arrivalPos="49.29" arrivalSpeed="16.33" duration="39.00" routeLength="405.15" waitingTime="1.00" waitingCount="1" stopTime="0.00" timeLoss="12.92" rerouteNo="1" devices="tripinfo_h3688c1:1 routing_h3688c1:1" vType="default_016" speedFactor="1.18" vaporized=""/>
    <tripinfo id="carIn767:1" depart="57631.00" departLane="124812856#0_1" departPos="5.10" departSpeed="0.00" departDelay="12.50" arrival="57720.00" arrivalLane="-653473569#5_1" arrivalPos="73.05" arrivalSpeed="15.92" duration="89.00" routeLength="450.40" waitingTime="12.00" waitingCount="2" stopTime="0.00" timeLoss="61.12" rerouteNo="1" devices="tripinfo_carIn767:1 routing_carIn767:1" vType="default_016" speedFactor="1.22" vaporized=""/>
    <tripinfo id="carIn107842:1" depart="57636.00" departLane="124812856#0_1" departPos="5.10" departSpeed="0.00" departDelay="14.90" arrival="57723.00" arrivalLane="-653473569#5_1" arrivalPos="73.05" arrivalSpeed="13.19" duration="87.00" routeLength="450.40" waitingTime="11.00" waitingCount="2" stopTime="0.00" timeLoss="52.25" rerouteNo="1" devices="tripinfo_carIn107842:1 routing_carIn107842:1" vType="default_016" speedFactor="0.98" vaporized=""/>
    <tripinfo id="h3568c1:3" depart="57656.00" departLane="266565295#5_1" departPos="5.10" departSpeed="0.00" departDelay="0.80" arrival="57731.00" arrivalLane="-24634415_1" arrivalPos="64.03" arrivalSpeed="13.48" duration="75.00" routeLength="810.20" waitingTime="0.00" waitingCount="0" stopTime="0.00" timeLoss="12.23" rerouteNo="1" devices="tripinfo_h3568c1:3 routing_h3568c1:3" vType="default_016" speedFactor="1.05" vaporized=""/>
    <tripinfo id="carIn75554:1" depart="57625.00" departLane="653473569#5_1" departPos="5.10" departSpeed="0.00" departDelay="4.20" arrival="57732.00" arrivalLane="201956811#0_1" arrivalPos="40.40" arrivalSpeed="12.30" duration="107.00" routeLength="313.24" waitingTime="34.00" waitingCount="6" stopTime="0.00" timeLoss="81.35" rerouteNo="1" devices="tripinfo_carIn75554:1 routing_carIn75554:1" vType="default_016" speedFactor="0.96" vaporized=""/>
    <tripinfo id="h20540c1:1" depart="57634.00" departLane="10425609#0_1" departPos="5.10" departSpeed="0.00" departDelay="0.50" arrival="57733.00" arrivalLane="-653473569#5_1" arrivalPos="73.05" arrivalSpeed="15.37" duration="99.00" routeLength="312.95" waitingTime="38.00" waitingCount="4" stopTime="0.00" timeLoss="78.75" rerouteNo="1" devices="tripinfo_h20540c1:1 routing_h20540c1:1" vType="default_016" speedFactor="1.19" vaporized=""/>
    <tripinfo id="randUni27349:1" depart="57637.00" departLane="27920078#0_1" departPos="5.10" departSpeed="0.00" departDelay="3.10" arrival="57733.00" arrivalLane="201956811#0_1" arrivalPos="40.40" arrivalSpeed="14.53" duration="96.00" routeLength="432.03" waitingTime="26.00" waitingCount="4" stopTime="0.00" timeLoss="66.15" rerouteNo="1" devices="tripinfo_randUni27349:1 routing_randUni27349:1" vType="random_016" speedFactor="1.06" vaporized=""/>
    <tripinfo id="60.39" depart="57643.00" departLane="10425609#0_1" departPos="12.10" departSpeed="0.00" departDelay="0.50" arrival="57733.00" arrivalLane="202070434#2_1" arrivalPos="39.03" arrivalSpeed="13.31" duration="90.00" routeLength="425.30" waitingTime="30.00" waitingCount="2" stopTime="0.00" timeLoss="58.15" rerouteNo="1" devices="tripinfo_60.39 routing_60.39" vType="bus" speedFactor="1.00" vaporized=""/>
    <tripinfo id="carIn12900:1" depart="57689.00" departLane="124812856#0_1" departPos="5.10" departSpeed="0.00" departDelay="40.80" arrival="57735.00" arrivalLane="201956810_1" arrivalPos="71.65" arrivalSpeed="13.63" duration="46.00" routeLength="134.91" waitingTime="19.00" waitingCount="2" stopTime="0.00" timeLoss="35.43" rerouteNo="1" devices="tripinfo_carIn12900:1 routing_carIn12900:1" vType="default_016" speedFactor="1.03" vaporized=""/>
    <tripinfo id="h15382c1:3" depart="57637.00" departLane="124812856#0_1" departPos="5.10" departSpeed="0.00" departDelay="14.80" arrival="57736.00" arrivalLane="-653473569#5_1" arrivalPos="73.05" arrivalSpeed="13.59" duration="99.00" routeLength="450.40" waitingTime="37.00" waitingCount="3" stopTime="0.00" timeLoss="66.47" rerouteNo="1" devices="tripinfo_h15382c1:3 routing_h15382c1:3" vType="default_016" speedFactor="1.03" vaporized=""/>
    <tripinfo id="carIn106665:1" depart="57659.00" departLane="266565295#5_1" departPos="5.10" departSpeed="0.00" departDelay="1.80" arrival="57738.00" arrivalLane="24693977#1_1" arrivalPos="96.83" arrivalSpeed="13.58" duration="79.00" routeLength="834.40" waitingTime="0.00" waitingCount="0" stopTime="0.00" timeLoss="16.20" rerouteNo="1" devices="tripinfo_carIn106665:1 routing_carIn106665:1" vType="default_016" speedFactor="0.98" vaporized=""/>
    <tripinfo id="carIn3969:1" depart="57640.00" departLane="124812856#0_1" departPos="5.10" departSpeed="0.00" departDelay="16.30" arrival="57740.00" arrivalLane="-653473569#5_1" arrivalPos="73.05" arrivalSpeed="10.65" duration="100.00" routeLength="450.40" waitingTime="34.00" waitingCount="3" stopTime="0.00" timeLoss="60.87" rerouteNo="1" devices="tripinfo_carIn3969:1 routing_carIn3969:1" vType="default_016" speedFactor="0.86" vaporized=""/>
    <tripinfo id="h317c2:1" depart="57707.00" departLane="-32978638#0_1" departPos="5.10" departSpeed="0.00" departDelay="0.10" arrival="57744.00" arrivalLane="-266565295#5_1" arrivalPos="172.76" arrivalSpeed="11.24" duration="37.00" routeLength="370.53" waitingTime="0.00" waitingCount="0" stopTime="0.00" timeLoss="5.22" rerouteNo="1" devices="tripinfo_h317c2:1 routing_h317c2:1" vType="default_016" speedFactor="0.88" vaporized=""/>
    <tripinfo id="h9878c1:3" depart="57686.00" departLane="-24693977#1_1" departPos="5.10" departSpeed="0.00" departDelay="0.70" arrival="57750.00" arrivalLane="32978638#0_1" arrivalPos="49.29" arrivalSpeed="15.38" duration="64.00" routeLength="677.49" waitingTime="4.00" waitingCount="1" stopTime="0.00" timeLoss="18.82" rerouteNo="1" devices="tripinfo_h9878c1:3 routing_h9878c1:3" vType="default_016" speedFactor="1.11" vaporized=""/>
    <tripinfo id="carIn114137:1" depart="57634.00" departLane="27920078#0_1" departPos="5.10" departSpeed="0.00" departDelay="3.10" arrival="57757.00" arrivalLane="-83304175#2_1" arrivalPos="189.34" arrivalSpeed="7.30" duration="123.00" routeLength="501.51" waitingTime="57.00" waitingCount="1" stopTime="0.00" timeLoss="71.01" rerouteNo="1" devices="tripinfo_carIn114137:1 routing_carIn114137:1" vType="default_016" speedFactor="0.92" vaporized=""/>
    <tripinfo id="carIn22637:1" depart="57635.00" departLane="27920078#0_1" departPos="5.10" departSpeed="0.00" departDelay="2.50" arrival="57758.00" arrivalLane="-83304175#2_1" arrivalPos="189.34" arrivalSpeed="9.60" duration="123.00" routeLength="501.51" waitingTime="58.00" waitingCount="2" stopTime="0.00" timeLoss="82.35" rerouteNo="1" devices="tripinfo_carIn22637:1 routing_carIn22637:1" vType="default_016" speedFactor="1.16" vaporized=""/>
    <tripinfo id="h20539c1:3" depart="57667.00" departLane="653473569#5_1" departPos="5.10" departSpeed="0.00" departDelay="2.20" arrival="57758.00" arrivalLane="201956811#0_1" arrivalPos="40.40" arrivalSpeed="12.87" duration="91.00" routeLength="313.24" waitingTime="36.00" waitingCount="5" stopTime="0.00" timeLoss="66.58" rerouteNo="1" devices="tripinfo_h20539c1:3 routing_h20539c1:3" vType="default_016" speedFactor="1.00" vaporized=""/>
    <tripinfo id="randUni20090:1" depart="57628.00" departLane="653473569#5_1" departPos="5.10" departSpeed="0.00" departDelay="0.00" arrival="57759.00" arrivalLane="201956811#0_1" arrivalPos="40.40" arrivalSpeed="15.43" duration="131.00" routeLength="313.24" waitingTime="48.00" waitingCount="7" stopTime="0.00" timeLoss="111.62" rerouteNo="1" devices="tripinfo_randUni20090:1 routing_randUni20090:1" vType="random_016" speedFactor="1.22" vaporized=""/>
    <tripinfo id="h9894c1:3" depart="57698.00" departLane="-24693977#1_1" departPos="5.10" departSpeed="0.00" departDelay="0.20" arrival="57759.00" arrivalLane="32978638#0_2" arrivalPos="49.29" arrivalSpeed="15.42" duration="61.00" routeLength="681.81" waitingTime="2.00" waitingCount="1" stopTime="0.00" timeLoss="14.90" rerouteNo="1" devices="tripinfo_h9894c1:3 routing_h9894c1:3" vType="default_016" speedFactor="1.11" vaporized=""/>
    <tripinfo id="carIn56649:1" depart="57643.00" departLane="124812856#0_1" departPos="5.10" departSpeed="0.00" departDelay="19.10" arrival="57760.00" arrivalLane="-653473569#5_1" arrivalPos="73.05" arrivalSpeed="13.22" duration="117.00" routeLength="450.40" waitingTime="46.00" waitingCount="4" stopTime="0.00" timeLoss="82.57" rerouteNo="1" devices="tripinfo_carIn56649:1 routing_carIn56649:1" vType="default_016" speedFactor="0.97" vaporized=""/>
    <tripinfo id="randUni22709:1" depart="57718.00" departLane="315358253#1_1" departPos="5.10" departSpeed="0.00" departDelay="0.20" arrival="57760.00" arrivalLane="32978638#0_1" arrivalPos="49.29" arrivalSpeed="12.91" duration="42.00" routeLength="405.15" waitingTime="1.00" waitingCount="1" stopTime="0.00" timeLoss="11.42" rerouteNo="1" devices="tripinfo_randUni22709:1 routing_randUni22709:1" vType="random_016" speedFactor="0.99" vaporized=""/>
    <tripinfo id="carIn38625:1" depart="57646.00" departLane="124812856#0_1" departPos="5.10" departSpeed="0.00" departDelay="20.50" arrival="57762.00" arrivalLane="-653473569#5_1" arrivalPos="73.05" arrivalSpeed="14.14" duration="116.00" routeLength="450.40" waitingTime="43.00" waitingCount="4" stopTime="0.00" timeLoss="83.73" rerouteNo="1" devices="tripinfo_carIn38625:1 routing_carIn38625:1" vType="default_016" speedFactor="1.05" vaporized=""/>
    <tripinfo id="carIn37268:1" depart="57636.00" departLane="653473569#5_1" departPos="5.10" departSpeed="0.00" departDelay="0.90" arrival="57762.00" arrivalLane="201956811#0_1" arrivalPos="40.40" arrivalSpeed="12.06" duration="126.00" routeLength="313.24" waitingTime="45.00" waitingCount="8" stopTime="0.00" timeLoss="98.80" rerouteNo="1" devices="tripinfo_carIn37268:1 routing_carIn37268:1" vType="default_016" speedFactor="0.87" vaporized=""/>
    <tripinfo id="carIn129760:1" depart="57661.00" departLane="653473569#5_1" departPos="5.10" departSpeed="0.00" departDelay="0.80" arrival="57764.00" arrivalLane="201956811#0_1" arrivalPos="40.40" arrivalSpeed="11.19" duration="103.00" routeLength="313.24" waitingTime="31.00" waitingCount="5" stopTime="0.00" timeLoss="76.30" rerouteNo="1" devices="tripinfo_carIn129760:1 routing_carIn129760:1" vType="default_016" speedFactor="0.90" vaporized=""/>
    <tripinfo id="carIn48979:1" depart="57656.00" departLane="124812856#0_1" departPos="5.10" departSpeed="0.00" departDelay="27.10" arrival="57765.00" arrivalLane="-653473569#5_1" arrivalPos="73.05" arrivalSpeed="12.28" duration="109.00" routeLength="450.40" waitingTime="37.00" waitingCount="4" stopTime="0.00" timeLoss="72.16" rerouteNo="1" devices="tripinfo_carIn48979:1 routing_carIn48979:1" vType="default_016" speedFactor="0.91" vaporized=""/>
    <tripinfo id="h134c1:3" depart="57721.00" departLane="315358253#1_1" departPos="5.10" departSpeed="0.00" departDelay="1.60" arrival="57766.00" arrivalLane="32978638#0_1" arrivalPos="49.29" arrivalSpeed="13.91" duration="45.00" routeLength="405.15" waitingTime="5.00" waitingCount="1" stopTime="0.00" timeLoss="16.36" rerouteNo="1" devices="tripinfo_h134c1:3 routing_h134c1:3" vType="default_016" speedFactor="1.08" vaporized=""/>
    <tripinfo id="carIn75079:1" depart="57747.00" departLane="-173169611#0_1" departPos="5.10" departSpeed="0.00" departDelay="0.60" arrival="57766.00" arrivalLane="201956820_1" arrivalPos="48.33" arrivalSpeed="13.94" duration="19.00" routeLength="122.35" waitingTime="2.00" waitingCount="1" stopTime="0.00" timeLoss="9.20" rerouteNo="0" devices="tripinfo_carIn75079:1 routing_carIn75079:1" vType="default_016" speedFactor="1.02" vaporized=""/>
    <tripinfo id="carIn64859:1" depart="57653.00" departLane="124812856#0_1" departPos="5.10" departSpeed="0.00" departDelay="24.60" arrival="57767.00" arrivalLane="-653473569#5_1" arrivalPos="73.05" arrivalSpeed="13.82" duration="114.00" routeLength="450.40" waitingTime="31.00" waitingCount="4" stopTime="0.00" timeLoss="81.70" rerouteNo="1" devices="tripinfo_carIn64859:1 routing_carIn64859:1" vType="default_016" speedFactor="1.04" vaporized=""/>