<?xml version="1.0" encoding="UTF-8"?>

<!-- generated on 2023-08-29 12:29:57 by Eclipse SUMO libsumo Version 1.18.0
<configuration xmlns:xsi="http://www.w3.org/2001/XMLSchema-instance" xsi:noNamespaceSchemaLocation="http://sumo.dlr.de/xsd/libsumoConfiguration.xsd">

    <input>
        <net-file value="/home/stefan/RESCO/./environments/ingolstadt7/ingolstadt7.net.xml"/>
        <route-files value="/home/stefan/RESCO/./environments/ingolstadt7/ingolstadt7.rou.xml"/>
    </input>

    <output>
        <tripinfo-output value="/home/stefan/results/ITRPO-tr0-ingolstadt7-7-drq_norm-wait_norm/tripinfo_1.xml"/>
        <tripinfo-output.write-unfinished value="true"/>
    </output>

    <time>
        <begin value="57600"/>
        <end value="61200"/>
    </time>

    <processing>
        <time-to-teleport value="-1"/>
    </processing>

    <report>
        <no-warnings value="True"/>
        <no-step-log value="True"/>
    </report>

    <random_number>
        <random value="true"/>
    </random_number>

</configuration>
-->

<tripinfos xmlns:xsi="http://www.w3.org/2001/XMLSchema-instance" xsi:noNamespaceSchemaLocation="http://sumo.dlr.de/xsd/tripinfo_file.xsd">
    <tripinfo id="carIn105842:1" depart="57601.00" departLane="653473569#5_1" departPos="5.10" departSpeed="0.00" departDelay="0.80" arrival="57629.00" arrivalLane="201956811#0_1" arrivalPos="40.40" arrivalSpeed="13.44" duration="28.00" routeLength="313.24" waitingTime="0.00" waitingCount="0" stopTime="0.00" timeLoss="5.23" rerouteNo="1" devices="tripinfo_carIn105842:1 routing_carIn105842:1" vType="default_016" speedFactor="1.04" vaporized=""/>
    <tripinfo id="carIn89578:1" depart="57614.00" departLane="124812856#0_1" departPos="5.10" departSpeed="0.00" departDelay="3.60" arrival="57634.00" arrivalLane="201956810_1" arrivalPos="71.65" arrivalSpeed="14.81" duration="20.00" routeLength="134.91" waitingTime="1.00" waitingCount="1" stopTime="0.00" timeLoss="10.29" rerouteNo="1" devices="tripinfo_carIn89578:1 routing_carIn89578:1" vType="default_016" speedFactor="1.07" vaporized=""/>
    <tripinfo id="carIn28951:1" depart="57606.00" departLane="10425609#0_1" departPos="5.10" departSpeed="0.00" departDelay="0.20" arrival="57635.00" arrivalLane="-653473569#5_1" arrivalPos="73.05" arrivalSpeed="13.81" duration="29.00" routeLength="312.95" waitingTime="0.00" waitingCount="0" stopTime="0.00" timeLoss="4.97" rerouteNo="1" devices="tripinfo_carIn28951:1 routing_carIn28951:1" vType="default_016" speedFactor="1.00" vaporized=""/>
    <tripinfo id="h20232c1:2" depart="57634.00" departLane="-173169611#0_1" departPos="5.10" departSpeed="0.00" departDelay="0.50" arrival="57656.00" arrivalLane="201956820_1" arrivalPos="48.33" arrivalSpeed="12.82" duration="22.00" routeLength="122.35" waitingTime="4.00" waitingCount="1" stopTime="0.00" timeLoss="11.94" rerouteNo="0" devices="tripinfo_h20232c1:2 routing_h20232c1:2" vType="default_016" speedFactor="0.99" vaporized=""/>
    <tripinfo id="carIn106322:1" depart="57614.00" departLane="653473569#5_1" departPos="5.10" departSpeed="0.00" departDelay="2.20" arrival="57659.00" arrivalLane="201956811#0_1" arrivalPos="40.40" arrivalSpeed="13.61" duration="45.00" routeLength="313.24" waitingTime="7.00" waitingCount="2" stopTime="0.00" timeLoss="22.05" rerouteNo="1" devices="tripinfo_carIn106322:1 routing_carIn106322:1" vType="default_016" speedFactor="1.03" vaporized=""/>
    <tripinfo id="h15454c2:3" depart="57612.00" departLane="24608844_1" departPos="5.10" departSpeed="0.00" departDelay="0.50" arrival="57662.00" arrivalLane="32978638#0_1" arrivalPos="49.29" arrivalSpeed="10.57" duration="50.00" routeLength="354.79" waitingTime="0.00" waitingCount="0" stopTime="0.00" timeLoss="9.31" rerouteNo="1" devices="tripinfo_h15454c2:3 routing_h15454c2:3" vType="default_016" speedFactor="0.83" vaporized=""/>
    <tripinfo id="carIn107084:1" depart="57601.00" departLane="124812856#0_1" departPos="5.10" departSpeed="0.00" departDelay="0.70" arrival="57664.00" arrivalLane="-653473569#5_1" arrivalPos="73.05" arrivalSpeed="12.77" duration="63.00" routeLength="450.40" waitingTime="18.00" waitingCount="2" stopTime="0.00" timeLoss="29.58" rerouteNo="1" devices="tripinfo_carIn107084:1 routing_carIn107084:1" vType="default_016" speedFactor="1.00" vaporized=""/>
    <tripinfo id="carIn925:1" depart="57649.00" departLane="124812856#0_1" departPos="5.10" departSpeed="0.00" departDelay="22.90" arrival="57664.00" arrivalLane="201956810_1" arrivalPos="71.65" arrivalSpeed="12.49" duration="15.00" routeLength="134.91" waitingTime="0.00" waitingCount="0" stopTime="0.00" timeLoss="4.08" rerouteNo="1" devices="tripinfo_carIn925:1 routing_carIn925:1" vType="default_016" speedFactor="0.96" vaporized=""/>
    <tripinfo id="carIn77943:1" depart="57608.00" departLane="124812856#0_1" departPos="5.10" departSpeed="0.00" departDelay="2.50" arrival="57669.00" arrivalLane="-653473569#5_1" arrivalPos="73.05" arrivalSpeed="10.70" duration="61.00" routeLength="450.40" waitingTime="6.00" waitingCount="1" stopTime="0.00" timeLoss="19.12" rerouteNo="1" devices="tripinfo_carIn77943:1 routing_carIn77943:1" vType="default_016" speedFactor="0.81" vaporized=""/>
    <tripinfo id="h645c1:1" depart="57622.00" departLane="266565295#5_1" departPos="5.10" departSpeed="0.00" departDelay="0.40" arrival="57669.00" arrivalLane="-315358253#1_1" arrivalPos="63.90" arrivalSpeed="13.92" duration="47.00" routeLength="547.76" waitingTime="0.00" waitingCount="0" stopTime="0.00" timeLoss="7.72" rerouteNo="1" devices="tripinfo_h645c1:1 routing_h645c1:1" vType="default_016" speedFactor="1.04" vaporized=""/>
    <tripinfo id="carIn28488:1" depart="57611.00" departLane="653473569#5_1" departPos="5.10" departSpeed="0.00" departDelay="0.80" arrival="57671.00" arrivalLane="201956820_1" arrivalPos="48.33" arrivalSpeed="11.01" duration="60.00" routeLength="437.07" waitingTime="6.00" waitingCount="2" stopTime="0.00" timeLoss="20.11" rerouteNo="1" devices="tripinfo_carIn28488:1 routing_carIn28488:1" vType="default_016" speedFactor="0.81" vaporized=""/>
    <tripinfo id="randUni10474:1" depart="57605.00" departLane="124812856#0_1" departPos="5.10" departSpeed="0.00" departDelay="0.20" arrival="57674.00" arrivalLane="-653473569#5_1" arrivalPos="73.05" arrivalSpeed="13.66" duration="69.00" routeLength="450.40" waitingTime="13.00" waitingCount="2" stopTime="0.00" timeLoss="35.42" rerouteNo="1" devices="tripinfo_randUni10474:1 routing_randUni10474:1" vType="random_016" speedFactor="0.99" vaporized=""/>
    <tripinfo id="carIn81046:1" depart="57611.00" departLane="124812856#0_1" departPos="5.10" departSpeed="0.00" departDelay="2.50" arrival="57676.00" arrivalLane="-653473569#5_1" arrivalPos="73.05" arrivalSpeed="16.21" duration="65.00" routeLength="450.40" waitingTime="6.00" waitingCount="2" stopTime="0.00" timeLoss="36.61" rerouteNo="1" devices="tripinfo_carIn81046:1 routing_carIn81046:1" vType="default_016" speedFactor="1.18" vaporized=""/>
    <tripinfo id="carIn55461:1" depart="57652.00" departLane="10425609#0_1" departPos="5.10" departSpeed="0.00" departDelay="0.30" arrival="57679.00" arrivalLane="201956810_1" arrivalPos="71.65" arrivalSpeed="12.99" duration="27.00" routeLength="255.78" waitingTime="0.00" waitingCount="0" stopTime="0.00" timeLoss="6.44" rerouteNo="1" devices="tripinfo_carIn55461:1 routing_carIn55461:1" vType="default_016" speedFactor="0.97" vaporized=""/>
    <tripinfo id="carIn25202:1" depart="57629.00" departLane="315358253#1_1" departPos="5.10" departSpeed="0.00" departDelay="1.50" arrival="57682.00" arrivalLane="32978638#0_1" arrivalPos="49.29" arrivalSpeed="10.78" duration="53.00" routeLength="405.15" waitingTime="6.00" waitingCount="1" stopTime="0.00" timeLoss="16.11" rerouteNo="1" devices="tripinfo_carIn25202:1 routing_carIn25202:1" vType="default_016" speedFactor="0.84" vaporized=""/>
    <tripinfo id="carIn77438:1" depart="57618.00" departLane="124812856#0_1" departPos="5.10" departSpeed="0.00" departDelay="5.10" arrival="57685.00" arrivalLane="-653473569#5_1" arrivalPos="73.05" arrivalSpeed="12.60" duration="67.00" routeLength="450.40" waitingTime="4.00" waitingCount="2" stopTime="0.00" timeLoss="30.37" rerouteNo="1" devices="tripinfo_carIn77438:1 routing_carIn77438:1" vType="default_016" speedFactor="0.92" vaporized=""/>
    <tripinfo id="carIn33538:1" depart="57671.00" departLane="37386279_1" departPos="5.10" departSpeed="0.00" departDelay="0.30" arrival="57686.00" arrivalLane="-24634414#4_1" arrivalPos="22.88" arrivalSpeed="8.43" duration="15.00" routeLength="125.23" waitingTime="0.00" waitingCount="0" stopTime="0.00" timeLoss="3.92" rerouteNo="0" devices="tripinfo_carIn33538:1 routing_carIn33538:1" vType="default_016" speedFactor="1.09" vaporized=""/>
    <tripinfo id="h19804c1:3" depart="57623.00" departLane="124812856#0_1" departPos="5.10" departSpeed="0.00" departDelay="7.50" arrival="57687.00" arrivalLane="-653473569#5_1" arrivalPos="73.05" arrivalSpeed="13.21" duration="64.00" routeLength="450.40" waitingTime="3.00" waitingCount="1" stopTime="0.00" timeLoss="29.53" rerouteNo="1" devices="tripinfo_h19804c1:3 routing_h19804c1:3" vType="default_016" speedFactor="0.98" vaporized=""/>
    <tripinfo id="carIn5482:1" depart="57617.00" departLane="653473569#5_1" departPos="5.10" departSpeed="0.00" departDelay="3.60" arrival="57688.00" arrivalLane="201956811#0_1" arrivalPos="40.40" arrivalSpeed="11.39" duration="71.00" routeLength="313.24" waitingTime="19.00" waitingCount="4" stopTime="0.00" timeLoss="44.00" rerouteNo="1" devices="tripinfo_carIn5482:1 routing_carIn5482:1" vType="default_016" speedFactor="0.88" vaporized=""/>
    <tripinfo id="carIn131078:1" depart="57673.00" departLane="124812856#0_1" departPos="5.10" departSpeed="0.00" departDelay="37.60" arrival="57688.00" arrivalLane="201956810_1" arrivalPos="71.65" arrivalSpeed="13.28" duration="15.00" routeLength="134.91" waitingTime="0.00" waitingCount="0" stopTime="0.00" timeLoss="4.29" rerouteNo="1" devices="tripinfo_carIn131078:1 routing_carIn131078:1" vType="default_016" speedFactor="1.00" vaporized=""/>
    <tripinfo id="carIn36103:1" depart="57620.00" departLane="653473569#5_1" departPos="5.10" departSpeed="0.00" departDelay="4.00" arrival="57690.00" arrivalLane="201956811#0_1" arrivalPos="40.40" arrivalSpeed="13.35" duration="70.00" routeLength="313.24" waitingTime="16.00" waitingCount="4" stopTime="0.00" timeLoss="45.22" rerouteNo="1" devices="tripinfo_carIn36103:1 routing_carIn36103:1" vType="default_016" speedFactor="0.96" vaporized=""/>
    <tripinfo id="carIn767:1" depart="57628.00" departLane="124812856#0_1" departPos="5.10" departSpeed="0.00" departDelay="9.50" arrival="57690.00" arrivalLane="-653473569#5_1" arrivalPos="73.05" arrivalSpeed="11.69" duration="62.00" routeLength="450.40" waitingTime="0.00" waitingCount="0" stopTime="0.00" timeLoss="23.01" rerouteNo="1" devices="tripinfo_carIn767:1 routing_carIn767:1" vType="default_016" speedFactor="0.85" vaporized=""/>
    <tripinfo id="carIn79400:1" depart="57604.00" departLane="-24693977#1_1" departPos="5.10" departSpeed="0.00" departDelay="0.10" arrival="57691.00" arrivalLane="-266565295#5_2" arrivalPos="172.76" arrivalSpeed="10.79" duration="87.00" routeLength="840.03" waitingTime="0.00" waitingCount="0" stopTime="0.00" timeLoss="8.08" rerouteNo="1" devices="tripinfo_carIn79400:1 routing_carIn79400:1" vType="default_016" speedFactor="0.79" vaporized=""/>
    <tripinfo id="carIn113711:1" depart="57601.00" departLane="-24693977#1_1" departPos="5.10" departSpeed="0.00" departDelay="0.70" arrival="57692.00" arrivalLane="-266565295#5_1" arrivalPos="172.76" arrivalSpeed="9.82" duration="91.00" routeLength="840.03" waitingTime="2.00" waitingCount="1" stopTime="0.00" timeLoss="12.81" rerouteNo="1" devices="tripinfo_carIn113711:1 routing_carIn113711:1" vType="default_016" speedFactor="0.79" vaporized=""/>
    <tripinfo id="carIn102997:1" depart="57623.00" departLane="653473569#5_1" departPos="5.10" departSpeed="0.00" departDelay="4.80" arrival="57692.00" arrivalLane="201956811#0_1" arrivalPos="40.40" arrivalSpeed="15.86" duration="69.00" routeLength="313.24" waitingTime="13.00" waitingCount="4" stopTime="0.00" timeLoss="48.12" rerouteNo="1" devices="tripinfo_carIn102997:1 routing_carIn102997:1" vType="default_016" speedFactor="1.18" vaporized=""/>
    <tripinfo id="carIn10158:1" depart="57622.00" departLane="-24693977#1_1" departPos="5.10" departSpeed="0.00" departDelay="0.80" arrival="57692.00" arrivalLane="-266565295#5_2" arrivalPos="172.76" arrivalSpeed="12.33" duration="70.00" routeLength="840.03" waitingTime="0.00" waitingCount="0" stopTime="0.00" timeLoss="10.51" rerouteNo="1" devices="tripinfo_carIn10158:1 routing_carIn10158:1" vType="default_016" speedFactor="1.03" vaporized=""/>
    <tripinfo id="carIn52610:1" depart="57615.00" departLane="-24693977#1_1" departPos="5.10" departSpeed="0.00" departDelay="0.10" arrival="57694.00" arrivalLane="-266565295#5_1" arrivalPos="172.76" arrivalSpeed="13.99" duration="79.00" routeLength="840.03" waitingTime="0.00" waitingCount="0" stopTime="0.00" timeLoss="19.79" rerouteNo="1" devices="tripinfo_carIn52610:1 routing_carIn52610:1" vType="default_016" speedFactor="1.05" vaporized=""/>
    <tripinfo id="carIn75554:1" depart="57626.00" departLane="653473569#5_1" departPos="5.10" departSpeed="0.00" departDelay="5.20" arrival="57698.00" arrivalLane="201956811#0_1" arrivalPos="40.40" arrivalSpeed="15.82" duration="72.00" routeLength="313.24" waitingTime="18.00" waitingCount="5" stopTime="0.00" timeLoss="52.00" rerouteNo="1" devices="tripinfo_carIn75554:1 routing_carIn75554:1" vType="default_016" speedFactor="1.18" vaporized=""/>
    <tripinfo id="carIn96537:1" depart="57615.00" departLane="124812856#0_1" departPos="5.10" departSpeed="0.00" departDelay="3.80" arrival="57699.00" arrivalLane="202070434#2_1" arrivalPos="39.03" arrivalSpeed="13.38" duration="84.00" routeLength="569.75" waitingTime="20.00" waitingCount="2" stopTime="0.00" timeLoss="40.95" rerouteNo="1" devices="tripinfo_carIn96537:1 routing_carIn96537:1" vType="default_016" speedFactor="0.97" vaporized=""/>
    <tripinfo id="carIn26410:1" depart="57620.00" departLane="124812856#0_1" departPos="5.10" departSpeed="0.00" departDelay="6.50" arrival="57699.00" arrivalLane="202070434#2_2" arrivalPos="39.03" arrivalSpeed="11.69" duration="79.00" routeLength="569.75" waitingTime="14.00" waitingCount="1" stopTime="0.00" timeLoss="31.36" rerouteNo="1" devices="tripinfo_carIn26410:1 routing_carIn26410:1" vType="default_016" speedFactor="0.88" vaporized=""/>
    <tripinfo id="carIn128705:1" depart="57627.00" departLane="124812856#0_1" departPos="5.10" departSpeed="0.00" departDelay="8.60" arrival="57701.00" arrivalLane="202070434#2_2" arrivalPos="39.03" arrivalSpeed="13.36" duration="74.00" routeLength="569.75" waitingTime="9.00" waitingCount="1" stopTime="0.00" timeLoss="31.72" rerouteNo="1" devices="tripinfo_carIn128705:1 routing_carIn128705:1" vType="default_016" speedFactor="0.98" vaporized=""/>
    <tripinfo id="carIn12152:1" depart="57647.00" departLane="24599188#0.94_1" departPos="5.10" departSpeed="0.00" departDelay="0.50" arrival="57701.00" arrivalLane="24693977#1_1" arrivalPos="96.83" arrivalSpeed="13.25" duration="54.00" routeLength="511.77" waitingTime="0.00" waitingCount="0" stopTime="0.00" timeLoss="7.92" rerouteNo="1" devices="tripinfo_carIn12152:1 routing_carIn12152:1" vType="default_016" speedFactor="1.04" vaporized=""/>
    <tripinfo id="carIn51024:1" depart="57624.00" departLane="124812856#0_1" departPos="5.10" departSpeed="0.00" departDelay="7.90" arrival="57702.00" arrivalLane="202070434#2_1" arrivalPos="39.03" arrivalSpeed="12.72" duration="78.00" routeLength="569.75" waitingTime="14.00" waitingCount="1" stopTime="0.00" timeLoss="34.61" rerouteNo="1" devices="tripinfo_carIn51024:1 routing_carIn51024:1" vType="default_016" speedFactor="0.96" vaporized=""/>
    <tripinfo id="h15382c1:3" depart="57637.00" departLane="124812856#0_1" departPos="5.10" departSpeed="0.00" departDelay="14.80" arrival="57702.00" arrivalLane="-653473569#5_1" arrivalPos="73.05" arrivalSpeed="14.63" duration="65.00" routeLength="450.40" waitingTime="13.00" waitingCount="2" stopTime="0.00" timeLoss="33.56" rerouteNo="1" devices="tripinfo_h15382c1:3 routing_h15382c1:3" vType="default_016" speedFactor="1.05" vaporized=""/>
    <tripinfo id="randUni20090:1" depart="57629.00" departLane="653473569#5_1" departPos="5.10" departSpeed="0.00" departDelay="1.00" arrival="57702.00" arrivalLane="201956811#0_1" arrivalPos="40.40" arrivalSpeed="14.35" duration="73.00" routeLength="313.24" waitingTime="15.00" waitingCount="5" stopTime="0.00" timeLoss="49.18" rerouteNo="1" devices="tripinfo_randUni20090:1 routing_randUni20090:1" vType="random_016" speedFactor="1.04" vaporized=""/>
    <tripinfo id="carIn107842:1" depart="57634.00" departLane="124812856#0_1" departPos="5.10" departSpeed="0.00" departDelay="12.90" arrival="57705.00" arrivalLane="-653473569#5_1" arrivalPos="73.05" arrivalSpeed="11.58" duration="71.00" routeLength="450.40" waitingTime="10.00" waitingCount="2" stopTime="0.00" timeLoss="34.17" rerouteNo="1" devices="tripinfo_carIn107842:1 routing_carIn107842:1" vType="default_016" speedFactor="0.90" vaporized=""/>
    <tripinfo id="carIn124416:1" depart="57663.00" departLane="-173169611#0_1" departPos="5.10" departSpeed="0.00" departDelay="0.50" arrival="57706.00" arrivalLane="201956820_1" arrivalPos="48.33" arrivalSpeed="13.62" duration="43.00" routeLength="122.35" waitingTime="24.00" waitingCount="1" stopTime="0.00" timeLoss="34.11" rerouteNo="0" devices="tripinfo_carIn124416:1 routing_carIn124416:1" vType="default_016" speedFactor="1.07" vaporized=""/>
    <tripinfo id="carIn3969:1" depart="57640.00" departLane="124812856#0_1" departPos="5.10" departSpeed="0.00" departDelay="16.30" arrival="57707.00" arrivalLane="-653473569#5_1" arrivalPos="73.05" arrivalSpeed="13.15" duration="67.00" routeLength="450.40" waitingTime="7.00" waitingCount="2" stopTime="0.00" timeLoss="33.14" rerouteNo="1" devices="tripinfo_carIn3969:1 routing_carIn3969:1" vType="default_016" speedFactor="0.99" vaporized=""/>
    <tripinfo id="carIn55090:1" depart="57666.00" departLane="-173169611#0_1" departPos="5.10" departSpeed="0.00" departDelay="1.40" arrival="57708.00" arrivalLane="201956820_1" arrivalPos="48.33" arrivalSpeed="14.44" duration="42.00" routeLength="122.35" waitingTime="23.00" waitingCount="1" stopTime="0.00" timeLoss="33.41" rerouteNo="0" devices="tripinfo_carIn55090:1 routing_carIn55090:1" vType="default_016" speedFactor="1.10" vaporized=""/>
    <tripinfo id="carIn38625:1" depart="57646.00" departLane="124812856#0_1" departPos="5.10" departSpeed="0.00" departDelay="20.50" arrival="57710.00" arrivalLane="-653473569#5_1" arrivalPos="73.05" arrivalSpeed="13.14" duration="64.00" routeLength="450.40" waitingTime="4.00" waitingCount="2" stopTime="0.00" timeLoss="30.94" rerouteNo="1" devices="tripinfo_carIn38625:1 routing_carIn38625:1" vType="default_016" speedFactor="1.02" vaporized=""/>
    <tripinfo id="h21130c2:1" depart="57630.00" departLane="10425609#0_1" departPos="5.10" departSpeed="0.00" departDelay="0.10" arrival="57711.00" arrivalLane="202070434#2_2" arrivalPos="39.03" arrivalSpeed="15.07" duration="81.00" routeLength="432.30" waitingTime="25.00" waitingCount="3" stopTime="0.00" timeLoss="51.37" rerouteNo="1" devices="tripinfo_h21130c2:1 routing_h21130c2:1" vType="default_016" speedFactor="1.09" vaporized=""/>
    <tripinfo id="carIn37268:1" depart="57636.00" departLane="653473569#5_1" departPos="5.10" departSpeed="0.00" departDelay="0.90" arrival="57711.00" arrivalLane="201956811#0_1" arrivalPos="40.40" arrivalSpeed="14.67" duration="75.00" routeLength="313.24" waitingTime="18.00" waitingCount="5" stopTime="0.00" timeLoss="51.99" rerouteNo="1" devices="tripinfo_carIn37268:1 routing_carIn37268:1" vType="default_016" speedFactor="1.06" vaporized=""/>
    <tripinfo id="h21989c1:1" depart="57631.00" departLane="124812856#0_1" departPos="5.10" departSpeed="0.00" departDelay="10.60" arrival="57712.00" arrivalLane="202070434#2_1" arrivalPos="39.03" arrivalSpeed="10.29" duration="81.00" routeLength="569.75" waitingTime="13.00" waitingCount="2" stopTime="0.00" timeLoss="27.36" rerouteNo="1" devices="tripinfo_h21989c1:1 routing_h21989c1:1" vType="default_016" speedFactor="0.77" vaporized=""/>
    <tripinfo id="carIn115641:1" depart="57614.00" departLane="-24693977#1_1" departPos="5.10" departSpeed="0.00" departDelay="0.90" arrival="57714.00" arrivalLane="-266565295#5_1" arrivalPos="172.76" arrivalSpeed="9.74" duration="100.00" routeLength="840.03" waitingTime="1.00" waitingCount="1" stopTime="0.00" timeLoss="13.90" rerouteNo="1" devices="tripinfo_carIn115641:1 routing_carIn115641:1" vType="default_016" speedFactor="0.71" vaporized=""/>
    <tripinfo id="60R.41" depart="57623.00" departLane="27920078#0_1" departPos="12.10" departSpeed="0.00" departDelay="0.30" arrival="57716.00" arrivalLane="201956811#0_1" arrivalPos="40.40" arrivalSpeed="12.78" duration="93.00" routeLength="425.03" waitingTime="35.00" waitingCount="1" stopTime="0.00" timeLoss="61.29" rerouteNo="1" devices="tripinfo_60R.41 routing_60R.41" vType="bus" speedFactor="1.00" vaporized=""/>
    <tripinfo id="carIn114137:1" depart="57634.00" departLane="27920078#0_1" departPos="5.10" departSpeed="0.00" departDelay="3.10" arrival="57719.00" arrivalLane="-83304175#2_1" arrivalPos="189.34" arrivalSpeed="9.21" duration="85.00" routeLength="501.51" waitingTime="28.00" waitingCount="1" stopTime="0.00" timeLoss="44.56" rerouteNo="1" devices="tripinfo_carIn114137:1 routing_carIn114137:1" vType="default_016" speedFactor="1.18" vaporized=""/>
    <tripinfo id="h3688c1:1" depart="57679.00" departLane="315358253#1_1" departPos="5.10" departSpeed="0.00" departDelay="0.50" arrival="57720.00" arrivalLane="32978638#0_1" arrivalPos="49.29" arrivalSpeed="14.30" duration="41.00" routeLength="405.15" waitingTime="0.00" waitingCount="0" stopTime="0.00" timeLoss="11.32" rerouteNo="1" devices="tripinfo_h3688c1:1 routing_h3688c1:1" vType="default_016" speedFactor="1.04" vaporized=""/>
    <tripinfo id="carIn56649:1" depart="57643.00" departLane="124812856#0_1" departPos="5.10" departSpeed="0.00" departDelay="19.10" arrival="57724.00" arrivalLane="-653473569#5_1" arrivalPos="73.05" arrivalSpeed="12.23" duration="81.00" routeLength="450.40" waitingTime="9.00" waitingCount="3" stopTime="0.00" timeLoss="45.73" rerouteNo="1" devices="tripinfo_carIn56649:1 routing_carIn56649:1" vType="default_016" speedFactor="0.95" vaporized=""/>
    <tripinfo id="carIn22637:1" depart="57635.00" departLane="27920078#0_1" departPos="5.10" departSpeed="0.00" departDelay="2.50" arrival="57725.00" arrivalLane="-83304175#2_1" arrivalPos="189.34" arrivalSpeed="8.43" duration="90.00" routeLength="501.51" waitingTime="28.00" waitingCount="3" stopTime="0.00" timeLoss="44.82" rerouteNo="1" devices="tripinfo_carIn22637:1 routing_carIn22637:1" vType="default_016" speedFactor="1.05" vaporized=""/>
    <tripinfo id="h15353c2:1" depart="57661.00" departLane="124812856#0_1" departPos="5.10" departSpeed="0.00" departDelay="30.30" arrival="57726.00" arrivalLane="-653473569#5_1" arrivalPos="73.05" arrivalSpeed="13.98" duration="65.00" routeLength="450.40" waitingTime="5.00" waitingCount="2" stopTime="0.00" timeLoss="33.91" rerouteNo="1" devices="tripinfo_h15353c2:1 routing_h15353c2:1" vType="default_016" speedFactor="1.09" vaporized=""/>
    <tripinfo id="carIn12900:1" depart="57692.00" departLane="124812856#0_1" departPos="5.10" departSpeed="0.00" departDelay="43.80" arrival="57733.00" arrivalLane="201956810_1" arrivalPos="71.65" arrivalSpeed="11.79" duration="41.00" routeLength="134.91" waitingTime="24.00" waitingCount="1" stopTime="0.00" timeLoss="29.14" rerouteNo="1" devices="tripinfo_carIn12900:1 routing_carIn12900:1" vType="default_016" speedFactor="0.91" vaporized=""/>
    <tripinfo id="carIn17767:1" depart="57650.00" departLane="124812856#0_1" departPos="5.10" departSpeed="0.00" departDelay="22.80" arrival="57735.00" arrivalLane="-653473569#5_1" arrivalPos="73.05" arrivalSpeed="12.54" duration="85.00" routeLength="450.40" waitingTime="11.00" waitingCount="1" stopTime="0.00" timeLoss="49.45" rerouteNo="1" devices="tripinfo_carIn17767:1 routing_carIn17767:1" vType="default_016" speedFactor="0.94" vaporized=""/>
    <tripinfo id="carIn48979:1" depart="57655.00" departLane="124812856#0_1" departPos="5.10" departSpeed="0.00" departDelay="26.10" arrival="57737.00" arrivalLane="-653473569#5_1" arrivalPos="73.05" arrivalSpeed="15.32" duration="82.00" routeLength="450.40" waitingTime="9.00" waitingCount="1" stopTime="0.00" timeLoss="53.27" rerouteNo="1" devices="tripinfo_carIn48979:1 routing_carIn48979:1" vType="default_016" speedFactor="1.19" vaporized=""/>
    <tripinfo id="h20540c1:1" depart="57634.00" departLane="10425609#0_1" departPos="5.10" departSpeed="0.00" departDelay="0.50" arrival="57744.00" arrivalLane="-653473569#5_1" arrivalPos="73.05" arrivalSpeed="12.86" duration="110.00" routeLength="312.95" waitingTime="53.00" waitingCount="4" stopTime="0.00" timeLoss="85.54" rerouteNo="1" devices="tripinfo_h20540c1:1 routing_h20540c1:1" vType="default_016" speedFactor="0.98" vaporized=""/>
    <tripinfo id="carIn106665:1" depart="57659.00" departLane="266565295#5_1" departPos="5.10" departSpeed="0.00" departDelay="1.80" arrival="57746.00" arrivalLane="24693977#1_1" arrivalPos="96.83" arrivalSpeed="12.90" duration="87.00" routeLength="834.40" waitingTime="0.00" waitingCount="0" stopTime="0.00" timeLoss="21.37" rerouteNo="1" devices="tripinfo_carIn106665:1 routing_carIn106665:1" vType="default_016" speedFactor="0.94" vaporized=""/>
    <tripinfo id="carIn7887:1" depart="57661.00" departLane="27920078#0_1" departPos="5.10" departSpeed="0.00" departDelay="0.50" arrival="57746.00" arrivalLane="-83304175#2_1" arrivalPos="189.34" arrivalSpeed="8.73" duration="85.00" routeLength="501.51" waitingTime="23.00" waitingCount="2" stopTime="0.00" timeLoss="43.04" rerouteNo="1" devices="tripinfo_carIn7887:1 routing_carIn7887:1" vType="default_016" speedFactor="1.13" vaporized=""/>
    <tripinfo id="carIn12775:1" depart="57676.00" departLane="10425609#0_1" departPos="5.10" departSpeed="0.00" departDelay="0.60" arrival="57747.00" arrivalLane="-653473569#5_1" arrivalPos="73.05" arrivalSpeed="12.40" duration="71.00" routeLength="312.95" waitingTime="21.00" waitingCount="4" stopTime="0.00" timeLoss="45.46" rerouteNo="1" devices="tripinfo_carIn12775:1 routing_carIn12775:1" vType="default_016" speedFactor="0.96" vaporized=""/>
    <tripinfo id="60.39" depart="57643.00" departLane="10425609#0_1" departPos="12.10" departSpeed="0.00" departDelay="0.50" arrival="57748.00" arrivalLane="202070434#2_1" arrivalPos="39.03" arrivalSpeed="13.66" duration="105.00" routeLength="425.30" waitingTime="48.00" waitingCount="4" stopTime="0.00" timeLoss="73.44" rerouteNo="1" devices="tripinfo_60.39 routing_60.39" vType="bus" speedFactor="1.00" vaporized=""/>
    <tripinfo id="h3568c1:3" depart="57656.00" departLane="266565295#5_1" departPos="5.10" departSpeed="0.00" departDelay="0.80" arrival="57749.00" arrivalLane="-24634415_1" arrivalPos="64.03" arrivalSpeed="12.72" duration="93.00" routeLength="810.20" waitingTime="0.00" waitingCount="0" stopTime="0.00" timeLoss="23.59" rerouteNo="1" devices="tripinfo_h3568c1:3 routing_h3568c1:3" vType="default_016" speedFactor="0.93" vaporized=""/>
    <tripinfo id="h317c2:1" depart="57707.00" departLane="-32978638#0_1" departPos="5.10" departSpeed="0.00" departDelay="0.10" arrival="57753.00" arrivalLane="-266565295#5_1" arrivalPos="172.76" arrivalSpeed="12.43" duration="46.00" routeLength="370.53" waitingTime="7.00" waitingCount="1" stopTime="0.00" timeLoss="15.93" rerouteNo="1" devices="tripinfo_h317c2:1 routing_h317c2:1" vType="default_016" speedFactor="0.93" vaporized=""/>
    <tripinfo id="randUni22709:1" depart="57718.00" departLane="315358253#1_1" departPos="5.10" departSpeed="0.00" departDelay="0.20" arrival="57756.00" arrivalLane="32978638#0_1" arrivalPos="49.29" arrivalSpeed="12.88" duration="38.00" routeLength="405.15" waitingTime="0.00" waitingCount="0" stopTime="0.00" timeLoss="7.05" rerouteNo="1" devices="tripinfo_randUni22709:1 routing_randUni22709:1" vType="random_016" speedFactor="0.98" vaporized=""/>
    <tripinfo id="h10915c2:1" depart="57626.00" departLane="315358253#1_1" departPos="5.10" departSpeed="0.00" departDelay="0.20" arrival="57757.00" arrivalLane="-653473569#5_1" arrivalPos="73.05" arrivalSpeed="13.65" duration="131.00" routeLength="970.09" waitingTime="39.00" waitingCount="2" stopTime="0.00" timeLoss="60.85" rerouteNo="1" devices="tripinfo_h10915c2:1 routing_h10915c2:1" vType="default_016" speedFactor="1.02" vaporized=""/>
    <tripinfo id="carIn20106:1" depart="57630.00" departLane="27920078#0_1" departPos="5.10" departSpeed="0.00" departDelay="2.70" arrival="57760.00" arrivalLane="201956820_2" arrivalPos="48.33" arrivalSpeed="13.94" duration="130.00" routeLength="552.44" waitingTime="67.00" waitingCount="3" stopTime="0.00" timeLoss="91.91" rerouteNo="1" devices="tripinfo_carIn20106:1 routing_carIn20106:1" vType="default_016" speedFactor="1.05" vaporized=""/>
    <tripinfo id="carIn129760:1" depart="57661.00" departLane="653473569#5_1" departPos="5.10" departSpeed="0.00" departDelay="0.80" arrival="57760.00" arrivalLane="201956811#0_1" arrivalPos="40.40" arrivalSpeed="12.26" duration="99.00" routeLength="313.24" waitingTime="39.00" waitingCount="4" stopTime="0.00" timeLoss="73.88" rerouteNo="1" devices="tripinfo_carIn129760:1 routing_carIn129760:1" vType="default_016" speedFactor="0.95" vaporized=""/>