<?xml version="1.0" encoding="UTF-8"?>

<!-- generated on 2023-08-29 12:35:32 by Eclipse SUMO libsumo Version 1.18.0
<configuration xmlns:xsi="http://www.w3.org/2001/XMLSchema-instance" xsi:noNamespaceSchemaLocation="http://sumo.dlr.de/xsd/libsumoConfiguration.xsd">

    <input>
        <net-file value="/home/stefan/RESCO/./environments/ingolstadt7/ingolstadt7.net.xml"/>
        <route-files value="/home/stefan/RESCO/./environments/ingolstadt7/ingolstadt7.rou.xml"/>
    </input>

    <output>
        <tripinfo-output value="/home/stefan/results/ITRPO-tr0-ingolstadt7-7-drq_norm-wait_norm/tripinfo_50.xml"/>
        <tripinfo-output.write-unfinished value="true"/>
    </output>

    <time>
        <begin value="57600"/>
        <end value="61200"/>
    </time>

    <processing>
        <time-to-teleport value="-1"/>
    </processing>

    <report>
        <no-warnings value="True"/>
        <no-step-log value="True"/>
    </report>

    <random_number>
        <random value="true"/>
    </random_number>

</configuration>
-->

<tripinfos xmlns:xsi="http://www.w3.org/2001/XMLSchema-instance" xsi:noNamespaceSchemaLocation="http://sumo.dlr.de/xsd/tripinfo_file.xsd">
    <tripinfo id="carIn89578:1" depart="57614.00" departLane="124812856#0_1" departPos="5.10" departSpeed="0.00" departDelay="3.60" arrival="57630.00" arrivalLane="201956810_1" arrivalPos="71.65" arrivalSpeed="13.04" duration="16.00" routeLength="134.91" waitingTime="0.00" waitingCount="0" stopTime="0.00" timeLoss="5.05" rerouteNo="1" devices="tripinfo_carIn89578:1 routing_carIn89578:1" vType="default_016" speedFactor="0.95" vaporized=""/>
    <tripinfo id="carIn28951:1" depart="57606.00" departLane="10425609#0_1" departPos="5.10" departSpeed="0.00" departDelay="0.20" arrival="57635.00" arrivalLane="-653473569#5_1" arrivalPos="73.05" arrivalSpeed="14.23" duration="29.00" routeLength="312.95" waitingTime="0.00" waitingCount="0" stopTime="0.00" timeLoss="6.26" rerouteNo="1" devices="tripinfo_carIn28951:1 routing_carIn28951:1" vType="default_016" speedFactor="1.07" vaporized=""/>
    <tripinfo id="carIn105842:1" depart="57601.00" departLane="653473569#5_1" departPos="5.10" departSpeed="0.00" departDelay="0.80" arrival="57639.00" arrivalLane="201956811#0_1" arrivalPos="40.40" arrivalSpeed="13.97" duration="38.00" routeLength="313.24" waitingTime="3.00" waitingCount="1" stopTime="0.00" timeLoss="14.99" rerouteNo="1" devices="tripinfo_carIn105842:1 routing_carIn105842:1" vType="default_016" speedFactor="1.02" vaporized=""/>
    <tripinfo id="h20232c1:2" depart="57634.00" departLane="-173169611#0_1" departPos="5.10" departSpeed="0.00" departDelay="0.50" arrival="57666.00" arrivalLane="201956820_1" arrivalPos="48.33" arrivalSpeed="12.37" duration="32.00" routeLength="122.35" waitingTime="15.00" waitingCount="1" stopTime="0.00" timeLoss="22.02" rerouteNo="0" devices="tripinfo_h20232c1:2 routing_h20232c1:2" vType="default_016" speedFactor="0.96" vaporized=""/>
    <tripinfo id="carIn106322:1" depart="57614.00" departLane="653473569#5_1" departPos="5.10" departSpeed="0.00" departDelay="2.20" arrival="57669.00" arrivalLane="201956811#0_1" arrivalPos="40.40" arrivalSpeed="12.33" duration="55.00" routeLength="313.24" waitingTime="10.00" waitingCount="3" stopTime="0.00" timeLoss="30.97" rerouteNo="1" devices="tripinfo_carIn106322:1 routing_carIn106322:1" vType="default_016" speedFactor="0.98" vaporized=""/>
    <tripinfo id="carIn5482:1" depart="57617.00" departLane="653473569#5_1" departPos="5.10" departSpeed="0.00" departDelay="3.60" arrival="57671.00" arrivalLane="201956811#0_1" arrivalPos="40.40" arrivalSpeed="14.01" duration="54.00" routeLength="313.24" waitingTime="9.00" waitingCount="3" stopTime="0.00" timeLoss="30.57" rerouteNo="1" devices="tripinfo_carIn5482:1 routing_carIn5482:1" vType="default_016" speedFactor="1.02" vaporized=""/>
    <tripinfo id="carIn925:1" depart="57654.00" departLane="124812856#0_1" departPos="5.10" departSpeed="0.00" departDelay="27.90" arrival="57674.00" arrivalLane="201956810_1" arrivalPos="71.65" arrivalSpeed="12.00" duration="20.00" routeLength="134.91" waitingTime="0.00" waitingCount="0" stopTime="0.00" timeLoss="8.56" rerouteNo="1" devices="tripinfo_carIn925:1 routing_carIn925:1" vType="default_016" speedFactor="0.95" vaporized=""/>
    <tripinfo id="h20540c1:1" depart="57634.00" departLane="10425609#0_1" departPos="5.10" departSpeed="0.00" departDelay="0.50" arrival="57674.00" arrivalLane="-653473569#5_1" arrivalPos="73.05" arrivalSpeed="11.37" duration="40.00" routeLength="312.95" waitingTime="1.00" waitingCount="1" stopTime="0.00" timeLoss="11.81" rerouteNo="1" devices="tripinfo_h20540c1:1 routing_h20540c1:1" vType="default_016" speedFactor="0.88" vaporized=""/>
    <tripinfo id="carIn36103:1" depart="57620.00" departLane="653473569#5_1" departPos="5.10" departSpeed="0.00" departDelay="4.00" arrival="57676.00" arrivalLane="201956811#0_1" arrivalPos="40.40" arrivalSpeed="11.68" duration="56.00" routeLength="313.24" waitingTime="8.00" waitingCount="3" stopTime="0.00" timeLoss="28.42" rerouteNo="1" devices="tripinfo_carIn36103:1 routing_carIn36103:1" vType="default_016" speedFactor="0.87" vaporized=""/>
    <tripinfo id="carIn28488:1" depart="57611.00" departLane="653473569#5_1" departPos="5.10" departSpeed="0.00" departDelay="0.80" arrival="57680.00" arrivalLane="201956820_1" arrivalPos="48.33" arrivalSpeed="12.44" duration="69.00" routeLength="437.07" waitingTime="16.00" waitingCount="3" stopTime="0.00" timeLoss="35.16" rerouteNo="1" devices="tripinfo_carIn28488:1 routing_carIn28488:1" vType="default_016" speedFactor="0.97" vaporized=""/>
    <tripinfo id="carIn25202:1" depart="57629.00" departLane="315358253#1_1" departPos="5.10" departSpeed="0.00" departDelay="1.50" arrival="57682.00" arrivalLane="32978638#0_1" arrivalPos="49.29" arrivalSpeed="13.03" duration="53.00" routeLength="405.15" waitingTime="11.00" waitingCount="1" stopTime="0.00" timeLoss="21.58" rerouteNo="1" devices="tripinfo_carIn25202:1 routing_carIn25202:1" vType="default_016" speedFactor="0.99" vaporized=""/>
    <tripinfo id="h15454c2:3" depart="57612.00" departLane="24608844_1" departPos="5.10" departSpeed="0.00" departDelay="0.50" arrival="57685.00" arrivalLane="32978638#0_1" arrivalPos="49.29" arrivalSpeed="11.92" duration="73.00" routeLength="354.79" waitingTime="22.00" waitingCount="2" stopTime="0.00" timeLoss="34.83" rerouteNo="1" devices="tripinfo_h15454c2:3 routing_h15454c2:3" vType="default_016" speedFactor="0.91" vaporized=""/>
    <tripinfo id="carIn33538:1" depart="57671.00" departLane="37386279_1" departPos="5.10" departSpeed="0.00" departDelay="0.30" arrival="57685.00" arrivalLane="-24634414#4_1" arrivalPos="22.88" arrivalSpeed="9.02" duration="14.00" routeLength="125.23" waitingTime="0.00" waitingCount="0" stopTime="0.00" timeLoss="4.60" rerouteNo="0" devices="tripinfo_carIn33538:1 routing_carIn33538:1" vType="default_016" speedFactor="1.23" vaporized=""/>
    <tripinfo id="h21130c2:1" depart="57630.00" departLane="10425609#0_1" departPos="5.10" departSpeed="0.00" departDelay="0.10" arrival="57688.00" arrivalLane="202070434#2_1" arrivalPos="39.03" arrivalSpeed="13.25" duration="58.00" routeLength="432.30" waitingTime="9.00" waitingCount="1" stopTime="0.00" timeLoss="25.22" rerouteNo="1" devices="tripinfo_h21130c2:1 routing_h21130c2:1" vType="default_016" speedFactor="0.97" vaporized=""/>
    <tripinfo id="h645c1:1" depart="57622.00" departLane="266565295#5_1" departPos="5.10" departSpeed="0.00" departDelay="0.40" arrival="57691.00" arrivalLane="-315358253#1_1" arrivalPos="63.90" arrivalSpeed="12.16" duration="69.00" routeLength="547.76" waitingTime="16.00" waitingCount="1" stopTime="0.00" timeLoss="26.67" rerouteNo="1" devices="tripinfo_h645c1:1 routing_h645c1:1" vType="default_016" speedFactor="0.96" vaporized=""/>
    <tripinfo id="carIn107084:1" depart="57601.00" departLane="124812856#0_1" departPos="5.10" departSpeed="0.00" departDelay="0.70" arrival="57692.00" arrivalLane="-653473569#5_1" arrivalPos="73.05" arrivalSpeed="14.67" duration="91.00" routeLength="450.40" waitingTime="40.00" waitingCount="3" stopTime="0.00" timeLoss="59.31" rerouteNo="1" devices="tripinfo_carIn107084:1 routing_carIn107084:1" vType="default_016" speedFactor="1.06" vaporized=""/>
    <tripinfo id="carIn131078:1" depart="57678.00" departLane="124812856#0_1" departPos="5.10" departSpeed="0.00" departDelay="42.60" arrival="57692.00" arrivalLane="201956810_1" arrivalPos="71.65" arrivalSpeed="14.00" duration="14.00" routeLength="134.91" waitingTime="0.00" waitingCount="0" stopTime="0.00" timeLoss="4.13" rerouteNo="1" devices="tripinfo_carIn131078:1 routing_carIn131078:1" vType="default_016" speedFactor="1.09" vaporized=""/>
    <tripinfo id="randUni10474:1" depart="57605.00" departLane="124812856#0_1" departPos="5.10" departSpeed="0.00" departDelay="0.20" arrival="57694.00" arrivalLane="-653473569#5_1" arrivalPos="73.05" arrivalSpeed="13.77" duration="89.00" routeLength="450.40" waitingTime="35.00" waitingCount="3" stopTime="0.00" timeLoss="55.60" rerouteNo="1" devices="tripinfo_randUni10474:1 routing_randUni10474:1" vType="random_016" speedFactor="1.00" vaporized=""/>
    <tripinfo id="carIn77943:1" depart="57608.00" departLane="124812856#0_1" departPos="5.10" departSpeed="0.00" departDelay="2.50" arrival="57696.00" arrivalLane="-653473569#5_1" arrivalPos="73.05" arrivalSpeed="13.98" duration="88.00" routeLength="450.40" waitingTime="33.00" waitingCount="3" stopTime="0.00" timeLoss="55.64" rerouteNo="1" devices="tripinfo_carIn77943:1 routing_carIn77943:1" vType="default_016" speedFactor="1.04" vaporized=""/>
    <tripinfo id="carIn124416:1" depart="57663.00" departLane="-173169611#0_1" departPos="5.10" departSpeed="0.00" departDelay="0.50" arrival="57696.00" arrivalLane="201956820_1" arrivalPos="48.33" arrivalSpeed="13.91" duration="33.00" routeLength="122.35" waitingTime="14.00" waitingCount="1" stopTime="0.00" timeLoss="22.80" rerouteNo="0" devices="tripinfo_carIn124416:1 routing_carIn124416:1" vType="default_016" speedFactor="1.00" vaporized=""/>
    <tripinfo id="carIn55461:1" depart="57652.00" departLane="10425609#0_1" departPos="5.10" departSpeed="0.00" departDelay="0.30" arrival="57697.00" arrivalLane="201956810_1" arrivalPos="71.65" arrivalSpeed="14.93" duration="45.00" routeLength="255.78" waitingTime="12.00" waitingCount="2" stopTime="0.00" timeLoss="27.68" rerouteNo="1" devices="tripinfo_carIn55461:1 routing_carIn55461:1" vType="default_016" speedFactor="1.14" vaporized=""/>
    <tripinfo id="carIn48979:1" depart="57660.00" departLane="124812856#0_1" departPos="5.10" departSpeed="0.00" departDelay="31.10" arrival="57698.00" arrivalLane="-653473569#5_1" arrivalPos="73.05" arrivalSpeed="13.95" duration="38.00" routeLength="450.40" waitingTime="0.00" waitingCount="0" stopTime="0.00" timeLoss="6.31" rerouteNo="1" devices="tripinfo_carIn48979:1 routing_carIn48979:1" vType="default_016" speedFactor="1.06" vaporized=""/>
    <tripinfo id="carIn96537:1" depart="57615.00" departLane="124812856#0_1" departPos="5.10" departSpeed="0.00" departDelay="3.80" arrival="57699.00" arrivalLane="202070434#2_1" arrivalPos="39.03" arrivalSpeed="9.21" duration="84.00" routeLength="569.75" waitingTime="17.00" waitingCount="1" stopTime="0.00" timeLoss="28.78" rerouteNo="1" devices="tripinfo_carIn96537:1 routing_carIn96537:1" vType="default_016" speedFactor="0.75" vaporized=""/>
    <tripinfo id="carIn13117:1" depart="57627.00" departLane="27920078#0_1" departPos="5.10" departSpeed="0.00" departDelay="1.80" arrival="57699.00" arrivalLane="201956820_1" arrivalPos="48.33" arrivalSpeed="12.08" duration="72.00" routeLength="552.44" waitingTime="2.00" waitingCount="1" stopTime="0.00" timeLoss="29.43" rerouteNo="1" devices="tripinfo_carIn13117:1 routing_carIn13117:1" vType="default_016" speedFactor="0.94" vaporized=""/>
    <tripinfo id="carIn20106:1" depart="57631.00" departLane="27920078#0_1" departPos="5.10" departSpeed="0.00" departDelay="3.70" arrival="57700.00" arrivalLane="201956820_2" arrivalPos="48.33" arrivalSpeed="11.99" duration="69.00" routeLength="552.44" waitingTime="5.00" waitingCount="2" stopTime="0.00" timeLoss="23.58" rerouteNo="1" devices="tripinfo_carIn20106:1 routing_carIn20106:1" vType="default_016" speedFactor="0.88" vaporized=""/>
    <tripinfo id="carIn128705:1" depart="57630.00" departLane="124812856#0_1" departPos="5.10" departSpeed="0.00" departDelay="11.60" arrival="57701.00" arrivalLane="202070434#2_1" arrivalPos="39.03" arrivalSpeed="14.95" duration="71.00" routeLength="569.75" waitingTime="3.00" waitingCount="1" stopTime="0.00" timeLoss="36.23" rerouteNo="1" devices="tripinfo_carIn128705:1 routing_carIn128705:1" vType="default_016" speedFactor="1.20" vaporized=""/>
    <tripinfo id="carIn26410:1" depart="57621.00" departLane="124812856#0_1" departPos="5.10" departSpeed="0.00" departDelay="7.50" arrival="57702.00" arrivalLane="202070434#2_1" arrivalPos="39.03" arrivalSpeed="13.70" duration="81.00" routeLength="569.75" waitingTime="10.00" waitingCount="2" stopTime="0.00" timeLoss="42.79" rerouteNo="1" devices="tripinfo_carIn26410:1 routing_carIn26410:1" vType="default_016" speedFactor="1.07" vaporized=""/>
    <tripinfo id="60R.41" depart="57623.00" departLane="27920078#0_1" departPos="12.10" departSpeed="0.00" departDelay="0.30" arrival="57702.00" arrivalLane="201956811#0_1" arrivalPos="40.40" arrivalSpeed="9.89" duration="79.00" routeLength="425.03" waitingTime="18.00" waitingCount="2" stopTime="0.00" timeLoss="48.04" rerouteNo="1" devices="tripinfo_60R.41 routing_60R.41" vType="bus" speedFactor="1.00" vaporized=""/>
    <tripinfo id="carIn51024:1" depart="57627.00" departLane="124812856#0_1" departPos="5.10" departSpeed="0.00" departDelay="10.90" arrival="57704.00" arrivalLane="202070434#2_1" arrivalPos="39.03" arrivalSpeed="16.56" duration="77.00" routeLength="569.75" waitingTime="8.00" waitingCount="1" stopTime="0.00" timeLoss="43.45" rerouteNo="1" devices="tripinfo_carIn51024:1 routing_carIn51024:1" vType="default_016" speedFactor="1.24" vaporized=""/>
    <tripinfo id="carIn102997:1" depart="57623.00" departLane="653473569#5_1" departPos="5.10" departSpeed="0.00" departDelay="4.80" arrival="57704.00" arrivalLane="201956811#0_1" arrivalPos="40.40" arrivalSpeed="13.15" duration="81.00" routeLength="313.24" waitingTime="22.00" waitingCount="3" stopTime="0.00" timeLoss="59.46" rerouteNo="1" devices="tripinfo_carIn102997:1 routing_carIn102997:1" vType="default_016" speedFactor="1.09" vaporized=""/>
    <tripinfo id="carIn114137:1" depart="57635.00" departLane="27920078#0_1" departPos="5.10" departSpeed="0.00" departDelay="4.10" arrival="57705.00" arrivalLane="-83304175#2_1" arrivalPos="189.34" arrivalSpeed="7.16" duration="70.00" routeLength="501.51" waitingTime="7.00" waitingCount="1" stopTime="0.00" timeLoss="19.48" rerouteNo="1" devices="tripinfo_carIn114137:1 routing_carIn114137:1" vType="default_016" speedFactor="0.94" vaporized=""/>
    <tripinfo id="carIn12152:1" depart="57647.00" departLane="24599188#0.94_1" departPos="5.10" departSpeed="0.00" departDelay="0.50" arrival="57705.00" arrivalLane="24693977#1_1" arrivalPos="96.83" arrivalSpeed="13.23" duration="58.00" routeLength="511.77" waitingTime="0.00" waitingCount="0" stopTime="0.00" timeLoss="9.34" rerouteNo="1" devices="tripinfo_carIn12152:1 routing_carIn12152:1" vType="default_016" speedFactor="1.00" vaporized=""/>
    <tripinfo id="randUni27349:1" depart="57638.00" departLane="27920078#0_1" departPos="5.10" departSpeed="0.00" departDelay="4.10" arrival="57706.00" arrivalLane="201956811#0_1" arrivalPos="40.40" arrivalSpeed="12.17" duration="68.00" routeLength="432.03" waitingTime="12.00" waitingCount="1" stopTime="0.00" timeLoss="34.36" rerouteNo="1" devices="tripinfo_randUni27349:1 routing_randUni27349:1" vType="random_016" speedFactor="0.94" vaporized=""/>
    <tripinfo id="carIn22637:1" depart="57636.00" departLane="27920078#0_1" departPos="5.10" departSpeed="0.00" departDelay="3.50" arrival="57709.00" arrivalLane="-83304175#2_1" arrivalPos="189.34" arrivalSpeed="7.29" duration="73.00" routeLength="501.51" waitingTime="6.00" waitingCount="2" stopTime="0.00" timeLoss="20.95" rerouteNo="1" devices="tripinfo_carIn22637:1 routing_carIn22637:1" vType="default_016" speedFactor="0.90" vaporized=""/>
    <tripinfo id="carIn75554:1" depart="57626.00" departLane="653473569#5_1" departPos="5.10" departSpeed="0.00" departDelay="5.20" arrival="57711.00" arrivalLane="201956811#0_1" arrivalPos="40.40" arrivalSpeed="12.42" duration="85.00" routeLength="313.24" waitingTime="26.00" waitingCount="5" stopTime="0.00" timeLoss="60.56" rerouteNo="1" devices="tripinfo_carIn75554:1 routing_carIn75554:1" vType="default_016" speedFactor="0.96" vaporized=""/>
    <tripinfo id="carIn12900:1" depart="57697.00" departLane="124812856#0_1" departPos="5.10" departSpeed="0.00" departDelay="48.80" arrival="57711.00" arrivalLane="201956810_1" arrivalPos="71.65" arrivalSpeed="14.66" duration="14.00" routeLength="134.91" waitingTime="0.00" waitingCount="0" stopTime="0.00" timeLoss="4.35" rerouteNo="1" devices="tripinfo_carIn12900:1 routing_carIn12900:1" vType="default_016" speedFactor="1.08" vaporized=""/>
    <tripinfo id="randUni20090:1" depart="57629.00" departLane="653473569#5_1" departPos="5.10" departSpeed="0.00" departDelay="1.00" arrival="57713.00" arrivalLane="201956811#0_1" arrivalPos="40.40" arrivalSpeed="15.03" duration="84.00" routeLength="313.24" waitingTime="23.00" waitingCount="4" stopTime="0.00" timeLoss="62.68" rerouteNo="1" devices="tripinfo_randUni20090:1 routing_randUni20090:1" vType="random_016" speedFactor="1.13" vaporized=""/>
    <tripinfo id="h3688c1:1" depart="57679.00" departLane="315358253#1_1" departPos="5.10" departSpeed="0.00" departDelay="0.50" arrival="57721.00" arrivalLane="32978638#0_1" arrivalPos="49.29" arrivalSpeed="11.54" duration="42.00" routeLength="405.15" waitingTime="0.00" waitingCount="0" stopTime="0.00" timeLoss="6.05" rerouteNo="1" devices="tripinfo_h3688c1:1 routing_h3688c1:1" vType="default_016" speedFactor="0.86" vaporized=""/>
    <tripinfo id="carIn55090:1" depart="57666.00" departLane="-173169611#0_1" departPos="5.10" departSpeed="0.00" departDelay="1.40" arrival="57726.00" arrivalLane="201956820_1" arrivalPos="48.33" arrivalSpeed="14.40" duration="60.00" routeLength="122.35" waitingTime="38.00" waitingCount="2" stopTime="0.00" timeLoss="50.53" rerouteNo="0" devices="tripinfo_carIn55090:1 routing_carIn55090:1" vType="default_016" speedFactor="1.05" vaporized=""/>
    <tripinfo id="h10915c2:1" depart="57626.00" departLane="315358253#1_1" departPos="5.10" departSpeed="0.00" departDelay="0.20" arrival="57738.00" arrivalLane="-653473569#5_1" arrivalPos="73.05" arrivalSpeed="14.11" duration="112.00" routeLength="970.09" waitingTime="19.00" waitingCount="3" stopTime="0.00" timeLoss="43.05" rerouteNo="1" devices="tripinfo_h10915c2:1 routing_h10915c2:1" vType="default_016" speedFactor="1.04" vaporized=""/>
    <tripinfo id="h21989c1:1" depart="57636.00" departLane="124812856#0_1" departPos="5.10" departSpeed="0.00" departDelay="15.60" arrival="57739.00" arrivalLane="202070434#2_1" arrivalPos="39.03" arrivalSpeed="12.67" duration="103.00" routeLength="569.75" waitingTime="31.00" waitingCount="1" stopTime="0.00" timeLoss="59.38" rerouteNo="1" devices="tripinfo_h21989c1:1 routing_h21989c1:1" vType="default_016" speedFactor="0.96" vaporized=""/>
    <tripinfo id="h20403c1:5" depart="57641.00" departLane="27920078#0_1" departPos="5.10" departSpeed="0.00" departDelay="5.60" arrival="57739.00" arrivalLane="201956811#0_1" arrivalPos="40.40" arrivalSpeed="14.66" duration="98.00" routeLength="432.03" waitingTime="34.00" waitingCount="4" stopTime="0.00" timeLoss="68.88" rerouteNo="1" devices="tripinfo_h20403c1:5 routing_h20403c1:5" vType="default_016" speedFactor="1.08" vaporized=""/>
    <tripinfo id="h19804c1:3" depart="57624.00" departLane="124812856#0_1" departPos="5.10" departSpeed="0.00" departDelay="8.50" arrival="57740.00" arrivalLane="-653473569#5_1" arrivalPos="73.05" arrivalSpeed="13.34" duration="116.00" routeLength="450.40" waitingTime="53.00" waitingCount="5" stopTime="0.00" timeLoss="82.94" rerouteNo="1" devices="tripinfo_h19804c1:3 routing_h19804c1:3" vType="default_016" speedFactor="1.01" vaporized=""/>
    <tripinfo id="carIn3969:1" depart="57645.00" departLane="124812856#0_1" departPos="5.10" departSpeed="0.00" departDelay="21.30" arrival="57741.00" arrivalLane="-653473569#5_1" arrivalPos="73.05" arrivalSpeed="15.70" duration="96.00" routeLength="450.40" waitingTime="33.00" waitingCount="3" stopTime="0.00" timeLoss="67.57" rerouteNo="1" devices="tripinfo_carIn3969:1 routing_carIn3969:1" vType="default_016" speedFactor="1.16" vaporized=""/>
    <tripinfo id="carIn73466:1" depart="57644.00" departLane="27920078#0_1" departPos="5.10" departSpeed="0.00" departDelay="7.10" arrival="57741.00" arrivalLane="201956811#0_1" arrivalPos="40.40" arrivalSpeed="13.56" duration="97.00" routeLength="432.03" waitingTime="31.00" waitingCount="4" stopTime="0.00" timeLoss="67.38" rerouteNo="1" devices="tripinfo_carIn73466:1 routing_carIn73466:1" vType="default_016" speedFactor="1.07" vaporized=""/>
    <tripinfo id="60.39" depart="57643.00" departLane="10425609#0_1" departPos="12.10" departSpeed="0.00" departDelay="0.50" arrival="57741.00" arrivalLane="202070434#2_2" arrivalPos="39.03" arrivalSpeed="13.34" duration="98.00" routeLength="425.30" waitingTime="44.00" waitingCount="2" stopTime="0.00" timeLoss="66.39" rerouteNo="1" devices="tripinfo_60.39 routing_60.39" vType="bus" speedFactor="1.00" vaporized=""/>
    <tripinfo id="carIn81046:1" depart="57611.00" departLane="124812856#0_1" departPos="5.10" departSpeed="0.00" departDelay="2.50" arrival="57743.00" arrivalLane="-653473569#5_1" arrivalPos="73.05" arrivalSpeed="13.30" duration="132.00" routeLength="450.40" waitingTime="66.00" waitingCount="4" stopTime="0.00" timeLoss="99.07" rerouteNo="1" devices="tripinfo_carIn81046:1 routing_carIn81046:1" vType="default_016" speedFactor="1.01" vaporized=""/>
    <tripinfo id="carIn37268:1" depart="57636.00" departLane="653473569#5_1" departPos="5.10" departSpeed="0.00" departDelay="0.90" arrival="57744.00" arrivalLane="201956811#0_1" arrivalPos="40.40" arrivalSpeed="11.83" duration="108.00" routeLength="313.24" waitingTime="32.00" waitingCount="4" stopTime="0.00" timeLoss="82.79" rerouteNo="1" devices="tripinfo_carIn37268:1 routing_carIn37268:1" vType="default_016" speedFactor="0.94" vaporized=""/>
    <tripinfo id="h317c2:1" depart="57707.00" departLane="-32978638#0_1" departPos="5.10" departSpeed="0.00" departDelay="0.10" arrival="57744.00" arrivalLane="-266565295#5_1" arrivalPos="172.76" arrivalSpeed="11.40" duration="37.00" routeLength="370.53" waitingTime="0.00" waitingCount="0" stopTime="0.00" timeLoss="6.04" rerouteNo="1" devices="tripinfo_h317c2:1 routing_h317c2:1" vType="default_016" speedFactor="0.89" vaporized=""/>
    <tripinfo id="carIn106665:1" depart="57659.00" departLane="266565295#5_1" departPos="5.10" departSpeed="0.00" departDelay="1.80" arrival="57746.00" arrivalLane="24693977#1_1" arrivalPos="96.83" arrivalSpeed="14.61" duration="87.00" routeLength="834.40" waitingTime="12.00" waitingCount="1" stopTime="0.00" timeLoss="30.20" rerouteNo="1" devices="tripinfo_carIn106665:1 routing_carIn106665:1" vType="default_016" speedFactor="1.08" vaporized=""/>
    <tripinfo id="carIn7887:1" depart="57661.00" departLane="27920078#0_1" departPos="5.10" departSpeed="0.00" departDelay="0.50" arrival="57746.00" arrivalLane="-83304175#2_1" arrivalPos="189.34" arrivalSpeed="8.43" duration="85.00" routeLength="501.51" waitingTime="31.00" waitingCount="1" stopTime="0.00" timeLoss="43.18" rerouteNo="1" devices="tripinfo_carIn7887:1 routing_carIn7887:1" vType="default_016" speedFactor="1.12" vaporized=""/>
    <tripinfo id="carIn77438:1" depart="57618.00" departLane="124812856#0_1" departPos="5.10" departSpeed="0.00" departDelay="5.10" arrival="57747.00" arrivalLane="-653473569#5_1" arrivalPos="73.05" arrivalSpeed="11.01" duration="129.00" routeLength="450.40" waitingTime="58.00" waitingCount="4" stopTime="0.00" timeLoss="91.11" rerouteNo="1" devices="tripinfo_carIn77438:1 routing_carIn77438:1" vType="default_016" speedFactor="0.88" vaporized=""/>
    <tripinfo id="randUni5403:1" depart="57632.00" departLane="315358253#1_1" departPos="5.10" departSpeed="0.00" departDelay="2.90" arrival="57750.00" arrivalLane="-653473569#5_1" arrivalPos="73.05" arrivalSpeed="12.71" duration="118.00" routeLength="970.09" waitingTime="15.00" waitingCount="3" stopTime="0.00" timeLoss="40.54" rerouteNo="1" devices="tripinfo_randUni5403:1 routing_randUni5403:1" vType="random_016" speedFactor="0.93" vaporized=""/>
    <tripinfo id="carIn767:1" depart="57633.00" departLane="124812856#0_1" departPos="5.10" departSpeed="0.00" departDelay="14.50" arrival="57752.00" arrivalLane="-653473569#5_1" arrivalPos="73.05" arrivalSpeed="12.58" duration="119.00" routeLength="450.40" waitingTime="38.00" waitingCount="5" stopTime="0.00" timeLoss="83.99" rerouteNo="1" devices="tripinfo_carIn767:1 routing_carIn767:1" vType="default_016" speedFactor="0.96" vaporized=""/>
    <tripinfo id="h2215c1:1" depart="57657.00" departLane="25145012#7_1" departPos="5.10" departSpeed="0.00" departDelay="0.90" arrival="57752.00" arrivalLane="201956811#0_1" arrivalPos="40.40" arrivalSpeed="14.69" duration="95.00" routeLength="384.54" waitingTime="20.00" waitingCount="3" stopTime="0.00" timeLoss="67.55" rerouteNo="1" devices="tripinfo_h2215c1:1 routing_h2215c1:1" vType="default_016" speedFactor="1.08" vaporized=""/>
    <tripinfo id="carIn129760:1" depart="57661.00" departLane="653473569#5_1" departPos="5.10" departSpeed="0.00" departDelay="0.80" arrival="57754.00" arrivalLane="201956811#0_1" arrivalPos="40.40" arrivalSpeed="12.84" duration="93.00" routeLength="313.24" waitingTime="20.00" waitingCount="4" stopTime="0.00" timeLoss="67.02" rerouteNo="1" devices="tripinfo_carIn129760:1 routing_carIn129760:1" vType="default_016" speedFactor="0.94" vaporized=""/>
    <tripinfo id="carIn56649:1" depart="57648.00" departLane="124812856#0_1" departPos="5.10" departSpeed="0.00" departDelay="24.10" arrival="57756.00" arrivalLane="-653473569#5_1" arrivalPos="73.05" arrivalSpeed="10.73" duration="108.00" routeLength="450.40" waitingTime="29.00" waitingCount="4" stopTime="0.00" timeLoss="68.47" rerouteNo="1" devices="tripinfo_carIn56649:1 routing_carIn56649:1" vType="default_016" speedFactor="0.85" vaporized=""/>
    <tripinfo id="carIn129626:1" depart="57664.00" departLane="653473569#5_1" departPos="5.10" departSpeed="0.00" departDelay="1.60" arrival="57757.00" arrivalLane="201956811#0_1" arrivalPos="40.40" arrivalSpeed="14.07" duration="93.00" routeLength="313.24" waitingTime="17.00" waitingCount="4" stopTime="0.00" timeLoss="69.96" rerouteNo="1" devices="tripinfo_carIn129626:1 routing_carIn129626:1" vType="default_016" speedFactor="1.02" vaporized=""/>
    <tripinfo id="carIn44740:1" depart="57669.00" departLane="124812856#0_1" departPos="5.10" departSpeed="0.00" departDelay="36.70" arrival="57758.00" arrivalLane="-653473569#5_1" arrivalPos="73.05" arrivalSpeed="13.09" duration="89.00" routeLength="450.40" waitingTime="25.00" waitingCount="2" stopTime="0.00" timeLoss="54.59" rerouteNo="1" devices="tripinfo_carIn44740:1 routing_carIn44740:1" vType="default_016" speedFactor="0.99" vaporized=""/>
    <tripinfo id="carIn100220:1" depart="57688.00" departLane="124812856#0_1" departPos="5.10" departSpeed="0.00" departDelay="49.00" arrival="57759.00" arrivalLane="202070434#2_1" arrivalPos="39.03" arrivalSpeed="12.40" duration="71.00" routeLength="569.75" waitingTime="10.00" waitingCount="2" stopTime="0.00" timeLoss="24.83" rerouteNo="1" devices="tripinfo_carIn100220:1 routing_carIn100220:1" vType="default_016" speedFactor="0.91" vaporized=""/>
    <tripinfo id="carIn99509:1" depart="57720.00" departLane="-32978638#0_1" departPos="5.10" departSpeed="0.00" departDelay="0.20" arrival="57759.00" arrivalLane="-315358253#1_1" arrivalPos="63.90" arrivalSpeed="13.54" duration="39.00" routeLength="422.17" waitingTime="0.00" waitingCount="0" stopTime="0.00" timeLoss="8.72" rerouteNo="1" devices="tripinfo_carIn99509:1 routing_carIn99509:1" vType="default_015" speedFactor="1.04" vaporized=""/>
    <tripinfo id="h3568c1:3" depart="57656.00" departLane="266565295#5_1" departPos="5.10" departSpeed="0.00" departDelay="0.80" arrival="57760.00" arrivalLane="-24634415_1" arrivalPos="64.03" arrivalSpeed="11.72" duration="104.00" routeLength="810.20" waitingTime="12.00" waitingCount="2" stopTime="0.00" timeLoss="33.49" rerouteNo="1" devices="tripinfo_h3568c1:3 routing_h3568c1:3" vType="default_016" speedFactor="0.93" vaporized=""/>
    <tripinfo id="randUni22709:1" depart="57718.00" departLane="315358253#1_1" departPos="5.10" departSpeed="0.00" departDelay="0.20" arrival="57761.00" arrivalLane="32978638#0_1" arrivalPos="49.29" arrivalSpeed="13.48" duration="43.00" routeLength="405.15" waitingTime="2.00" waitingCount="1" stopTime="0.00" timeLoss="11.63" rerouteNo="1" devices="tripinfo_randUni22709:1 routing_randUni22709:1" vType="random_016" speedFactor="0.99" vaporized=""/>
    <tripinfo id="h20539c1:3" depart="57667.00" departLane="653473569#5_1" departPos="5.10" departSpeed="0.00" departDelay="2.20" arrival="57763.00" arrivalLane="201956811#0_1" arrivalPos="40.40" arrivalSpeed="14.23" duration="96.00" routeLength="313.24" waitingTime="16.00" waitingCount="4" stopTime="0.00" timeLoss="72.56" rerouteNo="1" devices="tripinfo_h20539c1:3 routing_h20539c1:3" vType="default_016" speedFactor="1.02" vaporized=""/>