<?xml version="1.0" encoding="UTF-8"?>

<!-- generated on 2023-08-29 12:31:50 by Eclipse SUMO libsumo Version 1.18.0
<configuration xmlns:xsi="http://www.w3.org/2001/XMLSchema-instance" xsi:noNamespaceSchemaLocation="http://sumo.dlr.de/xsd/libsumoConfiguration.xsd">

    <input>
        <net-file value="/home/stefan/RESCO/./environments/ingolstadt7/ingolstadt7.net.xml"/>
        <route-files value="/home/stefan/RESCO/./environments/ingolstadt7/ingolstadt7.rou.xml"/>
    </input>

    <output>
        <tripinfo-output value="/home/stefan/results/ITRPO-tr0-ingolstadt7-7-drq_norm-wait_norm/tripinfo_15.xml"/>
        <tripinfo-output.write-unfinished value="true"/>
    </output>

    <time>
        <begin value="57600"/>
        <end value="61200"/>
    </time>

    <processing>
        <time-to-teleport value="-1"/>
    </processing>

    <report>
        <no-warnings value="True"/>
        <no-step-log value="True"/>
    </report>

    <random_number>
        <random value="true"/>
    </random_number>

</configuration>
-->

<tripinfos xmlns:xsi="http://www.w3.org/2001/XMLSchema-instance" xsi:noNamespaceSchemaLocation="http://sumo.dlr.de/xsd/tripinfo_file.xsd">
    <tripinfo id="carIn105842:1" depart="57601.00" departLane="653473569#5_1" departPos="5.10" departSpeed="0.00" departDelay="0.80" arrival="57630.00" arrivalLane="201956811#0_1" arrivalPos="40.40" arrivalSpeed="15.37" duration="29.00" routeLength="313.24" waitingTime="0.00" waitingCount="0" stopTime="0.00" timeLoss="8.27" rerouteNo="1" devices="tripinfo_carIn105842:1 routing_carIn105842:1" vType="default_016" speedFactor="1.19" vaporized=""/>
    <tripinfo id="carIn89578:1" depart="57614.00" departLane="124812856#0_1" departPos="5.10" departSpeed="0.00" departDelay="3.60" arrival="57632.00" arrivalLane="201956810_1" arrivalPos="71.65" arrivalSpeed="12.88" duration="18.00" routeLength="134.91" waitingTime="0.00" waitingCount="0" stopTime="0.00" timeLoss="7.35" rerouteNo="1" devices="tripinfo_carIn89578:1 routing_carIn89578:1" vType="default_016" speedFactor="0.97" vaporized=""/>
    <tripinfo id="carIn28951:1" depart="57606.00" departLane="10425609#0_1" departPos="5.10" departSpeed="0.00" departDelay="0.20" arrival="57642.00" arrivalLane="-653473569#5_1" arrivalPos="73.05" arrivalSpeed="16.42" duration="36.00" routeLength="312.95" waitingTime="3.00" waitingCount="1" stopTime="0.00" timeLoss="15.24" rerouteNo="1" devices="tripinfo_carIn28951:1 routing_carIn28951:1" vType="default_016" speedFactor="1.20" vaporized=""/>
    <tripinfo id="carIn106322:1" depart="57614.00" departLane="653473569#5_1" departPos="5.10" departSpeed="0.00" departDelay="2.20" arrival="57659.00" arrivalLane="201956811#0_1" arrivalPos="40.40" arrivalSpeed="13.57" duration="45.00" routeLength="313.24" waitingTime="7.00" waitingCount="2" stopTime="0.00" timeLoss="22.33" rerouteNo="1" devices="tripinfo_carIn106322:1 routing_carIn106322:1" vType="default_016" speedFactor="1.07" vaporized=""/>
    <tripinfo id="carIn5482:1" depart="57617.00" departLane="653473569#5_1" departPos="5.10" departSpeed="0.00" departDelay="3.60" arrival="57661.00" arrivalLane="201956811#0_1" arrivalPos="40.40" arrivalSpeed="13.46" duration="44.00" routeLength="313.24" waitingTime="4.00" waitingCount="2" stopTime="0.00" timeLoss="21.09" rerouteNo="1" devices="tripinfo_carIn5482:1 routing_carIn5482:1" vType="default_016" speedFactor="1.02" vaporized=""/>
    <tripinfo id="carIn925:1" depart="57651.00" departLane="124812856#0_1" departPos="5.10" departSpeed="0.00" departDelay="24.90" arrival="57666.00" arrivalLane="201956810_1" arrivalPos="71.65" arrivalSpeed="13.28" duration="15.00" routeLength="134.91" waitingTime="0.00" waitingCount="0" stopTime="0.00" timeLoss="3.92" rerouteNo="1" devices="tripinfo_carIn925:1 routing_carIn925:1" vType="default_016" speedFactor="0.96" vaporized=""/>
    <tripinfo id="carIn25202:1" depart="57629.00" departLane="315358253#1_1" departPos="5.10" departSpeed="0.00" departDelay="1.50" arrival="57670.00" arrivalLane="32978638#0_1" arrivalPos="49.29" arrivalSpeed="13.40" duration="41.00" routeLength="405.15" waitingTime="0.00" waitingCount="0" stopTime="0.00" timeLoss="11.82" rerouteNo="1" devices="tripinfo_carIn25202:1 routing_carIn25202:1" vType="default_016" speedFactor="1.05" vaporized=""/>
    <tripinfo id="60R.41" depart="57623.00" departLane="27920078#0_1" departPos="12.10" departSpeed="0.00" departDelay="0.30" arrival="57672.00" arrivalLane="201956811#0_1" arrivalPos="40.40" arrivalSpeed="9.95" duration="49.00" routeLength="421.61" waitingTime="1.00" waitingCount="1" stopTime="0.00" timeLoss="18.05" rerouteNo="1" devices="tripinfo_60R.41 routing_60R.41" vType="bus" speedFactor="1.00" vaporized=""/>
    <tripinfo id="carIn36103:1" depart="57620.00" departLane="653473569#5_1" departPos="5.10" departSpeed="0.00" departDelay="4.00" arrival="57675.00" arrivalLane="201956811#0_1" arrivalPos="40.40" arrivalSpeed="13.52" duration="55.00" routeLength="313.24" waitingTime="7.00" waitingCount="2" stopTime="0.00" timeLoss="32.39" rerouteNo="1" devices="tripinfo_carIn36103:1 routing_carIn36103:1" vType="default_016" speedFactor="1.07" vaporized=""/>
    <tripinfo id="carIn55461:1" depart="57652.00" departLane="10425609#0_1" departPos="5.10" departSpeed="0.00" departDelay="0.30" arrival="57675.00" arrivalLane="201956810_1" arrivalPos="71.65" arrivalSpeed="17.52" duration="23.00" routeLength="255.78" waitingTime="0.00" waitingCount="0" stopTime="0.00" timeLoss="7.75" rerouteNo="1" devices="tripinfo_carIn55461:1 routing_carIn55461:1" vType="default_016" speedFactor="1.29" vaporized=""/>
    <tripinfo id="carIn102997:1" depart="57623.00" departLane="653473569#5_1" departPos="5.10" departSpeed="0.00" departDelay="4.80" arrival="57676.00" arrivalLane="201956811#0_1" arrivalPos="40.40" arrivalSpeed="12.18" duration="53.00" routeLength="313.24" waitingTime="6.00" waitingCount="2" stopTime="0.00" timeLoss="27.19" rerouteNo="1" devices="tripinfo_carIn102997:1 routing_carIn102997:1" vType="default_016" speedFactor="0.92" vaporized=""/>
    <tripinfo id="h20232c1:2" depart="57634.00" departLane="-173169611#0_1" departPos="5.10" departSpeed="0.00" departDelay="0.50" arrival="57676.00" arrivalLane="201956820_1" arrivalPos="48.33" arrivalSpeed="14.28" duration="42.00" routeLength="122.35" waitingTime="23.00" waitingCount="1" stopTime="0.00" timeLoss="33.12" rerouteNo="0" devices="tripinfo_h20232c1:2 routing_h20232c1:2" vType="default_016" speedFactor="1.09" vaporized=""/>
    <tripinfo id="carIn124416:1" depart="57663.00" departLane="-173169611#0_1" departPos="5.10" departSpeed="0.00" departDelay="0.50" arrival="57678.00" arrivalLane="201956820_1" arrivalPos="48.33" arrivalSpeed="16.49" duration="15.00" routeLength="122.35" waitingTime="0.00" waitingCount="0" stopTime="0.00" timeLoss="6.76" rerouteNo="0" devices="tripinfo_carIn124416:1 routing_carIn124416:1" vType="default_016" speedFactor="1.19" vaporized=""/>
    <tripinfo id="h20540c1:1" depart="57634.00" departLane="10425609#0_1" departPos="5.10" departSpeed="0.00" departDelay="0.50" arrival="57681.00" arrivalLane="-653473569#5_1" arrivalPos="73.05" arrivalSpeed="11.14" duration="47.00" routeLength="312.95" waitingTime="7.00" waitingCount="2" stopTime="0.00" timeLoss="19.43" rerouteNo="1" devices="tripinfo_h20540c1:1 routing_h20540c1:1" vType="default_016" speedFactor="0.87" vaporized=""/>
    <tripinfo id="carIn55090:1" depart="57666.00" departLane="-173169611#0_1" departPos="5.10" departSpeed="0.00" departDelay="1.40" arrival="57681.00" arrivalLane="201956820_1" arrivalPos="48.33" arrivalSpeed="14.78" duration="15.00" routeLength="122.35" waitingTime="0.00" waitingCount="0" stopTime="0.00" timeLoss="7.05" rerouteNo="0" devices="tripinfo_carIn55090:1 routing_carIn55090:1" vType="default_016" speedFactor="1.18" vaporized=""/>
    <tripinfo id="carIn33538:1" depart="57671.00" departLane="37386279_1" departPos="5.10" departSpeed="0.00" departDelay="0.30" arrival="57687.00" arrivalLane="-24634414#4_1" arrivalPos="22.88" arrivalSpeed="7.03" duration="16.00" routeLength="125.23" waitingTime="0.00" waitingCount="0" stopTime="0.00" timeLoss="4.00" rerouteNo="0" devices="tripinfo_carIn33538:1 routing_carIn33538:1" vType="default_016" speedFactor="0.94" vaporized=""/>
    <tripinfo id="carIn75554:1" depart="57626.00" departLane="653473569#5_1" departPos="5.10" departSpeed="0.00" departDelay="5.20" arrival="57688.00" arrivalLane="201956811#0_1" arrivalPos="40.40" arrivalSpeed="13.42" duration="62.00" routeLength="313.24" waitingTime="10.00" waitingCount="3" stopTime="0.00" timeLoss="39.12" rerouteNo="1" devices="tripinfo_carIn75554:1 routing_carIn75554:1" vType="default_016" speedFactor="1.02" vaporized=""/>
    <tripinfo id="randUni27349:1" depart="57638.00" departLane="27920078#0_1" departPos="5.10" departSpeed="0.00" departDelay="4.10" arrival="57690.00" arrivalLane="201956811#0_1" arrivalPos="40.40" arrivalSpeed="13.90" duration="52.00" routeLength="432.03" waitingTime="3.00" waitingCount="2" stopTime="0.00" timeLoss="21.42" rerouteNo="1" devices="tripinfo_randUni27349:1 routing_randUni27349:1" vType="random_016" speedFactor="1.03" vaporized=""/>
    <tripinfo id="randUni20090:1" depart="57629.00" departLane="653473569#5_1" departPos="5.10" departSpeed="0.00" departDelay="1.00" arrival="57694.00" arrivalLane="201956811#0_1" arrivalPos="40.40" arrivalSpeed="10.97" duration="65.00" routeLength="313.24" waitingTime="5.00" waitingCount="3" stopTime="0.00" timeLoss="36.86" rerouteNo="1" devices="tripinfo_randUni20090:1 routing_randUni20090:1" vType="random_016" speedFactor="0.85" vaporized=""/>
    <tripinfo id="h15454c2:3" depart="57612.00" departLane="24608844_1" departPos="5.10" departSpeed="0.00" departDelay="0.50" arrival="57695.00" arrivalLane="32978638#0_1" arrivalPos="49.29" arrivalSpeed="13.07" duration="83.00" routeLength="354.79" waitingTime="30.00" waitingCount="2" stopTime="0.00" timeLoss="46.43" rerouteNo="1" devices="tripinfo_h15454c2:3 routing_h15454c2:3" vType="default_016" speedFactor="0.95" vaporized=""/>
    <tripinfo id="carIn113711:1" depart="57601.00" departLane="-24693977#1_1" departPos="5.10" departSpeed="0.00" departDelay="0.70" arrival="57698.00" arrivalLane="-266565295#5_1" arrivalPos="172.76" arrivalSpeed="12.92" duration="97.00" routeLength="840.03" waitingTime="16.00" waitingCount="1" stopTime="0.00" timeLoss="31.80" rerouteNo="1" devices="tripinfo_carIn113711:1 routing_carIn113711:1" vType="default_016" speedFactor="0.94" vaporized=""/>
    <tripinfo id="carIn79400:1" depart="57604.00" departLane="-24693977#1_1" departPos="5.10" departSpeed="0.00" departDelay="0.10" arrival="57698.00" arrivalLane="-266565295#5_2" arrivalPos="172.76" arrivalSpeed="13.31" duration="94.00" routeLength="840.03" waitingTime="17.00" waitingCount="1" stopTime="0.00" timeLoss="32.33" rerouteNo="1" devices="tripinfo_carIn79400:1 routing_carIn79400:1" vType="default_016" speedFactor="1.01" vaporized=""/>
    <tripinfo id="carIn10158:1" depart="57622.00" departLane="-24693977#1_1" departPos="5.10" departSpeed="0.00" departDelay="0.80" arrival="57699.00" arrivalLane="-266565295#5_2" arrivalPos="172.76" arrivalSpeed="14.24" duration="77.00" routeLength="840.03" waitingTime="1.00" waitingCount="1" stopTime="0.00" timeLoss="20.73" rerouteNo="1" devices="tripinfo_carIn10158:1 routing_carIn10158:1" vType="default_016" speedFactor="1.09" vaporized=""/>
    <tripinfo id="h21130c2:1" depart="57630.00" departLane="10425609#0_1" departPos="5.10" departSpeed="0.00" departDelay="0.10" arrival="57699.00" arrivalLane="202070434#2_1" arrivalPos="39.03" arrivalSpeed="11.90" duration="69.00" routeLength="432.30" waitingTime="20.00" waitingCount="1" stopTime="0.00" timeLoss="34.06" rerouteNo="1" devices="tripinfo_h21130c2:1 routing_h21130c2:1" vType="default_016" speedFactor="0.92" vaporized=""/>
    <tripinfo id="carIn115641:1" depart="57614.00" departLane="-24693977#1_1" departPos="5.10" departSpeed="0.00" departDelay="0.90" arrival="57700.00" arrivalLane="-266565295#5_1" arrivalPos="172.76" arrivalSpeed="16.09" duration="86.00" routeLength="840.03" waitingTime="10.00" waitingCount="2" stopTime="0.00" timeLoss="35.62" rerouteNo="1" devices="tripinfo_carIn115641:1 routing_carIn115641:1" vType="default_016" speedFactor="1.23" vaporized=""/>
    <tripinfo id="carIn52610:1" depart="57615.00" departLane="-24693977#1_1" departPos="5.10" departSpeed="0.00" departDelay="0.10" arrival="57701.00" arrivalLane="-266565295#5_2" arrivalPos="172.76" arrivalSpeed="13.23" duration="86.00" routeLength="840.03" waitingTime="3.00" waitingCount="2" stopTime="0.00" timeLoss="23.98" rerouteNo="1" devices="tripinfo_carIn52610:1 routing_carIn52610:1" vType="default_016" speedFactor="0.99" vaporized=""/>
    <tripinfo id="carIn37268:1" depart="57636.00" departLane="653473569#5_1" departPos="5.10" departSpeed="0.00" departDelay="0.90" arrival="57701.00" arrivalLane="201956811#0_1" arrivalPos="40.40" arrivalSpeed="13.39" duration="65.00" routeLength="313.24" waitingTime="8.00" waitingCount="3" stopTime="0.00" timeLoss="41.85" rerouteNo="1" devices="tripinfo_carIn37268:1 routing_carIn37268:1" vType="default_016" speedFactor="1.03" vaporized=""/>
    <tripinfo id="carIn12152:1" depart="57647.00" departLane="24599188#0.94_1" departPos="5.10" departSpeed="0.00" departDelay="0.50" arrival="57701.00" arrivalLane="24693977#1_1" arrivalPos="96.83" arrivalSpeed="13.94" duration="54.00" routeLength="511.77" waitingTime="0.00" waitingCount="0" stopTime="0.00" timeLoss="9.76" rerouteNo="1" devices="tripinfo_carIn12152:1 routing_carIn12152:1" vType="default_016" speedFactor="1.09" vaporized=""/>
    <tripinfo id="h645c1:1" depart="57622.00" departLane="266565295#5_1" departPos="5.10" departSpeed="0.00" departDelay="0.40" arrival="57703.00" arrivalLane="-315358253#1_1" arrivalPos="63.90" arrivalSpeed="11.91" duration="81.00" routeLength="547.76" waitingTime="24.00" waitingCount="1" stopTime="0.00" timeLoss="37.45" rerouteNo="1" devices="tripinfo_h645c1:1 routing_h645c1:1" vType="default_016" speedFactor="0.94" vaporized=""/>
    <tripinfo id="h20403c1:5" depart="57641.00" departLane="27920078#0_1" departPos="5.10" departSpeed="0.00" departDelay="5.60" arrival="57704.00" arrivalLane="201956811#0_1" arrivalPos="40.40" arrivalSpeed="12.29" duration="63.00" routeLength="432.03" waitingTime="6.00" waitingCount="2" stopTime="0.00" timeLoss="26.79" rerouteNo="1" devices="tripinfo_h20403c1:5 routing_h20403c1:5" vType="default_016" speedFactor="0.89" vaporized=""/>
    <tripinfo id="carIn107084:1" depart="57601.00" departLane="124812856#0_1" departPos="5.10" departSpeed="0.00" departDelay="0.70" arrival="57705.00" arrivalLane="-653473569#5_1" arrivalPos="73.05" arrivalSpeed="13.15" duration="104.00" routeLength="450.40" waitingTime="51.00" waitingCount="2" stopTime="0.00" timeLoss="68.96" rerouteNo="1" devices="tripinfo_carIn107084:1 routing_carIn107084:1" vType="default_016" speedFactor="0.96" vaporized=""/>
    <tripinfo id="randUni10474:1" depart="57605.00" departLane="124812856#0_1" departPos="5.10" departSpeed="0.00" departDelay="0.20" arrival="57706.00" arrivalLane="-653473569#5_1" arrivalPos="73.05" arrivalSpeed="14.65" duration="101.00" routeLength="450.40" waitingTime="50.00" waitingCount="1" stopTime="0.00" timeLoss="71.64" rerouteNo="1" devices="tripinfo_randUni10474:1 routing_randUni10474:1" vType="random_016" speedFactor="1.13" vaporized=""/>
    <tripinfo id="carIn131078:1" depart="57676.00" departLane="124812856#0_1" departPos="5.10" departSpeed="0.00" departDelay="40.60" arrival="57706.00" arrivalLane="201956810_1" arrivalPos="71.65" arrivalSpeed="10.24" duration="30.00" routeLength="134.91" waitingTime="6.00" waitingCount="2" stopTime="0.00" timeLoss="16.77" rerouteNo="1" devices="tripinfo_carIn131078:1 routing_carIn131078:1" vType="default_016" speedFactor="0.82" vaporized=""/>
    <tripinfo id="carIn28488:1" depart="57611.00" departLane="653473569#5_1" departPos="5.10" departSpeed="0.00" departDelay="0.80" arrival="57710.00" arrivalLane="201956820_1" arrivalPos="48.33" arrivalSpeed="13.05" duration="99.00" routeLength="437.07" waitingTime="47.00" waitingCount="3" stopTime="0.00" timeLoss="65.30" rerouteNo="1" devices="tripinfo_carIn28488:1 routing_carIn28488:1" vType="default_016" speedFactor="0.96" vaporized=""/>
    <tripinfo id="carIn13117:1" depart="57628.00" departLane="27920078#0_1" departPos="5.10" departSpeed="0.00" departDelay="2.80" arrival="57710.00" arrivalLane="201956820_2" arrivalPos="48.33" arrivalSpeed="14.03" duration="82.00" routeLength="552.44" waitingTime="27.00" waitingCount="2" stopTime="0.00" timeLoss="43.70" rerouteNo="1" devices="tripinfo_carIn13117:1 routing_carIn13117:1" vType="default_016" speedFactor="1.05" vaporized=""/>
    <tripinfo id="h10915c2:1" depart="57626.00" departLane="315358253#1_1" departPos="5.10" departSpeed="0.00" departDelay="0.20" arrival="57711.00" arrivalLane="-653473569#5_1" arrivalPos="73.05" arrivalSpeed="14.04" duration="85.00" routeLength="970.09" waitingTime="3.00" waitingCount="1" stopTime="0.00" timeLoss="18.14" rerouteNo="1" devices="tripinfo_h10915c2:1 routing_h10915c2:1" vType="default_016" speedFactor="1.06" vaporized=""/>
    <tripinfo id="carIn20106:1" depart="57631.00" departLane="27920078#0_1" departPos="5.10" departSpeed="0.00" departDelay="3.70" arrival="57712.00" arrivalLane="201956820_2" arrivalPos="48.33" arrivalSpeed="15.96" duration="81.00" routeLength="555.86" waitingTime="23.00" waitingCount="2" stopTime="0.00" timeLoss="48.94" rerouteNo="1" devices="tripinfo_carIn20106:1 routing_carIn20106:1" vType="default_016" speedFactor="1.27" vaporized=""/>
    <tripinfo id="carIn114137:1" depart="57635.00" departLane="27920078#0_1" departPos="5.10" departSpeed="0.00" departDelay="4.10" arrival="57713.00" arrivalLane="-83304175#2_1" arrivalPos="189.34" arrivalSpeed="8.45" duration="78.00" routeLength="501.51" waitingTime="14.00" waitingCount="1" stopTime="0.00" timeLoss="32.37" rerouteNo="1" devices="tripinfo_carIn114137:1 routing_carIn114137:1" vType="default_016" speedFactor="1.04" vaporized=""/>
    <tripinfo id="carIn22637:1" depart="57636.00" departLane="27920078#0_1" departPos="5.10" departSpeed="0.00" departDelay="3.50" arrival="57715.00" arrivalLane="-83304175#2_1" arrivalPos="189.34" arrivalSpeed="8.97" duration="79.00" routeLength="501.51" waitingTime="15.00" waitingCount="2" stopTime="0.00" timeLoss="37.91" rerouteNo="1" devices="tripinfo_carIn22637:1 routing_carIn22637:1" vType="default_016" speedFactor="1.15" vaporized=""/>
    <tripinfo id="carIn12900:1" depart="57692.00" departLane="124812856#0_1" departPos="5.10" departSpeed="0.00" departDelay="43.80" arrival="57717.00" arrivalLane="201956810_1" arrivalPos="71.65" arrivalSpeed="13.98" duration="25.00" routeLength="134.91" waitingTime="0.00" waitingCount="0" stopTime="0.00" timeLoss="15.22" rerouteNo="1" devices="tripinfo_carIn12900:1 routing_carIn12900:1" vType="default_016" speedFactor="1.07" vaporized=""/>
    <tripinfo id="60.39" depart="57643.00" departLane="10425609#0_1" departPos="12.10" departSpeed="0.00" departDelay="0.50" arrival="57719.00" arrivalLane="202070434#2_1" arrivalPos="39.03" arrivalSpeed="13.77" duration="76.00" routeLength="425.30" waitingTime="18.00" waitingCount="3" stopTime="0.00" timeLoss="44.00" rerouteNo="1" devices="tripinfo_60.39 routing_60.39" vType="bus" speedFactor="1.00" vaporized=""/>
    <tripinfo id="h3688c1:1" depart="57679.00" departLane="315358253#1_1" departPos="5.10" departSpeed="0.00" departDelay="0.50" arrival="57719.00" arrivalLane="32978638#0_1" arrivalPos="49.29" arrivalSpeed="12.33" duration="40.00" routeLength="405.15" waitingTime="0.00" waitingCount="0" stopTime="0.00" timeLoss="6.34" rerouteNo="1" devices="tripinfo_h3688c1:1 routing_h3688c1:1" vType="default_016" speedFactor="0.91" vaporized=""/>
    <tripinfo id="carIn77943:1" depart="57608.00" departLane="124812856#0_1" departPos="5.10" departSpeed="0.00" departDelay="2.50" arrival="57721.00" arrivalLane="-653473569#5_1" arrivalPos="73.05" arrivalSpeed="13.76" duration="113.00" routeLength="450.40" waitingTime="57.00" waitingCount="2" stopTime="0.00" timeLoss="79.45" rerouteNo="1" devices="tripinfo_carIn77943:1 routing_carIn77943:1" vType="default_016" speedFactor="1.01" vaporized=""/>
    <tripinfo id="carIn73466:1" depart="57644.00" departLane="27920078#0_1" departPos="5.10" departSpeed="0.00" departDelay="7.10" arrival="57723.00" arrivalLane="201956811#0_1" arrivalPos="40.40" arrivalSpeed="14.31" duration="79.00" routeLength="432.03" waitingTime="13.00" waitingCount="3" stopTime="0.00" timeLoss="47.92" rerouteNo="1" devices="tripinfo_carIn73466:1 routing_carIn73466:1" vType="default_016" speedFactor="1.04" vaporized=""/>
    <tripinfo id="carIn12775:1" depart="57676.00" departLane="10425609#0_1" departPos="5.10" departSpeed="0.00" departDelay="0.60" arrival="57723.00" arrivalLane="-653473569#5_1" arrivalPos="73.05" arrivalSpeed="12.53" duration="47.00" routeLength="312.95" waitingTime="6.00" waitingCount="2" stopTime="0.00" timeLoss="21.77" rerouteNo="1" devices="tripinfo_carIn12775:1 routing_carIn12775:1" vType="default_016" speedFactor="0.95" vaporized=""/>
    <tripinfo id="carIn96537:1" depart="57615.00" departLane="124812856#0_1" departPos="5.10" departSpeed="0.00" departDelay="3.80" arrival="57725.00" arrivalLane="202070434#2_1" arrivalPos="39.03" arrivalSpeed="14.21" duration="110.00" routeLength="569.75" waitingTime="38.00" waitingCount="3" stopTime="0.00" timeLoss="70.30" rerouteNo="1" devices="tripinfo_carIn96537:1 routing_carIn96537:1" vType="default_016" speedFactor="1.04" vaporized=""/>
    <tripinfo id="carIn129760:1" depart="57661.00" departLane="653473569#5_1" departPos="5.10" departSpeed="0.00" departDelay="0.80" arrival="57725.00" arrivalLane="201956811#0_1" arrivalPos="40.40" arrivalSpeed="15.22" duration="64.00" routeLength="313.24" waitingTime="15.00" waitingCount="4" stopTime="0.00" timeLoss="42.43" rerouteNo="1" devices="tripinfo_carIn129760:1 routing_carIn129760:1" vType="default_016" speedFactor="1.12" vaporized=""/>
    <tripinfo id="carIn129626:1" depart="57664.00" departLane="653473569#5_1" departPos="5.10" departSpeed="0.00" departDelay="1.60" arrival="57727.00" arrivalLane="201956811#0_1" arrivalPos="40.40" arrivalSpeed="12.01" duration="63.00" routeLength="313.24" waitingTime="12.00" waitingCount="3" stopTime="0.00" timeLoss="37.36" rerouteNo="1" devices="tripinfo_carIn129626:1 routing_carIn129626:1" vType="default_016" speedFactor="0.93" vaporized=""/>
    <tripinfo id="carIn128705:1" depart="57630.00" departLane="124812856#0_1" departPos="5.10" departSpeed="0.00" departDelay="11.60" arrival="57729.00" arrivalLane="202070434#2_1" arrivalPos="39.03" arrivalSpeed="11.11" duration="99.00" routeLength="569.75" waitingTime="18.00" waitingCount="5" stopTime="0.00" timeLoss="51.73" rerouteNo="1" devices="tripinfo_carIn128705:1 routing_carIn128705:1" vType="default_016" speedFactor="0.88" vaporized=""/>
    <tripinfo id="randUni5403:1" depart="57633.00" departLane="315358253#1_1" departPos="5.10" departSpeed="0.00" departDelay="3.90" arrival="57730.00" arrivalLane="-653473569#5_1" arrivalPos="73.05" arrivalSpeed="12.73" duration="97.00" routeLength="974.99" waitingTime="2.00" waitingCount="1" stopTime="0.00" timeLoss="19.54" rerouteNo="1" devices="tripinfo_randUni5403:1 routing_randUni5403:1" vType="random_016" speedFactor="0.93" vaporized=""/>
    <tripinfo id="carIn26410:1" depart="57621.00" departLane="124812856#0_1" departPos="5.10" departSpeed="0.00" departDelay="7.50" arrival="57731.00" arrivalLane="202070434#2_1" arrivalPos="39.03" arrivalSpeed="13.19" duration="110.00" routeLength="569.75" waitingTime="31.00" waitingCount="2" stopTime="0.00" timeLoss="70.43" rerouteNo="1" devices="tripinfo_carIn26410:1 routing_carIn26410:1" vType="default_016" speedFactor="1.04" vaporized=""/>
    <tripinfo id="h317c2:1" depart="57707.00" departLane="-32978638#0_1" departPos="5.10" departSpeed="0.00" departDelay="0.10" arrival="57744.00" arrivalLane="-266565295#5_1" arrivalPos="172.76" arrivalSpeed="14.47" duration="37.00" routeLength="370.53" waitingTime="2.00" waitingCount="1" stopTime="0.00" timeLoss="10.85" rerouteNo="1" devices="tripinfo_h317c2:1 routing_h317c2:1" vType="default_016" speedFactor="1.04" vaporized=""/>
    <tripinfo id="carIn767:1" depart="57633.00" departLane="124812856#0_1" departPos="5.10" departSpeed="0.00" departDelay="14.50" arrival="57747.00" arrivalLane="-653473569#5_1" arrivalPos="73.05" arrivalSpeed="13.04" duration="114.00" routeLength="450.40" waitingTime="40.00" waitingCount="10" stopTime="0.00" timeLoss="78.62" rerouteNo="1" devices="tripinfo_carIn767:1 routing_carIn767:1" vType="default_016" speedFactor="0.94" vaporized=""/>
    <tripinfo id="carIn51024:1" depart="57627.00" departLane="124812856#0_1" departPos="5.10" departSpeed="0.00" departDelay="10.90" arrival="57748.00" arrivalLane="202070434#2_1" arrivalPos="39.03" arrivalSpeed="12.85" duration="121.00" routeLength="569.75" waitingTime="35.00" waitingCount="3" stopTime="0.00" timeLoss="78.82" rerouteNo="1" devices="tripinfo_carIn51024:1 routing_carIn51024:1" vType="default_016" speedFactor="0.99" vaporized=""/>
    <tripinfo id="carIn81046:1" depart="57611.00" departLane="124812856#0_1" departPos="5.10" departSpeed="0.00" departDelay="2.50" arrival="57749.00" arrivalLane="-653473569#5_1" arrivalPos="73.05" arrivalSpeed="14.65" duration="138.00" routeLength="450.40" waitingTime="76.00" waitingCount="4" stopTime="0.00" timeLoss="106.24" rerouteNo="1" devices="tripinfo_carIn81046:1 routing_carIn81046:1" vType="default_016" speedFactor="1.06" vaporized=""/>
    <tripinfo id="h21989c1:1" depart="57636.00" departLane="124812856#0_1" departPos="5.10" departSpeed="0.00" departDelay="15.60" arrival="57749.00" arrivalLane="202070434#2_2" arrivalPos="39.03" arrivalSpeed="12.08" duration="113.00" routeLength="569.75" waitingTime="20.00" waitingCount="3" stopTime="0.00" timeLoss="66.70" rerouteNo="1" devices="tripinfo_h21989c1:1 routing_h21989c1:1" vType="default_016" speedFactor="0.90" vaporized=""/>
    <tripinfo id="carIn106665:1" depart="57659.00" departLane="266565295#5_1" departPos="5.10" departSpeed="0.00" departDelay="1.80" arrival="57755.00" arrivalLane="24693977#1_1" arrivalPos="96.83" arrivalSpeed="11.73" duration="96.00" routeLength="834.40" waitingTime="4.00" waitingCount="2" stopTime="0.00" timeLoss="23.44" rerouteNo="1" devices="tripinfo_carIn106665:1 routing_carIn106665:1" vType="default_016" speedFactor="0.85" vaporized=""/>
    <tripinfo id="randUni22709:1" depart="57718.00" departLane="315358253#1_1" departPos="5.10" departSpeed="0.00" departDelay="0.20" arrival="57755.00" arrivalLane="32978638#0_1" arrivalPos="49.29" arrivalSpeed="14.21" duration="37.00" routeLength="405.15" waitingTime="0.00" waitingCount="0" stopTime="0.00" timeLoss="6.61" rerouteNo="1" devices="tripinfo_randUni22709:1 routing_randUni22709:1" vType="random_016" speedFactor="1.03" vaporized=""/>
    <tripinfo id="h3568c1:3" depart="57656.00" departLane="266565295#5_1" departPos="5.10" departSpeed="0.00" departDelay="0.80" arrival="57756.00" arrivalLane="-24634415_1" arrivalPos="64.03" arrivalSpeed="12.68" duration="100.00" routeLength="810.20" waitingTime="17.00" waitingCount="1" stopTime="0.00" timeLoss="35.51" rerouteNo="1" devices="tripinfo_h3568c1:3 routing_h3568c1:3" vType="default_016" speedFactor="1.00" vaporized=""/>
    <tripinfo id="h19804c1:3" depart="57624.00" departLane="124812856#0_1" departPos="5.10" departSpeed="0.00" departDelay="8.50" arrival="57757.00" arrivalLane="-653473569#5_1" arrivalPos="73.05" arrivalSpeed="12.77" duration="133.00" routeLength="450.40" waitingTime="59.00" waitingCount="9" stopTime="0.00" timeLoss="98.31" rerouteNo="1" devices="tripinfo_h19804c1:3 routing_h19804c1:3" vType="default_016" speedFactor="0.96" vaporized=""/>
    <tripinfo id="h15382c1:3" depart="57641.00" departLane="124812856#0_1" departPos="5.10" departSpeed="0.00" departDelay="18.80" arrival="57759.00" arrivalLane="-653473569#5_1" arrivalPos="73.05" arrivalSpeed="12.59" duration="118.00" routeLength="450.40" waitingTime="29.00" waitingCount="9" stopTime="0.00" timeLoss="83.98" rerouteNo="1" devices="tripinfo_h15382c1:3 routing_h15382c1:3" vType="default_016" speedFactor="0.99" vaporized=""/>
    <tripinfo id="h20539c1:3" depart="57667.00" departLane="653473569#5_1" departPos="5.10" departSpeed="0.00" departDelay="2.20" arrival="57759.00" arrivalLane="201956811#0_1" arrivalPos="40.40" arrivalSpeed="13.94" duration="92.00" routeLength="313.24" waitingTime="32.00" waitingCount="3" stopTime="0.00" timeLoss="69.10" rerouteNo="1" devices="tripinfo_h20539c1:3 routing_h20539c1:3" vType="default_016" speedFactor="1.08" vaporized=""/>
    <tripinfo id="carIn77438:1" depart="57618.00" departLane="124812856#0_1" departPos="5.10" departSpeed="0.00" departDelay="5.10" arrival="57761.00" arrivalLane="-653473569#5_1" arrivalPos="73.05" arrivalSpeed="14.25" duration="143.00" routeLength="450.40" waitingTime="70.00" waitingCount="5" stopTime="0.00" timeLoss="110.46" rerouteNo="1" devices="tripinfo_carIn77438:1 routing_carIn77438:1" vType="default_016" speedFactor="1.04" vaporized=""/>
    <tripinfo id="h2215c1:1" depart="57657.00" departLane="25145012#7_1" departPos="5.10" departSpeed="0.00" departDelay="0.90" arrival="57761.00" arrivalLane="201956811#0_1" arrivalPos="40.40" arrivalSpeed="12.83" duration="104.00" routeLength="384.54" waitingTime="46.00" waitingCount="2" stopTime="0.00" timeLoss="73.13" rerouteNo="1" devices="tripinfo_h2215c1:1 routing_h2215c1:1" vType="default_016" speedFactor="0.95" vaporized=""/>