<?xml version="1.0" encoding="UTF-8"?>

<!-- generated on 2023-08-29 12:30:24 by Eclipse SUMO libsumo Version 1.18.0
<configuration xmlns:xsi="http://www.w3.org/2001/XMLSchema-instance" xsi:noNamespaceSchemaLocation="http://sumo.dlr.de/xsd/libsumoConfiguration.xsd">

    <input>
        <net-file value="/home/stefan/RESCO/./environments/ingolstadt7/ingolstadt7.net.xml"/>
        <route-files value="/home/stefan/RESCO/./environments/ingolstadt7/ingolstadt7.rou.xml"/>
    </input>

    <output>
        <tripinfo-output value="/home/stefan/results/ITRPO-tr0-ingolstadt7-7-drq_norm-wait_norm/tripinfo_4.xml"/>
        <tripinfo-output.write-unfinished value="true"/>
    </output>

    <time>
        <begin value="57600"/>
        <end value="61200"/>
    </time>

    <processing>
        <time-to-teleport value="-1"/>
    </processing>

    <report>
        <no-warnings value="True"/>
        <no-step-log value="True"/>
    </report>

    <random_number>
        <random value="true"/>
    </random_number>

</configuration>
-->

<tripinfos xmlns:xsi="http://www.w3.org/2001/XMLSchema-instance" xsi:noNamespaceSchemaLocation="http://sumo.dlr.de/xsd/tripinfo_file.xsd">
    <tripinfo id="carIn28951:1" depart="57606.00" departLane="10425609#0_1" departPos="5.10" departSpeed="0.00" departDelay="0.20" arrival="57634.00" arrivalLane="-653473569#5_1" arrivalPos="73.05" arrivalSpeed="14.34" duration="28.00" routeLength="312.95" waitingTime="0.00" waitingCount="0" stopTime="0.00" timeLoss="6.21" rerouteNo="1" devices="tripinfo_carIn28951:1 routing_carIn28951:1" vType="default_016" speedFactor="1.09" vaporized=""/>
    <tripinfo id="carIn89578:1" depart="57614.00" departLane="124812856#0_1" departPos="5.10" departSpeed="0.00" departDelay="3.60" arrival="57634.00" arrivalLane="201956810_1" arrivalPos="71.65" arrivalSpeed="15.07" duration="20.00" routeLength="134.91" waitingTime="0.00" waitingCount="0" stopTime="0.00" timeLoss="11.00" rerouteNo="1" devices="tripinfo_carIn89578:1 routing_carIn89578:1" vType="default_016" speedFactor="1.15" vaporized=""/>
    <tripinfo id="carIn105842:1" depart="57601.00" departLane="653473569#5_1" departPos="5.10" departSpeed="0.00" departDelay="0.80" arrival="57635.00" arrivalLane="201956811#0_1" arrivalPos="40.40" arrivalSpeed="14.59" duration="34.00" routeLength="313.24" waitingTime="0.00" waitingCount="0" stopTime="0.00" timeLoss="13.16" rerouteNo="1" devices="tripinfo_carIn105842:1 routing_carIn105842:1" vType="default_016" speedFactor="1.16" vaporized=""/>
    <tripinfo id="carIn107084:1" depart="57601.00" departLane="124812856#0_1" departPos="5.10" departSpeed="0.00" departDelay="0.70" arrival="57649.00" arrivalLane="-653473569#5_1" arrivalPos="73.05" arrivalSpeed="13.47" duration="48.00" routeLength="450.40" waitingTime="3.00" waitingCount="1" stopTime="0.00" timeLoss="14.84" rerouteNo="1" devices="tripinfo_carIn107084:1 routing_carIn107084:1" vType="default_016" speedFactor="1.02" vaporized=""/>
    <tripinfo id="h15454c2:3" depart="57612.00" departLane="24608844_1" departPos="5.10" departSpeed="0.00" departDelay="0.50" arrival="57650.00" arrivalLane="32978638#0_1" arrivalPos="49.29" arrivalSpeed="14.69" duration="38.00" routeLength="354.79" waitingTime="0.00" waitingCount="0" stopTime="0.00" timeLoss="6.95" rerouteNo="1" devices="tripinfo_h15454c2:3 routing_h15454c2:3" vType="default_016" speedFactor="1.11" vaporized=""/>
    <tripinfo id="h20232c1:2" depart="57634.00" departLane="-173169611#0_1" departPos="5.10" departSpeed="0.00" departDelay="0.50" arrival="57657.00" arrivalLane="201956820_1" arrivalPos="48.33" arrivalSpeed="11.63" duration="23.00" routeLength="122.35" waitingTime="2.00" waitingCount="1" stopTime="0.00" timeLoss="11.66" rerouteNo="0" devices="tripinfo_h20232c1:2 routing_h20232c1:2" vType="default_016" speedFactor="0.87" vaporized=""/>
    <tripinfo id="carIn25202:1" depart="57629.00" departLane="315358253#1_1" departPos="5.10" departSpeed="0.00" departDelay="1.50" arrival="57664.00" arrivalLane="32978638#0_1" arrivalPos="49.29" arrivalSpeed="15.35" duration="35.00" routeLength="405.15" waitingTime="0.00" waitingCount="0" stopTime="0.00" timeLoss="8.55" rerouteNo="1" devices="tripinfo_carIn25202:1 routing_carIn25202:1" vType="default_016" speedFactor="1.18" vaporized=""/>
    <tripinfo id="h645c1:1" depart="57622.00" departLane="266565295#5_1" departPos="5.10" departSpeed="0.00" departDelay="0.40" arrival="57667.00" arrivalLane="-315358253#1_1" arrivalPos="63.90" arrivalSpeed="14.84" duration="45.00" routeLength="547.76" waitingTime="0.00" waitingCount="0" stopTime="0.00" timeLoss="7.31" rerouteNo="1" devices="tripinfo_h645c1:1 routing_h645c1:1" vType="default_016" speedFactor="1.09" vaporized=""/>
    <tripinfo id="carIn925:1" depart="57652.00" departLane="124812856#0_1" departPos="5.10" departSpeed="0.00" departDelay="25.90" arrival="57669.00" arrivalLane="201956810_1" arrivalPos="71.65" arrivalSpeed="11.90" duration="17.00" routeLength="134.91" waitingTime="0.00" waitingCount="0" stopTime="0.00" timeLoss="4.40" rerouteNo="1" devices="tripinfo_carIn925:1 routing_carIn925:1" vType="default_016" speedFactor="0.89" vaporized=""/>
    <tripinfo id="h20540c1:1" depart="57635.00" departLane="10425609#0_1" departPos="5.10" departSpeed="0.00" departDelay="1.50" arrival="57675.00" arrivalLane="-653473569#5_1" arrivalPos="73.05" arrivalSpeed="14.21" duration="40.00" routeLength="312.95" waitingTime="4.00" waitingCount="1" stopTime="0.00" timeLoss="15.85" rerouteNo="1" devices="tripinfo_h20540c1:1 routing_h20540c1:1" vType="default_016" speedFactor="1.03" vaporized=""/>
    <tripinfo id="carIn106322:1" depart="57614.00" departLane="653473569#5_1" departPos="5.10" departSpeed="0.00" departDelay="2.20" arrival="57679.00" arrivalLane="201956811#0_1" arrivalPos="40.40" arrivalSpeed="12.79" duration="65.00" routeLength="313.24" waitingTime="18.00" waitingCount="3" stopTime="0.00" timeLoss="41.13" rerouteNo="1" devices="tripinfo_carIn106322:1 routing_carIn106322:1" vType="default_016" speedFactor="1.00" vaporized=""/>
    <tripinfo id="carIn55461:1" depart="57652.00" departLane="10425609#0_1" departPos="5.10" departSpeed="0.00" departDelay="0.30" arrival="57679.00" arrivalLane="201956810_1" arrivalPos="71.65" arrivalSpeed="13.57" duration="27.00" routeLength="255.78" waitingTime="0.00" waitingCount="0" stopTime="0.00" timeLoss="7.08" rerouteNo="1" devices="tripinfo_carIn55461:1 routing_carIn55461:1" vType="default_016" speedFactor="1.01" vaporized=""/>
    <tripinfo id="carIn28488:1" depart="57611.00" departLane="653473569#5_1" departPos="5.10" departSpeed="0.00" departDelay="0.80" arrival="57680.00" arrivalLane="201956820_1" arrivalPos="48.33" arrivalSpeed="14.90" duration="69.00" routeLength="437.07" waitingTime="20.00" waitingCount="2" stopTime="0.00" timeLoss="39.84" rerouteNo="1" devices="tripinfo_carIn28488:1 routing_carIn28488:1" vType="default_016" speedFactor="1.13" vaporized=""/>
    <tripinfo id="carIn5482:1" depart="57617.00" departLane="653473569#5_1" departPos="5.10" departSpeed="0.00" departDelay="3.60" arrival="57681.00" arrivalLane="201956811#0_1" arrivalPos="40.40" arrivalSpeed="11.70" duration="64.00" routeLength="313.24" waitingTime="12.00" waitingCount="3" stopTime="0.00" timeLoss="36.67" rerouteNo="1" devices="tripinfo_carIn5482:1 routing_carIn5482:1" vType="default_016" speedFactor="0.86" vaporized=""/>
    <tripinfo id="carIn36103:1" depart="57620.00" departLane="653473569#5_1" departPos="5.10" departSpeed="0.00" departDelay="4.00" arrival="57683.00" arrivalLane="201956811#0_1" arrivalPos="40.40" arrivalSpeed="13.98" duration="63.00" routeLength="313.24" waitingTime="9.00" waitingCount="2" stopTime="0.00" timeLoss="40.23" rerouteNo="1" devices="tripinfo_carIn36103:1 routing_carIn36103:1" vType="default_016" speedFactor="1.03" vaporized=""/>
    <tripinfo id="carIn113711:1" depart="57601.00" departLane="-24693977#1_1" departPos="5.10" departSpeed="0.00" departDelay="0.70" arrival="57686.00" arrivalLane="-266565295#5_1" arrivalPos="172.76" arrivalSpeed="13.51" duration="85.00" routeLength="840.03" waitingTime="5.00" waitingCount="2" stopTime="0.00" timeLoss="26.55" rerouteNo="1" devices="tripinfo_carIn113711:1 routing_carIn113711:1" vType="default_016" speedFactor="1.05" vaporized=""/>
    <tripinfo id="carIn79400:1" depart="57604.00" departLane="-24693977#1_1" departPos="5.10" departSpeed="0.00" departDelay="0.10" arrival="57686.00" arrivalLane="-266565295#5_2" arrivalPos="172.76" arrivalSpeed="13.80" duration="82.00" routeLength="840.03" waitingTime="2.00" waitingCount="1" stopTime="0.00" timeLoss="24.19" rerouteNo="1" devices="tripinfo_carIn79400:1 routing_carIn79400:1" vType="default_016" speedFactor="1.08" vaporized=""/>
    <tripinfo id="h21130c2:1" depart="57630.00" departLane="10425609#0_1" departPos="5.10" departSpeed="0.00" departDelay="0.10" arrival="57686.00" arrivalLane="202070434#2_1" arrivalPos="39.03" arrivalSpeed="12.24" duration="56.00" routeLength="432.30" waitingTime="8.00" waitingCount="1" stopTime="0.00" timeLoss="22.12" rerouteNo="1" devices="tripinfo_h21130c2:1 routing_h21130c2:1" vType="default_016" speedFactor="0.94" vaporized=""/>
    <tripinfo id="carIn33538:1" depart="57671.00" departLane="37386279_1" departPos="5.10" departSpeed="0.00" departDelay="0.30" arrival="57687.00" arrivalLane="-24634414#4_1" arrivalPos="22.88" arrivalSpeed="7.37" duration="16.00" routeLength="125.23" waitingTime="0.00" waitingCount="0" stopTime="0.00" timeLoss="4.27" rerouteNo="0" devices="tripinfo_carIn33538:1 routing_carIn33538:1" vType="default_016" speedFactor="1.00" vaporized=""/>
    <tripinfo id="carIn131078:1" depart="57677.00" departLane="124812856#0_1" departPos="5.10" departSpeed="0.00" departDelay="41.60" arrival="57692.00" arrivalLane="201956810_1" arrivalPos="71.65" arrivalSpeed="13.05" duration="15.00" routeLength="134.91" waitingTime="0.00" waitingCount="0" stopTime="0.00" timeLoss="4.14" rerouteNo="1" devices="tripinfo_carIn131078:1 routing_carIn131078:1" vType="default_016" speedFactor="0.99" vaporized=""/>
    <tripinfo id="60.39" depart="57643.00" departLane="10425609#0_1" departPos="12.10" departSpeed="0.00" departDelay="0.50" arrival="57692.00" arrivalLane="202070434#2_1" arrivalPos="39.03" arrivalSpeed="12.47" duration="49.00" routeLength="425.30" waitingTime="0.00" waitingCount="0" stopTime="0.00" timeLoss="16.93" rerouteNo="1" devices="tripinfo_60.39 routing_60.39" vType="bus" speedFactor="1.00" vaporized=""/>
    <tripinfo id="carIn124416:1" depart="57663.00" departLane="-173169611#0_1" departPos="5.10" departSpeed="0.00" departDelay="0.50" arrival="57696.00" arrivalLane="201956820_1" arrivalPos="48.33" arrivalSpeed="12.92" duration="33.00" routeLength="122.35" waitingTime="15.00" waitingCount="1" stopTime="0.00" timeLoss="23.32" rerouteNo="0" devices="tripinfo_carIn124416:1 routing_carIn124416:1" vType="default_016" speedFactor="1.00" vaporized=""/>
    <tripinfo id="carIn114137:1" depart="57634.00" departLane="27920078#0_1" departPos="5.10" departSpeed="0.00" departDelay="3.10" arrival="57697.00" arrivalLane="-83304175#2_1" arrivalPos="189.34" arrivalSpeed="7.18" duration="63.00" routeLength="501.51" waitingTime="0.00" waitingCount="0" stopTime="0.00" timeLoss="10.53" rerouteNo="1" devices="tripinfo_carIn114137:1 routing_carIn114137:1" vType="default_016" speedFactor="0.91" vaporized=""/>
    <tripinfo id="carIn22637:1" depart="57635.00" departLane="27920078#0_1" departPos="5.10" departSpeed="0.00" departDelay="2.50" arrival="57699.00" arrivalLane="-83304175#2_1" arrivalPos="189.34" arrivalSpeed="8.31" duration="64.00" routeLength="501.51" waitingTime="1.00" waitingCount="1" stopTime="0.00" timeLoss="20.02" rerouteNo="1" devices="tripinfo_carIn22637:1 routing_carIn22637:1" vType="default_016" speedFactor="1.08" vaporized=""/>
    <tripinfo id="carIn77943:1" depart="57608.00" departLane="124812856#0_1" departPos="5.10" departSpeed="0.00" departDelay="2.50" arrival="57702.00" arrivalLane="-653473569#5_1" arrivalPos="73.05" arrivalSpeed="12.58" duration="94.00" routeLength="450.40" waitingTime="32.00" waitingCount="4" stopTime="0.00" timeLoss="59.86" rerouteNo="1" devices="tripinfo_carIn77943:1 routing_carIn77943:1" vType="default_016" speedFactor="0.98" vaporized=""/>
    <tripinfo id="carIn102997:1" depart="57623.00" departLane="653473569#5_1" departPos="5.10" departSpeed="0.00" departDelay="4.80" arrival="57702.00" arrivalLane="201956811#0_1" arrivalPos="40.40" arrivalSpeed="13.99" duration="79.00" routeLength="313.24" waitingTime="17.00" waitingCount="3" stopTime="0.00" timeLoss="58.64" rerouteNo="1" devices="tripinfo_carIn102997:1 routing_carIn102997:1" vType="default_016" speedFactor="1.18" vaporized=""/>
    <tripinfo id="randUni10474:1" depart="57605.00" departLane="124812856#0_1" departPos="5.10" departSpeed="0.00" departDelay="0.20" arrival="57704.00" arrivalLane="-653473569#5_1" arrivalPos="73.05" arrivalSpeed="13.45" duration="99.00" routeLength="450.40" waitingTime="33.00" waitingCount="4" stopTime="0.00" timeLoss="66.83" rerouteNo="1" devices="tripinfo_randUni10474:1 routing_randUni10474:1" vType="random_016" speedFactor="1.05" vaporized=""/>
    <tripinfo id="carIn75554:1" depart="57626.00" departLane="653473569#5_1" departPos="5.10" departSpeed="0.00" departDelay="5.20" arrival="57704.00" arrivalLane="201956811#0_1" arrivalPos="40.40" arrivalSpeed="11.61" duration="78.00" routeLength="313.24" waitingTime="13.00" waitingCount="3" stopTime="0.00" timeLoss="51.97" rerouteNo="1" devices="tripinfo_carIn75554:1 routing_carIn75554:1" vType="default_016" speedFactor="0.91" vaporized=""/>
    <tripinfo id="carIn81046:1" depart="57611.00" departLane="124812856#0_1" departPos="5.10" departSpeed="0.00" departDelay="2.50" arrival="57706.00" arrivalLane="-653473569#5_1" arrivalPos="73.05" arrivalSpeed="13.77" duration="95.00" routeLength="450.40" waitingTime="26.00" waitingCount="3" stopTime="0.00" timeLoss="62.37" rerouteNo="1" devices="tripinfo_carIn81046:1 routing_carIn81046:1" vType="default_016" speedFactor="1.04" vaporized=""/>
    <tripinfo id="randUni20090:1" depart="57630.00" departLane="653473569#5_1" departPos="5.10" departSpeed="0.00" departDelay="2.00" arrival="57706.00" arrivalLane="201956811#0_1" arrivalPos="40.40" arrivalSpeed="13.32" duration="76.00" routeLength="313.24" waitingTime="10.00" waitingCount="3" stopTime="0.00" timeLoss="51.40" rerouteNo="1" devices="tripinfo_randUni20090:1 routing_randUni20090:1" vType="random_016" speedFactor="0.97" vaporized=""/>
    <tripinfo id="carIn55090:1" depart="57666.00" departLane="-173169611#0_1" departPos="5.10" departSpeed="0.00" departDelay="1.40" arrival="57706.00" arrivalLane="201956820_1" arrivalPos="48.33" arrivalSpeed="13.14" duration="40.00" routeLength="122.35" waitingTime="17.00" waitingCount="2" stopTime="0.00" timeLoss="30.01" rerouteNo="0" devices="tripinfo_carIn55090:1 routing_carIn55090:1" vType="default_016" speedFactor="1.02" vaporized=""/>
    <tripinfo id="carIn107842:1" depart="57637.00" departLane="124812856#0_1" departPos="5.10" departSpeed="0.00" departDelay="15.90" arrival="57709.00" arrivalLane="-653473569#5_1" arrivalPos="73.05" arrivalSpeed="15.09" duration="72.00" routeLength="450.40" waitingTime="11.00" waitingCount="3" stopTime="0.00" timeLoss="40.59" rerouteNo="1" devices="tripinfo_carIn107842:1 routing_carIn107842:1" vType="default_016" speedFactor="1.09" vaporized=""/>
    <tripinfo id="carIn115641:1" depart="57614.00" departLane="-24693977#1_1" departPos="5.10" departSpeed="0.00" departDelay="0.90" arrival="57716.00" arrivalLane="-266565295#5_1" arrivalPos="172.76" arrivalSpeed="14.74" duration="102.00" routeLength="840.03" waitingTime="26.00" waitingCount="2" stopTime="0.00" timeLoss="45.91" rerouteNo="1" devices="tripinfo_carIn115641:1 routing_carIn115641:1" vType="default_016" speedFactor="1.11" vaporized=""/>
    <tripinfo id="carIn12152:1" depart="57647.00" departLane="24599188#0.94_1" departPos="5.10" departSpeed="0.00" departDelay="0.50" arrival="57717.00" arrivalLane="24693977#1_1" arrivalPos="96.83" arrivalSpeed="11.66" duration="70.00" routeLength="511.77" waitingTime="4.00" waitingCount="1" stopTime="0.00" timeLoss="17.21" rerouteNo="1" devices="tripinfo_carIn12152:1 routing_carIn12152:1" vType="default_016" speedFactor="0.91" vaporized=""/>
    <tripinfo id="carIn10158:1" depart="57622.00" departLane="-24693977#1_1" departPos="5.10" departSpeed="0.00" departDelay="0.80" arrival="57721.00" arrivalLane="-266565295#5_2" arrivalPos="172.76" arrivalSpeed="13.12" duration="99.00" routeLength="840.03" waitingTime="19.00" waitingCount="2" stopTime="0.00" timeLoss="38.66" rerouteNo="1" devices="tripinfo_carIn10158:1 routing_carIn10158:1" vType="default_016" speedFactor="1.02" vaporized=""/>
    <tripinfo id="h3688c1:1" depart="57679.00" departLane="315358253#1_1" departPos="5.10" departSpeed="0.00" departDelay="0.50" arrival="57721.00" arrivalLane="32978638#0_1" arrivalPos="49.29" arrivalSpeed="13.49" duration="42.00" routeLength="405.15" waitingTime="0.00" waitingCount="0" stopTime="0.00" timeLoss="12.20" rerouteNo="1" devices="tripinfo_h3688c1:1 routing_h3688c1:1" vType="default_016" speedFactor="1.02" vaporized=""/>
    <tripinfo id="carIn52610:1" depart="57615.00" departLane="-24693977#1_1" departPos="5.10" departSpeed="0.00" departDelay="0.10" arrival="57722.00" arrivalLane="-266565295#5_1" arrivalPos="172.76" arrivalSpeed="13.16" duration="107.00" routeLength="840.03" waitingTime="26.00" waitingCount="2" stopTime="0.00" timeLoss="44.37" rerouteNo="1" devices="tripinfo_carIn52610:1 routing_carIn52610:1" vType="default_016" speedFactor="1.00" vaporized=""/>
    <tripinfo id="carIn12900:1" depart="57696.00" departLane="124812856#0_1" departPos="5.10" departSpeed="0.00" departDelay="47.80" arrival="57726.00" arrivalLane="201956810_1" arrivalPos="71.65" arrivalSpeed="10.35" duration="30.00" routeLength="134.91" waitingTime="8.00" waitingCount="1" stopTime="0.00" timeLoss="16.79" rerouteNo="1" devices="tripinfo_carIn12900:1 routing_carIn12900:1" vType="default_016" speedFactor="0.83" vaporized=""/>
    <tripinfo id="carIn26410:1" depart="57620.00" departLane="124812856#0_1" departPos="5.10" departSpeed="0.00" departDelay="6.50" arrival="57728.00" arrivalLane="202070434#2_2" arrivalPos="39.03" arrivalSpeed="13.94" duration="108.00" routeLength="569.75" waitingTime="33.00" waitingCount="3" stopTime="0.00" timeLoss="68.20" rerouteNo="1" devices="tripinfo_carIn26410:1 routing_carIn26410:1" vType="default_016" speedFactor="1.04" vaporized=""/>
    <tripinfo id="h3568c1:3" depart="57656.00" departLane="266565295#5_1" departPos="5.10" departSpeed="0.00" departDelay="0.80" arrival="57728.00" arrivalLane="-24634415_1" arrivalPos="64.03" arrivalSpeed="14.57" duration="72.00" routeLength="810.20" waitingTime="0.00" waitingCount="0" stopTime="0.00" timeLoss="14.35" rerouteNo="1" devices="tripinfo_h3568c1:3 routing_h3568c1:3" vType="default_016" speedFactor="1.12" vaporized=""/>
    <tripinfo id="carIn96537:1" depart="57615.00" departLane="124812856#0_1" departPos="5.10" departSpeed="0.00" departDelay="3.80" arrival="57729.00" arrivalLane="202070434#2_1" arrivalPos="39.03" arrivalSpeed="15.25" duration="114.00" routeLength="569.75" waitingTime="48.00" waitingCount="2" stopTime="0.00" timeLoss="77.03" rerouteNo="1" devices="tripinfo_carIn96537:1 routing_carIn96537:1" vType="default_016" speedFactor="1.13" vaporized=""/>
    <tripinfo id="carIn13117:1" depart="57627.00" departLane="27920078#0_1" departPos="5.10" departSpeed="0.00" departDelay="1.80" arrival="57731.00" arrivalLane="201956820_1" arrivalPos="48.33" arrivalSpeed="13.08" duration="104.00" routeLength="552.44" waitingTime="43.00" waitingCount="2" stopTime="0.00" timeLoss="62.70" rerouteNo="1" devices="tripinfo_carIn13117:1 routing_carIn13117:1" vType="default_016" speedFactor="0.98" vaporized=""/>
    <tripinfo id="h10915c2:1" depart="57626.00" departLane="315358253#1_1" departPos="5.10" departSpeed="0.00" departDelay="0.20" arrival="57731.00" arrivalLane="-653473569#5_1" arrivalPos="73.05" arrivalSpeed="13.53" duration="105.00" routeLength="970.09" waitingTime="13.00" waitingCount="1" stopTime="0.00" timeLoss="32.98" rerouteNo="1" devices="tripinfo_h10915c2:1 routing_h10915c2:1" vType="default_016" speedFactor="0.99" vaporized=""/>
    <tripinfo id="carIn51024:1" depart="57625.00" departLane="124812856#0_1" departPos="5.10" departSpeed="0.00" departDelay="8.90" arrival="57732.00" arrivalLane="202070434#2_1" arrivalPos="39.03" arrivalSpeed="14.23" duration="107.00" routeLength="569.75" waitingTime="31.00" waitingCount="2" stopTime="0.00" timeLoss="67.96" rerouteNo="1" devices="tripinfo_carIn51024:1 routing_carIn51024:1" vType="default_016" speedFactor="1.06" vaporized=""/>
    <tripinfo id="carIn128705:1" depart="57628.00" departLane="124812856#0_1" departPos="5.10" departSpeed="0.00" departDelay="9.60" arrival="57732.00" arrivalLane="202070434#2_2" arrivalPos="39.03" arrivalSpeed="13.23" duration="104.00" routeLength="569.75" waitingTime="22.00" waitingCount="2" stopTime="0.00" timeLoss="63.85" rerouteNo="1" devices="tripinfo_carIn128705:1 routing_carIn128705:1" vType="default_016" speedFactor="1.03" vaporized=""/>
    <tripinfo id="carIn20106:1" depart="57631.00" departLane="27920078#0_1" departPos="5.10" departSpeed="0.00" departDelay="3.70" arrival="57732.00" arrivalLane="201956820_2" arrivalPos="48.33" arrivalSpeed="12.21" duration="101.00" routeLength="555.86" waitingTime="36.00" waitingCount="2" stopTime="0.00" timeLoss="57.79" rerouteNo="1" devices="tripinfo_carIn20106:1 routing_carIn20106:1" vType="default_016" speedFactor="0.93" vaporized=""/>
    <tripinfo id="h21989c1:1" depart="57634.00" departLane="124812856#0_1" departPos="5.10" departSpeed="0.00" departDelay="13.60" arrival="57734.00" arrivalLane="202070434#2_1" arrivalPos="39.03" arrivalSpeed="15.53" duration="100.00" routeLength="569.75" waitingTime="24.00" waitingCount="2" stopTime="0.00" timeLoss="64.89" rerouteNo="1" devices="tripinfo_h21989c1:1 routing_h21989c1:1" vType="default_016" speedFactor="1.18" vaporized=""/>
    <tripinfo id="carIn37268:1" depart="57636.00" departLane="653473569#5_1" departPos="5.10" departSpeed="0.00" departDelay="0.90" arrival="57734.00" arrivalLane="201956811#0_1" arrivalPos="40.40" arrivalSpeed="14.77" duration="98.00" routeLength="313.24" waitingTime="28.00" waitingCount="5" stopTime="0.00" timeLoss="75.25" rerouteNo="1" devices="tripinfo_carIn37268:1 routing_carIn37268:1" vType="default_016" speedFactor="1.08" vaporized=""/>
    <tripinfo id="carIn129760:1" depart="57661.00" departLane="653473569#5_1" departPos="5.10" departSpeed="0.00" departDelay="0.80" arrival="57736.00" arrivalLane="201956811#0_1" arrivalPos="40.40" arrivalSpeed="14.68" duration="75.00" routeLength="313.24" waitingTime="23.00" waitingCount="4" stopTime="0.00" timeLoss="53.64" rerouteNo="1" devices="tripinfo_carIn129760:1 routing_carIn129760:1" vType="default_016" speedFactor="1.12" vaporized=""/>
    <tripinfo id="randUni5403:1" depart="57632.00" departLane="315358253#1_1" departPos="5.10" departSpeed="0.00" departDelay="2.90" arrival="57737.00" arrivalLane="-653473569#5_1" arrivalPos="73.05" arrivalSpeed="12.25" duration="105.00" routeLength="970.09" waitingTime="4.00" waitingCount="2" stopTime="0.00" timeLoss="25.70" rerouteNo="1" devices="tripinfo_randUni5403:1 routing_randUni5403:1" vType="random_016" speedFactor="0.90" vaporized=""/>
    <tripinfo id="h317c2:1" depart="57707.00" departLane="-32978638#0_1" departPos="5.10" departSpeed="0.00" departDelay="0.10" arrival="57742.00" arrivalLane="-266565295#5_1" arrivalPos="172.76" arrivalSpeed="12.91" duration="35.00" routeLength="370.53" waitingTime="0.00" waitingCount="0" stopTime="0.00" timeLoss="6.28" rerouteNo="1" devices="tripinfo_h317c2:1 routing_h317c2:1" vType="default_016" speedFactor="0.97" vaporized=""/>
    <tripinfo id="carIn77438:1" depart="57618.00" departLane="124812856#0_1" departPos="5.10" departSpeed="0.00" departDelay="5.10" arrival="57743.00" arrivalLane="-653473569#5_1" arrivalPos="73.05" arrivalSpeed="11.04" duration="125.00" routeLength="450.40" waitingTime="49.00" waitingCount="5" stopTime="0.00" timeLoss="84.39" rerouteNo="1" devices="tripinfo_carIn77438:1 routing_carIn77438:1" vType="default_016" speedFactor="0.82" vaporized=""/>
    <tripinfo id="carIn106665:1" depart="57659.00" departLane="266565295#5_1" departPos="5.10" departSpeed="0.00" departDelay="1.80" arrival="57743.00" arrivalLane="24693977#1_1" arrivalPos="96.83" arrivalSpeed="12.87" duration="84.00" routeLength="834.40" waitingTime="8.00" waitingCount="1" stopTime="0.00" timeLoss="23.54" rerouteNo="1" devices="tripinfo_carIn106665:1 routing_carIn106665:1" vType="default_016" speedFactor="1.02" vaporized=""/>
    <tripinfo id="carIn767:1" depart="57631.00" departLane="124812856#0_1" departPos="5.10" departSpeed="0.00" departDelay="12.50" arrival="57745.00" arrivalLane="-653473569#5_1" arrivalPos="73.05" arrivalSpeed="10.94" duration="114.00" routeLength="450.40" waitingTime="40.00" waitingCount="5" stopTime="0.00" timeLoss="73.58" rerouteNo="1" devices="tripinfo_carIn767:1 routing_carIn767:1" vType="default_016" speedFactor="0.82" vaporized=""/>
    <tripinfo id="carIn129626:1" depart="57664.00" departLane="653473569#5_1" departPos="5.10" departSpeed="0.00" departDelay="1.60" arrival="57751.00" arrivalLane="201956811#0_1" arrivalPos="40.40" arrivalSpeed="11.27" duration="87.00" routeLength="313.24" waitingTime="30.00" waitingCount="5" stopTime="0.00" timeLoss="60.41" rerouteNo="1" devices="tripinfo_carIn129626:1 routing_carIn129626:1" vType="default_016" speedFactor="0.89" vaporized=""/>
    <tripinfo id="carIn3969:1" depart="57643.00" departLane="124812856#0_1" departPos="5.10" departSpeed="0.00" departDelay="19.30" arrival="57753.00" arrivalLane="-653473569#5_1" arrivalPos="73.05" arrivalSpeed="15.72" duration="110.00" routeLength="450.40" waitingTime="30.00" waitingCount="5" stopTime="0.00" timeLoss="81.85" rerouteNo="1" devices="tripinfo_carIn3969:1 routing_carIn3969:1" vType="default_016" speedFactor="1.17" vaporized=""/>
    <tripinfo id="h20539c1:3" depart="57667.00" departLane="653473569#5_1" departPos="5.10" departSpeed="0.00" departDelay="2.20" arrival="57753.00" arrivalLane="201956811#0_1" arrivalPos="40.40" arrivalSpeed="14.34" duration="86.00" routeLength="313.24" waitingTime="25.00" waitingCount="5" stopTime="0.00" timeLoss="63.49" rerouteNo="1" devices="tripinfo_h20539c1:3 routing_h20539c1:3" vType="default_016" speedFactor="1.06" vaporized=""/>
    <tripinfo id="h19804c1:3" depart="57623.00" departLane="124812856#0_1" departPos="5.10" departSpeed="0.00" departDelay="7.50" arrival="57757.00" arrivalLane="-653473569#5_1" arrivalPos="73.05" arrivalSpeed="13.05" duration="134.00" routeLength="450.40" waitingTime="51.00" waitingCount="7" stopTime="0.00" timeLoss="98.73" rerouteNo="1" devices="tripinfo_h19804c1:3 routing_h19804c1:3" vType="default_016" speedFactor="0.96" vaporized=""/>
    <tripinfo id="60R.41" depart="57623.00" departLane="27920078#0_1" departPos="12.10" departSpeed="0.00" departDelay="0.30" arrival="57758.00" arrivalLane="201956811#0_1" arrivalPos="40.40" arrivalSpeed="11.40" duration="135.00" routeLength="425.03" waitingTime="54.00" waitingCount="4" stopTime="0.00" timeLoss="103.56" rerouteNo="1" devices="tripinfo_60R.41 routing_60R.41" vType="bus" speedFactor="1.00" vaporized=""/>
    <tripinfo id="randUni22709:1" depart="57718.00" departLane="315358253#1_1" departPos="5.10" departSpeed="0.00" departDelay="0.20" arrival="57759.00" arrivalLane="32978638#0_1" arrivalPos="49.29" arrivalSpeed="11.53" duration="41.00" routeLength="405.15" waitingTime="0.00" waitingCount="0" stopTime="0.00" timeLoss="6.10" rerouteNo="1" devices="tripinfo_randUni22709:1 routing_randUni22709:1" vType="random_016" speedFactor="0.89" vaporized=""/>
    <tripinfo id="carIn12775:1" depart="57676.00" departLane="10425609#0_1" departPos="5.10" departSpeed="0.00" departDelay="0.60" arrival="57760.00" arrivalLane="-653473569#5_1" arrivalPos="73.05" arrivalSpeed="12.44" duration="84.00" routeLength="312.95" waitingTime="29.00" waitingCount="4" stopTime="0.00" timeLoss="56.79" rerouteNo="1" devices="tripinfo_carIn12775:1 routing_carIn12775:1" vType="default_016" speedFactor="0.91" vaporized=""/>
    <tripinfo id="carIn99509:1" depart="57720.00" departLane="-32978638#0_1" departPos="5.10" departSpeed="0.00" departDelay="0.20" arrival="57765.00" arrivalLane="-315358253#1_1" arrivalPos="63.90" arrivalSpeed="10.98" duration="45.00" routeLength="422.17" waitingTime="0.00" waitingCount="0" stopTime="0.00" timeLoss="7.29" rerouteNo="1" devices="tripinfo_carIn99509:1 routing_carIn99509:1" vType="default_015" speedFactor="0.85" vaporized=""/>
    <tripinfo id="carIn75079:1" depart="57747.00" departLane="-173169611#0_1" departPos="5.10" departSpeed="0.00" departDelay="0.60" arrival="57766.00" arrivalLane="201956820_1" arrivalPos="48.33" arrivalSpeed="15.23" duration="19.00" routeLength="122.35" waitingTime="2.00" waitingCount="1" stopTime="0.00" timeLoss="10.28" rerouteNo="0" devices="tripinfo_carIn75079:1 routing_carIn75079:1" vType="default_016" speedFactor="1.16" vaporized=""/>
    <tripinfo id="h330c1:1" depart="57736.00" departLane="-32978638#0_1" departPos="5.10" departSpeed="0.00" departDelay="0.20" arrival="57769.00" arrivalLane="-266565295#5_1" arrivalPos="172.76" arrivalSpeed="14.18" duration="33.00" routeLength="370.53" waitingTime="0.00" waitingCount="0" stopTime="0.00" timeLoss="6.52" rerouteNo="1" devices="tripinfo_h330c1:1 routing_h330c1:1" vType="default_016" speedFactor="1.05" vaporized=""/>