<?xml version="1.0" encoding="UTF-8"?>

<!-- generated on 2023-08-31 14:29:34 by Eclipse SUMO libsumo Version 1.18.0
<configuration xmlns:xsi="http://www.w3.org/2001/XMLSchema-instance" xsi:noNamespaceSchemaLocation="http://sumo.dlr.de/xsd/libsumoConfiguration.xsd">

    <input>
        <net-file value="/home/stefan/RESCO/./environments/cologne8/cologne8.net.xml"/>
        <route-files value="/home/stefan/RESCO/./environments/cologne8/cologne8.rou.xml"/>
    </input>

    <output>
        <tripinfo-output value="/home/stefan/results/RAINBOW-tr0-cologne8-0-drq_norm-wait_norm/tripinfo_78.xml"/>
        <tripinfo-output.write-unfinished value="true"/>
    </output>

    <time>
        <begin value="25200"/>
        <end value="28800"/>
    </time>

    <processing>
        <time-to-teleport value="-1"/>
    </processing>

    <report>
        <no-warnings value="True"/>
        <no-step-log value="True"/>
    </report>

    <random_number>
        <random value="true"/>
    </random_number>

</configuration>
-->

<tripinfos xmlns:xsi="http://www.w3.org/2001/XMLSchema-instance" xsi:noNamespaceSchemaLocation="http://sumo.dlr.de/xsd/tripinfo_file.xsd">
    <tripinfo id="142890_415_0" depart="25218.00" departLane="-23283579#1_0" departPos="4.40" departSpeed="0.00" departDelay="0.00" arrival="25226.00" arrivalLane="23283579#1_0" arrivalPos="22.22" arrivalSpeed="12.16" duration="8.00" routeLength="44.72" waitingTime="0.00" waitingCount="0" stopTime="0.00" timeLoss="4.44" rerouteNo="0" devices="tripinfo_142890_415_0 routing_142890_415_0" vType="pkw" speedFactor="1.11" vaporized=""/>
    <tripinfo id="137312_412_0" depart="25200.00" departLane="-23283579#1_0" departPos="4.40" departSpeed="0.00" departDelay="0.00" arrival="25233.00" arrivalLane="23283436_0" arrivalPos="65.76" arrivalSpeed="14.21" duration="33.00" routeLength="404.67" waitingTime="0.00" waitingCount="0" stopTime="0.00" timeLoss="4.10" rerouteNo="1" devices="tripinfo_137312_412_0 routing_137312_412_0" vType="pkw" speedFactor="1.02" vaporized=""/>
    <tripinfo id="155570_420_0" depart="25200.00" departLane="-28675510#11_0" departPos="4.40" departSpeed="0.00" departDelay="0.00" arrival="25243.00" arrivalLane="28675510#7_0" arrivalPos="257.94" arrivalSpeed="13.30" duration="43.00" routeLength="516.12" waitingTime="0.00" waitingCount="0" stopTime="0.00" timeLoss="4.89" rerouteNo="0" devices="tripinfo_155570_420_0 routing_155570_420_0" vType="pkw" speedFactor="0.98" vaporized=""/>
    <tripinfo id="114597_403_0" depart="25201.00" departLane="22917421#3_0" departPos="4.40" departSpeed="0.00" departDelay="0.00" arrival="25244.00" arrivalLane="-186623965#14_1" arrivalPos="159.69" arrivalSpeed="14.27" duration="43.00" routeLength="476.78" waitingTime="0.00" waitingCount="0" stopTime="0.00" timeLoss="5.19" rerouteNo="1" devices="tripinfo_114597_403_0 routing_114597_403_0" vType="pkw" speedFactor="1.05" vaporized=""/>
    <tripinfo id="134603_411_0" depart="25206.00" departLane="-28675510#11_0" departPos="4.40" departSpeed="0.00" departDelay="0.00" arrival="25247.00" arrivalLane="28675510#7_0" arrivalPos="257.94" arrivalSpeed="13.67" duration="41.00" routeLength="516.12" waitingTime="0.00" waitingCount="0" stopTime="0.00" timeLoss="5.20" rerouteNo="0" devices="tripinfo_134603_411_0 routing_134603_411_0" vType="pkw" speedFactor="1.06" vaporized=""/>
    <tripinfo id="138070_412_0" depart="25229.00" departLane="22917421#3_0" departPos="4.40" departSpeed="0.00" departDelay="0.00" arrival="25254.00" arrivalLane="186623965#17_0" arrivalPos="143.63" arrivalSpeed="14.13" duration="25.00" routeLength="257.42" waitingTime="0.00" waitingCount="0" stopTime="0.00" timeLoss="3.47" rerouteNo="0" devices="tripinfo_138070_412_0 routing_138070_412_0" vType="pkw" speedFactor="1.10" vaporized=""/>
    <tripinfo id="140143_414_0" depart="25211.00" departLane="-28675510#11_0" departPos="4.40" departSpeed="0.00" departDelay="1.00" arrival="25256.00" arrivalLane="28675510#7_0" arrivalPos="257.94" arrivalSpeed="13.53" duration="45.00" routeLength="516.12" waitingTime="0.00" waitingCount="0" stopTime="0.00" timeLoss="9.73" rerouteNo="0" devices="tripinfo_140143_414_0 routing_140143_414_0" vType="pkw" speedFactor="1.06" vaporized=""/>
    <tripinfo id="119181_405_0" depart="25226.00" departLane="186623965#9_0" departPos="4.40" departSpeed="0.00" departDelay="0.00" arrival="25256.00" arrivalLane="42925825#0_0" arrivalPos="254.17" arrivalSpeed="16.35" duration="30.00" routeLength="418.48" waitingTime="0.00" waitingCount="0" stopTime="0.00" timeLoss="4.61" rerouteNo="0" devices="tripinfo_119181_405_0 routing_119181_405_0" vType="pkw" speedFactor="1.20" vaporized=""/>
    <tripinfo id="153496_420_0" depart="25232.00" departLane="22917421#3_0" departPos="4.40" departSpeed="0.00" departDelay="0.00" arrival="25259.00" arrivalLane="186623965#17_0" arrivalPos="143.63" arrivalSpeed="13.38" duration="27.00" routeLength="257.42" waitingTime="0.00" waitingCount="0" stopTime="0.00" timeLoss="3.48" rerouteNo="0" devices="tripinfo_153496_420_0 routing_153496_420_0" vType="pkw" speedFactor="1.00" vaporized=""/>
    <tripinfo id="155353_420_0" depart="25235.00" departLane="22917421#3_0" departPos="4.40" departSpeed="0.00" departDelay="1.00" arrival="25266.00" arrivalLane="186623965#17_0" arrivalPos="143.63" arrivalSpeed="11.87" duration="31.00" routeLength="257.42" waitingTime="0.00" waitingCount="0" stopTime="0.00" timeLoss="3.73" rerouteNo="0" devices="tripinfo_155353_420_0 routing_155353_420_0" vType="pkw" speedFactor="0.87" vaporized=""/>
    <tripinfo id="161942_421_0" depart="25233.00" departLane="-42925825#2_0" departPos="4.40" departSpeed="0.00" departDelay="0.00" arrival="25273.00" arrivalLane="42925825#0_0" arrivalPos="254.17" arrivalSpeed="13.12" duration="40.00" routeLength="508.64" waitingTime="0.00" waitingCount="0" stopTime="0.00" timeLoss="4.59" rerouteNo="0" devices="tripinfo_161942_421_0 routing_161942_421_0" vType="pkw" speedFactor="1.04" vaporized=""/>
    <tripinfo id="118788_405_0" depart="25247.00" departLane="22917421#3_0" departPos="4.40" departSpeed="0.00" departDelay="0.00" arrival="25276.00" arrivalLane="186623965#17_0" arrivalPos="143.63" arrivalSpeed="12.93" duration="29.00" routeLength="257.42" waitingTime="0.00" waitingCount="0" stopTime="0.00" timeLoss="4.97" rerouteNo="0" devices="tripinfo_118788_405_0 routing_118788_405_0" vType="pkw" speedFactor="0.96" vaporized=""/>
    <tripinfo id="111571_401_0" depart="25267.00" departLane="-353069169#0_0" departPos="4.40" departSpeed="0.00" departDelay="0.00" arrival="25294.00" arrivalLane="24487264_0" arrivalPos="166.35" arrivalSpeed="15.26" duration="27.00" routeLength="286.19" waitingTime="0.00" waitingCount="0" stopTime="0.00" timeLoss="7.09" rerouteNo="1" devices="tripinfo_111571_401_0 routing_111571_401_0" vType="pkw" speedFactor="1.12" vaporized=""/>
    <tripinfo id="144617_416_0" depart="25256.00" departLane="22917421#3_0" departPos="4.40" departSpeed="0.00" departDelay="0.00" arrival="25298.00" arrivalLane="186623965#17_0" arrivalPos="143.63" arrivalSpeed="13.14" duration="42.00" routeLength="257.42" waitingTime="11.00" waitingCount="1" stopTime="0.00" timeLoss="17.34" rerouteNo="0" devices="tripinfo_144617_416_0 routing_144617_416_0" vType="pkw" speedFactor="0.95" vaporized=""/>
    <tripinfo id="137959_412_0" depart="25209.00" departLane="-186623965#18_0" departPos="4.40" departSpeed="0.00" departDelay="0.00" arrival="25302.00" arrivalLane="-22917421#4_0" arrivalPos="96.26" arrivalSpeed="5.79" duration="93.00" routeLength="263.02" waitingTime="50.00" waitingCount="1" stopTime="0.00" timeLoss="60.43" rerouteNo="0" devices="tripinfo_137959_412_0 routing_137959_412_0" vType="pkw" speedFactor="0.76" vaporized=""/>
    <tripinfo id="162497_421_0" depart="25273.00" departLane="22917421#3_0" departPos="4.40" departSpeed="0.00" departDelay="0.00" arrival="25303.00" arrivalLane="186623965#17_0" arrivalPos="143.63" arrivalSpeed="11.57" duration="30.00" routeLength="257.42" waitingTime="0.00" waitingCount="0" stopTime="0.00" timeLoss="3.92" rerouteNo="0" devices="tripinfo_162497_421_0 routing_162497_421_0" vType="pkw" speedFactor="0.90" vaporized=""/>
    <tripinfo id="121484_406_0" depart="25268.00" departLane="-23283579#1_0" departPos="4.40" departSpeed="0.00" departDelay="0.00" arrival="25308.00" arrivalLane="133081987#3_0" arrivalPos="99.94" arrivalSpeed="14.12" duration="40.00" routeLength="434.85" waitingTime="0.00" waitingCount="0" stopTime="0.00" timeLoss="10.11" rerouteNo="1" devices="tripinfo_121484_406_0 routing_121484_406_0" vType="pkw" speedFactor="1.07" vaporized=""/>
    <tripinfo id="150593_418_0" depart="25297.00" departLane="22959552#0_0" departPos="4.40" departSpeed="0.00" departDelay="0.00" arrival="25311.00" arrivalLane="22959552#0_0" arrivalPos="91.39" arrivalSpeed="7.09" duration="14.00" routeLength="86.99" waitingTime="0.00" waitingCount="0" stopTime="0.00" timeLoss="2.52" rerouteNo="1" devices="tripinfo_150593_418_0 routing_150593_418_0" vType="pkw" speedFactor="0.92" vaporized=""/>
    <tripinfo id="127809_407_0" depart="25258.00" departLane="-23283579#1_0" departPos="4.40" departSpeed="0.00" departDelay="1.00" arrival="25321.00" arrivalLane="23285888#0_0" arrivalPos="109.58" arrivalSpeed="8.14" duration="63.00" routeLength="410.95" waitingTime="2.00" waitingCount="1" stopTime="0.00" timeLoss="21.46" rerouteNo="1" devices="tripinfo_127809_407_0 routing_127809_407_0" vType="pkw" speedFactor="1.08" vaporized=""/>
    <tripinfo id="91556_392_0" depart="25271.00" departLane="-23283579#1_0" departPos="4.40" departSpeed="0.00" departDelay="1.00" arrival="25324.00" arrivalLane="23840972_0" arrivalPos="97.66" arrivalSpeed="8.08" duration="53.00" routeLength="525.30" waitingTime="0.00" waitingCount="0" stopTime="0.00" timeLoss="9.52" rerouteNo="1" devices="tripinfo_91556_392_0 routing_91556_392_0" vType="pkw" speedFactor="1.07" vaporized=""/>
    <tripinfo id="145512_416_0" depart="25308.00" departLane="22917421#3_0" departPos="4.40" departSpeed="0.00" departDelay="0.00" arrival="25335.00" arrivalLane="186623965#17_0" arrivalPos="143.63" arrivalSpeed="13.13" duration="27.00" routeLength="257.42" waitingTime="0.00" waitingCount="0" stopTime="0.00" timeLoss="3.95" rerouteNo="0" devices="tripinfo_145512_416_0 routing_145512_416_0" vType="pkw" speedFactor="1.02" vaporized=""/>
    <tripinfo id="171184_426_0" depart="25326.00" departLane="133081987#0_0" departPos="4.40" departSpeed="0.00" departDelay="0.00" arrival="25343.00" arrivalLane="23283436_0" arrivalPos="65.76" arrivalSpeed="14.76" duration="17.00" routeLength="154.99" waitingTime="0.00" waitingCount="0" stopTime="0.00" timeLoss="5.73" rerouteNo="0" devices="tripinfo_171184_426_0 routing_171184_426_0" vType="pkw" speedFactor="1.07" vaporized=""/>
    <tripinfo id="144017_416_0" depart="25348.00" departLane="-353069169#0_0" departPos="4.40" departSpeed="0.00" departDelay="0.00" arrival="25366.00" arrivalLane="323416262_0" arrivalPos="87.54" arrivalSpeed="12.70" duration="18.00" routeLength="175.35" waitingTime="0.00" waitingCount="0" stopTime="0.00" timeLoss="5.30" rerouteNo="0" devices="tripinfo_144017_416_0 routing_144017_416_0" vType="pkw" speedFactor="1.00" vaporized=""/>
    <tripinfo id="166776_424_0" depart="25209.00" departLane="-28675510#11_0" departPos="4.40" departSpeed="0.00" departDelay="1.00" arrival="25368.00" arrivalLane="-186623965#14_0" arrivalPos="159.69" arrivalSpeed="14.85" duration="159.00" routeLength="1202.17" waitingTime="35.00" waitingCount="2" stopTime="0.00" timeLoss="54.70" rerouteNo="1" devices="tripinfo_166776_424_0 routing_166776_424_0" vType="pkw" speedFactor="1.09" vaporized=""/>
    <tripinfo id="140363_414_0" depart="25313.00" departLane="22917421#3_0" departPos="4.40" departSpeed="0.00" departDelay="0.00" arrival="25371.00" arrivalLane="-186623965#14_1" arrivalPos="159.69" arrivalSpeed="13.98" duration="58.00" routeLength="476.78" waitingTime="7.00" waitingCount="1" stopTime="0.00" timeLoss="19.58" rerouteNo="1" devices="tripinfo_140363_414_0 routing_140363_414_0" vType="pkw" speedFactor="1.03" vaporized=""/>
    <tripinfo id="166783_424_0" depart="25349.00" departLane="22917421#3_0" departPos="4.40" departSpeed="0.00" departDelay="0.00" arrival="25376.00" arrivalLane="186623965#17_0" arrivalPos="143.63" arrivalSpeed="12.82" duration="27.00" routeLength="257.42" waitingTime="0.00" waitingCount="0" stopTime="0.00" timeLoss="3.50" rerouteNo="0" devices="tripinfo_166783_424_0 routing_166783_424_0" vType="pkw" speedFactor="0.99" vaporized=""/>
    <tripinfo id="133416_410_0" depart="25228.00" departLane="186623965#9_0" departPos="4.40" departSpeed="0.00" departDelay="0.00" arrival="25377.00" arrivalLane="42925825#0_0" arrivalPos="254.17" arrivalSpeed="12.01" duration="149.00" routeLength="418.48" waitingTime="106.00" waitingCount="1" stopTime="0.00" timeLoss="114.85" rerouteNo="0" devices="tripinfo_133416_410_0 routing_133416_410_0" vType="pkw" speedFactor="0.89" vaporized=""/>
    <tripinfo id="113370_402_0" depart="25249.00" departLane="186623965#9_0" departPos="4.40" departSpeed="0.00" departDelay="0.00" arrival="25379.00" arrivalLane="42925825#0_0" arrivalPos="254.17" arrivalSpeed="14.60" duration="130.00" routeLength="418.48" waitingTime="88.00" waitingCount="1" stopTime="0.00" timeLoss="103.71" rerouteNo="0" devices="tripinfo_113370_402_0 routing_113370_402_0" vType="pkw" speedFactor="1.17" vaporized=""/>
    <tripinfo id="145282_416_0" depart="25259.00" departLane="186623965#9_0" departPos="4.40" departSpeed="0.00" departDelay="0.00" arrival="25380.00" arrivalLane="42925825#0_0" arrivalPos="254.17" arrivalSpeed="13.84" duration="121.00" routeLength="418.48" waitingTime="79.00" waitingCount="1" stopTime="0.00" timeLoss="92.01" rerouteNo="0" devices="tripinfo_145282_416_0 routing_145282_416_0" vType="pkw" speedFactor="1.04" vaporized=""/>
    <tripinfo id="120970_405_0" depart="25343.00" departLane="-23283579#1_0" departPos="4.40" departSpeed="0.00" departDelay="0.00" arrival="25397.00" arrivalLane="23283470#5_0" arrivalPos="89.27" arrivalSpeed="7.44" duration="54.00" routeLength="393.04" waitingTime="0.00" waitingCount="0" stopTime="0.00" timeLoss="7.91" rerouteNo="1" devices="tripinfo_120970_405_0 routing_120970_405_0" vType="pkw" speedFactor="0.92" vaporized=""/>
    <tripinfo id="174717_427_0" depart="25373.00" departLane="22917421#3_0" departPos="4.40" departSpeed="0.00" departDelay="0.00" arrival="25404.00" arrivalLane="186623965#17_0" arrivalPos="143.63" arrivalSpeed="11.42" duration="31.00" routeLength="257.42" waitingTime="0.00" waitingCount="0" stopTime="0.00" timeLoss="3.97" rerouteNo="0" devices="tripinfo_174717_427_0 routing_174717_427_0" vType="pkw" speedFactor="0.88" vaporized=""/>
    <tripinfo id="142307_415_0" depart="25376.00" departLane="22917421#3_0" departPos="4.40" departSpeed="0.00" departDelay="1.00" arrival="25405.00" arrivalLane="186623965#17_0" arrivalPos="143.63" arrivalSpeed="14.09" duration="29.00" routeLength="257.42" waitingTime="0.00" waitingCount="0" stopTime="0.00" timeLoss="6.59" rerouteNo="0" devices="tripinfo_142307_415_0 routing_142307_415_0" vType="pkw" speedFactor="1.04" vaporized=""/>
    <tripinfo id="157954_421_0" depart="25388.00" departLane="22917421#3_0" departPos="4.40" departSpeed="0.00" departDelay="0.00" arrival="25417.00" arrivalLane="186623965#17_0" arrivalPos="143.63" arrivalSpeed="12.03" duration="29.00" routeLength="257.42" waitingTime="0.00" waitingCount="0" stopTime="0.00" timeLoss="3.90" rerouteNo="0" devices="tripinfo_157954_421_0 routing_157954_421_0" vType="pkw" speedFactor="0.95" vaporized=""/>
    <tripinfo id="179907_430_0" depart="25383.00" departLane="23283470#0_0" departPos="4.40" departSpeed="0.00" departDelay="0.00" arrival="25429.00" arrivalLane="23283579#1_0" arrivalPos="22.22" arrivalSpeed="13.22" duration="46.00" routeLength="367.64" waitingTime="0.00" waitingCount="0" stopTime="0.00" timeLoss="5.06" rerouteNo="1" devices="tripinfo_179907_430_0 routing_179907_430_0" vType="pkw" speedFactor="0.97" vaporized=""/>
    <tripinfo id="83049_390_0" depart="25408.00" departLane="-4936412_0" departPos="4.40" departSpeed="0.00" departDelay="0.00" arrival="25430.00" arrivalLane="8716827#0_0" arrivalPos="109.12" arrivalSpeed="6.50" duration="22.00" routeLength="148.59" waitingTime="0.00" waitingCount="0" stopTime="0.00" timeLoss="4.00" rerouteNo="0" devices="tripinfo_83049_390_0 routing_83049_390_0" vType="pkw" speedFactor="0.92" vaporized=""/>
    <tripinfo id="67978_381_0" depart="25412.00" departLane="-4936412_0" departPos="4.40" departSpeed="0.00" departDelay="0.00" arrival="25433.00" arrivalLane="8716827#0_0" arrivalPos="109.12" arrivalSpeed="7.18" duration="21.00" routeLength="148.59" waitingTime="0.00" waitingCount="0" stopTime="0.00" timeLoss="4.44" rerouteNo="0" devices="tripinfo_67978_381_0 routing_67978_381_0" vType="pkw" speedFactor="1.00" vaporized=""/>
    <tripinfo id="154420_420_0" depart="25411.00" departLane="22917421#3_0" departPos="4.40" departSpeed="0.00" departDelay="0.00" arrival="25439.00" arrivalLane="186623965#17_0" arrivalPos="143.63" arrivalSpeed="13.32" duration="28.00" routeLength="257.42" waitingTime="0.00" waitingCount="0" stopTime="0.00" timeLoss="3.84" rerouteNo="0" devices="tripinfo_154420_420_0 routing_154420_420_0" vType="pkw" speedFactor="0.97" vaporized=""/>
    <tripinfo id="154646_420_0" depart="25419.00" departLane="25166682#0_0" departPos="4.40" departSpeed="0.00" departDelay="0.00" arrival="25446.00" arrivalLane="323450710#0_0" arrivalPos="95.59" arrivalSpeed="13.15" duration="27.00" routeLength="289.69" waitingTime="0.00" waitingCount="0" stopTime="0.00" timeLoss="5.41" rerouteNo="1" devices="tripinfo_154646_420_0 routing_154646_420_0" vType="pkw" speedFactor="0.97" vaporized=""/>
    <tripinfo id="138031_412_0" depart="25371.00" departLane="-23283579#1_0" departPos="4.40" departSpeed="0.00" departDelay="0.00" arrival="25456.00" arrivalLane="-23840935_0" arrivalPos="84.89" arrivalSpeed="9.32" duration="85.00" routeLength="841.83" waitingTime="0.00" waitingCount="0" stopTime="0.00" timeLoss="13.23" rerouteNo="1" devices="tripinfo_138031_412_0 routing_138031_412_0" vType="pkw" speedFactor="1.18" vaporized=""/>
    <tripinfo id="167565_425_0" depart="25382.00" departLane="-25166682#0_0" departPos="4.40" departSpeed="0.00" departDelay="0.00" arrival="25458.00" arrivalLane="23283579#1_0" arrivalPos="22.22" arrivalSpeed="15.13" duration="76.00" routeLength="787.93" waitingTime="0.00" waitingCount="0" stopTime="0.00" timeLoss="10.26" rerouteNo="1" devices="tripinfo_167565_425_0 routing_167565_425_0" vType="pkw" speedFactor="1.15" vaporized=""/>
    <tripinfo id="122677_406_0" depart="25441.00" departLane="-4936412_0" departPos="4.40" departSpeed="0.00" departDelay="0.00" arrival="25461.00" arrivalLane="8716827#0_0" arrivalPos="109.12" arrivalSpeed="8.08" duration="20.00" routeLength="148.59" waitingTime="0.00" waitingCount="0" stopTime="0.00" timeLoss="4.23" rerouteNo="0" devices="tripinfo_122677_406_0 routing_122677_406_0" vType="pkw" speedFactor="1.07" vaporized=""/>
    <tripinfo id="171631_426_0" depart="25415.00" departLane="23283470#0_0" departPos="4.40" departSpeed="0.00" departDelay="0.00" arrival="25464.00" arrivalLane="23283579#1_0" arrivalPos="22.22" arrivalSpeed="13.10" duration="49.00" routeLength="367.64" waitingTime="1.00" waitingCount="1" stopTime="0.00" timeLoss="9.97" rerouteNo="1" devices="tripinfo_171631_426_0 routing_171631_426_0" vType="pkw" speedFactor="1.02" vaporized=""/>
    <tripinfo id="150535_418_0" depart="25444.00" departLane="22917421#3_0" departPos="4.40" departSpeed="0.00" departDelay="0.00" arrival="25472.00" arrivalLane="186623965#17_0" arrivalPos="143.63" arrivalSpeed="13.13" duration="28.00" routeLength="257.42" waitingTime="0.00" waitingCount="0" stopTime="0.00" timeLoss="3.96" rerouteNo="0" devices="tripinfo_150535_418_0 routing_150535_418_0" vType="pkw" speedFactor="0.97" vaporized=""/>
    <tripinfo id="166238_424_0" depart="25449.00" departLane="42925825#0_0" departPos="4.40" departSpeed="0.00" departDelay="0.00" arrival="25473.00" arrivalLane="42925825#0_0" arrivalPos="254.17" arrivalSpeed="11.99" duration="24.00" routeLength="249.77" waitingTime="0.00" waitingCount="0" stopTime="0.00" timeLoss="3.82" rerouteNo="1" devices="tripinfo_166238_424_0 routing_166238_424_0" vType="pkw" speedFactor="0.93" vaporized=""/>
    <tripinfo id="139487_413_0" depart="25456.00" departLane="-4936412_0" departPos="4.40" departSpeed="0.00" departDelay="0.00" arrival="25478.00" arrivalLane="8716827#0_0" arrivalPos="109.12" arrivalSpeed="6.75" duration="22.00" routeLength="148.59" waitingTime="0.00" waitingCount="0" stopTime="0.00" timeLoss="4.29" rerouteNo="0" devices="tripinfo_139487_413_0 routing_139487_413_0" vType="pkw" speedFactor="0.96" vaporized=""/>
    <tripinfo id="148727_417_0" depart="25479.00" departLane="23283579#1_0" departPos="4.40" departSpeed="0.00" departDelay="0.00" arrival="25483.00" arrivalLane="23283579#1_0" arrivalPos="22.22" arrivalSpeed="8.29" duration="4.00" routeLength="17.82" waitingTime="0.00" waitingCount="0" stopTime="0.00" timeLoss="2.51" rerouteNo="1" devices="tripinfo_148727_417_0 routing_148727_417_0" vType="pkw" speedFactor="1.02" vaporized=""/>
    <tripinfo id="76230_386_0" depart="25204.00" departLane="-23283579#1_0" departPos="4.40" departSpeed="0.00" departDelay="0.00" arrival="25486.00" arrivalLane="297047309#0_0" arrivalPos="91.17" arrivalSpeed="12.05" duration="282.00" routeLength="656.20" waitingTime="199.00" waitingCount="1" stopTime="0.00" timeLoss="211.89" rerouteNo="1" devices="tripinfo_76230_386_0 routing_76230_386_0" vType="pkw" speedFactor="0.94" vaporized=""/>
    <tripinfo id="151819_419_0" depart="25464.00" departLane="22917421#3_0" departPos="4.40" departSpeed="0.00" departDelay="0.00" arrival="25494.00" arrivalLane="186623965#17_0" arrivalPos="143.63" arrivalSpeed="12.82" duration="30.00" routeLength="257.42" waitingTime="0.00" waitingCount="0" stopTime="0.00" timeLoss="4.11" rerouteNo="0" devices="tripinfo_151819_419_0 routing_151819_419_0" vType="pkw" speedFactor="0.93" vaporized=""/>
    <tripinfo id="110248_401_0" depart="25206.00" departLane="-23283579#1_0" departPos="4.40" departSpeed="0.00" departDelay="0.00" arrival="25496.00" arrivalLane="297047309#0_0" arrivalPos="91.17" arrivalSpeed="12.58" duration="290.00" routeLength="656.20" waitingTime="203.00" waitingCount="2" stopTime="0.00" timeLoss="218.53" rerouteNo="1" devices="tripinfo_110248_401_0 routing_110248_401_0" vType="pkw" speedFactor="0.92" vaporized=""/>
    <tripinfo id="136088_411_0" depart="25475.00" departLane="-4936412_0" departPos="4.40" departSpeed="0.00" departDelay="0.00" arrival="25496.00" arrivalLane="8716827#0_0" arrivalPos="109.12" arrivalSpeed="7.37" duration="21.00" routeLength="148.59" waitingTime="0.00" waitingCount="0" stopTime="0.00" timeLoss="3.67" rerouteNo="0" devices="tripinfo_136088_411_0 routing_136088_411_0" vType="pkw" speedFactor="0.94" vaporized=""/>
    <tripinfo id="173519_427_0" depart="25477.00" departLane="22917421#3_0" departPos="4.40" departSpeed="0.00" departDelay="0.00" arrival="25504.00" arrivalLane="186623965#17_0" arrivalPos="143.63" arrivalSpeed="13.42" duration="27.00" routeLength="257.42" waitingTime="0.00" waitingCount="0" stopTime="0.00" timeLoss="3.29" rerouteNo="0" devices="tripinfo_173519_427_0 routing_173519_427_0" vType="pkw" speedFactor="1.01" vaporized=""/>
    <tripinfo id="110175_401_0" depart="25490.00" departLane="-4936412_0" departPos="4.40" departSpeed="0.00" departDelay="0.00" arrival="25505.00" arrivalLane="155723703#0_0" arrivalPos="92.60" arrivalSpeed="12.28" duration="15.00" routeLength="132.82" waitingTime="0.00" waitingCount="0" stopTime="0.00" timeLoss="4.66" rerouteNo="0" devices="tripinfo_110175_401_0 routing_110175_401_0" vType="pkw" speedFactor="0.97" vaporized=""/>
    <tripinfo id="115107_403_0" depart="25488.00" departLane="-4936412_0" departPos="4.40" departSpeed="0.00" departDelay="0.00" arrival="25510.00" arrivalLane="8716827#0_0" arrivalPos="109.12" arrivalSpeed="6.59" duration="22.00" routeLength="148.59" waitingTime="0.00" waitingCount="0" stopTime="0.00" timeLoss="4.04" rerouteNo="0" devices="tripinfo_115107_403_0 routing_115107_403_0" vType="pkw" speedFactor="0.90" vaporized=""/>
    <tripinfo id="82749_390_0" depart="25496.00" departLane="-4936412_0" departPos="4.40" departSpeed="0.00" departDelay="0.00" arrival="25511.00" arrivalLane="155723703#0_0" arrivalPos="92.60" arrivalSpeed="14.59" duration="15.00" routeLength="132.82" waitingTime="0.00" waitingCount="0" stopTime="0.00" timeLoss="5.52" rerouteNo="0" devices="tripinfo_82749_390_0 routing_82749_390_0" vType="pkw" speedFactor="1.10" vaporized=""/>
    <tripinfo id="104777_398_0" depart="25500.00" departLane="-4936412_0" departPos="4.40" departSpeed="0.00" departDelay="0.00" arrival="25521.00" arrivalLane="8716827#0_0" arrivalPos="109.12" arrivalSpeed="7.51" duration="21.00" routeLength="148.59" waitingTime="0.00" waitingCount="0" stopTime="0.00" timeLoss="3.81" rerouteNo="0" devices="tripinfo_104777_398_0 routing_104777_398_0" vType="pkw" speedFactor="0.98" vaporized=""/>
    <tripinfo id="131441_410_0" depart="25459.00" departLane="-297047309#0_0" departPos="4.40" departSpeed="0.00" departDelay="0.00" arrival="25529.00" arrivalLane="23283579#1_0" arrivalPos="22.22" arrivalSpeed="13.67" duration="70.00" routeLength="662.40" waitingTime="0.00" waitingCount="0" stopTime="0.00" timeLoss="7.83" rerouteNo="1" devices="tripinfo_131441_410_0 routing_131441_410_0" vType="pkw" speedFactor="1.08" vaporized=""/>
    <tripinfo id="139530_413_0" depart="25383.00" departLane="186623965#9_0" departPos="4.40" departSpeed="0.00" departDelay="0.00" arrival="25535.00" arrivalLane="42925825#0_0" arrivalPos="254.17" arrivalSpeed="13.96" duration="152.00" routeLength="418.48" waitingTime="111.00" waitingCount="1" stopTime="0.00" timeLoss="122.63" rerouteNo="0" devices="tripinfo_139530_413_0 routing_139530_413_0" vType="pkw" speedFactor="1.03" vaporized=""/>
    <tripinfo id="148577_417_0" depart="25457.00" departLane="186623965#9_0" departPos="4.40" departSpeed="0.00" departDelay="0.00" arrival="25539.00" arrivalLane="42925825#0_0" arrivalPos="254.17" arrivalSpeed="12.28" duration="82.00" routeLength="418.48" waitingTime="38.00" waitingCount="1" stopTime="0.00" timeLoss="48.98" rerouteNo="0" devices="tripinfo_148577_417_0 routing_148577_417_0" vType="pkw" speedFactor="0.94" vaporized=""/>
    <tripinfo id="105921_399_0" depart="25468.00" departLane="186623965#9_0" departPos="4.40" departSpeed="0.00" departDelay="0.00" arrival="25540.00" arrivalLane="42925825#0_0" arrivalPos="254.17" arrivalSpeed="14.77" duration="72.00" routeLength="418.48" waitingTime="28.00" waitingCount="1" stopTime="0.00" timeLoss="44.20" rerouteNo="0" devices="tripinfo_105921_399_0 routing_105921_399_0" vType="pkw" speedFactor="1.10" vaporized=""/>
    <tripinfo id="171497_426_0" depart="25456.00" departLane="23647126_0" departPos="4.40" departSpeed="0.00" departDelay="0.00" arrival="25542.00" arrivalLane="23283579#1_0" arrivalPos="22.22" arrivalSpeed="12.14" duration="86.00" routeLength="603.45" waitingTime="0.00" waitingCount="0" stopTime="0.00" timeLoss="9.86" rerouteNo="1" devices="tripinfo_171497_426_0 routing_171497_426_0" vType="pkw" speedFactor="0.88" vaporized=""/>
    <tripinfo id="110653_401_0" depart="25471.00" departLane="186623965#9_0" departPos="4.40" departSpeed="0.00" departDelay="0.00" arrival="25542.00" arrivalLane="42925825#0_0" arrivalPos="254.17" arrivalSpeed="13.49" duration="71.00" routeLength="418.48" waitingTime="27.00" waitingCount="1" stopTime="0.00" timeLoss="41.83" rerouteNo="0" devices="tripinfo_110653_401_0 routing_110653_401_0" vType="pkw" speedFactor="1.06" vaporized=""/>
    <tripinfo id="143994_416_0" depart="25481.00" departLane="186623965#9_0" departPos="4.40" departSpeed="0.00" departDelay="0.00" arrival="25543.00" arrivalLane="42925825#0_0" arrivalPos="254.17" arrivalSpeed="13.34" duration="62.00" routeLength="418.48" waitingTime="19.00" waitingCount="1" stopTime="0.00" timeLoss="33.01" rerouteNo="0" devices="tripinfo_143994_416_0 routing_143994_416_0" vType="pkw" speedFactor="1.04" vaporized=""/>
    <tripinfo id="139269_413_0" depart="25307.00" departLane="-23283579#1_0" departPos="4.40" departSpeed="0.00" departDelay="0.00" arrival="25545.00" arrivalLane="-297047308_0" arrivalPos="28.52" arrivalSpeed="10.55" duration="238.00" routeLength="517.28" waitingTime="120.00" waitingCount="7" stopTime="0.00" timeLoss="168.56" rerouteNo="1" devices="tripinfo_139269_413_0 routing_139269_413_0" vType="pkw" speedFactor="0.81" vaporized=""/>
    <tripinfo id="157758_421_0" depart="25504.00" departLane="186623965#9_0" departPos="4.40" departSpeed="0.00" departDelay="0.00" arrival="25545.00" arrivalLane="42925825#0_0" arrivalPos="254.17" arrivalSpeed="14.19" duration="41.00" routeLength="418.48" waitingTime="0.00" waitingCount="0" stopTime="0.00" timeLoss="13.35" rerouteNo="0" devices="tripinfo_157758_421_0 routing_157758_421_0" vType="pkw" speedFactor="1.11" vaporized=""/>
    <tripinfo id="166158_424_0" depart="25467.00" departLane="-297047309#0_0" departPos="4.40" departSpeed="0.00" departDelay="0.00" arrival="25546.00" arrivalLane="23283579#1_0" arrivalPos="22.22" arrivalSpeed="13.01" duration="79.00" routeLength="662.40" waitingTime="0.00" waitingCount="0" stopTime="0.00" timeLoss="9.14" rerouteNo="1" devices="tripinfo_166158_424_0 routing_166158_424_0" vType="pkw" speedFactor="0.95" vaporized=""/>