<?xml version="1.0" encoding="UTF-8"?>

<!-- generated on 2023-08-31 14:31:00 by Eclipse SUMO libsumo Version 1.18.0
<configuration xmlns:xsi="http://www.w3.org/2001/XMLSchema-instance" xsi:noNamespaceSchemaLocation="http://sumo.dlr.de/xsd/libsumoConfiguration.xsd">

    <input>
        <net-file value="/home/stefan/RESCO/./environments/cologne8/cologne8.net.xml"/>
        <route-files value="/home/stefan/RESCO/./environments/cologne8/cologne8.rou.xml"/>
    </input>

    <output>
        <tripinfo-output value="/home/stefan/results/RAINBOW-tr0-cologne8-0-drq_norm-wait_norm/tripinfo_81.xml"/>
        <tripinfo-output.write-unfinished value="true"/>
    </output>

    <time>
        <begin value="25200"/>
        <end value="28800"/>
    </time>

    <processing>
        <time-to-teleport value="-1"/>
    </processing>

    <report>
        <no-warnings value="True"/>
        <no-step-log value="True"/>
    </report>

    <random_number>
        <random value="true"/>
    </random_number>

</configuration>
-->

<tripinfos xmlns:xsi="http://www.w3.org/2001/XMLSchema-instance" xsi:noNamespaceSchemaLocation="http://sumo.dlr.de/xsd/tripinfo_file.xsd">
    <tripinfo id="142890_415_0" depart="25218.00" departLane="-23283579#1_0" departPos="4.40" departSpeed="0.00" departDelay="0.00" arrival="25225.00" arrivalLane="23283579#1_0" arrivalPos="22.22" arrivalSpeed="12.67" duration="7.00" routeLength="44.72" waitingTime="0.00" waitingCount="0" stopTime="0.00" timeLoss="3.50" rerouteNo="0" devices="tripinfo_142890_415_0 routing_142890_415_0" vType="pkw" speedFactor="0.98" vaporized=""/>
    <tripinfo id="137312_412_0" depart="25200.00" departLane="-23283579#1_0" departPos="4.40" departSpeed="0.00" departDelay="0.00" arrival="25235.00" arrivalLane="23283436_0" arrivalPos="65.76" arrivalSpeed="12.51" duration="35.00" routeLength="404.67" waitingTime="0.00" waitingCount="0" stopTime="0.00" timeLoss="4.01" rerouteNo="1" devices="tripinfo_137312_412_0 routing_137312_412_0" vType="pkw" speedFactor="0.97" vaporized=""/>
    <tripinfo id="155570_420_0" depart="25200.00" departLane="-28675510#11_0" departPos="4.40" departSpeed="0.00" departDelay="0.00" arrival="25243.00" arrivalLane="28675510#7_0" arrivalPos="257.94" arrivalSpeed="13.76" duration="43.00" routeLength="516.12" waitingTime="0.00" waitingCount="0" stopTime="0.00" timeLoss="5.46" rerouteNo="0" devices="tripinfo_155570_420_0 routing_155570_420_0" vType="pkw" speedFactor="1.01" vaporized=""/>
    <tripinfo id="134603_411_0" depart="25206.00" departLane="-28675510#11_0" departPos="4.40" departSpeed="0.00" departDelay="0.00" arrival="25244.00" arrivalLane="28675510#7_0" arrivalPos="257.94" arrivalSpeed="15.33" duration="38.00" routeLength="516.12" waitingTime="0.00" waitingCount="0" stopTime="0.00" timeLoss="5.46" rerouteNo="0" devices="tripinfo_134603_411_0 routing_134603_411_0" vType="pkw" speedFactor="1.15" vaporized=""/>
    <tripinfo id="138070_412_0" depart="25229.00" departLane="22917421#3_0" departPos="4.40" departSpeed="0.00" departDelay="0.00" arrival="25254.00" arrivalLane="186623965#17_0" arrivalPos="143.63" arrivalSpeed="14.79" duration="25.00" routeLength="257.42" waitingTime="0.00" waitingCount="0" stopTime="0.00" timeLoss="3.99" rerouteNo="0" devices="tripinfo_138070_412_0 routing_138070_412_0" vType="pkw" speedFactor="1.15" vaporized=""/>
    <tripinfo id="140143_414_0" depart="25211.00" departLane="-28675510#11_0" departPos="4.40" departSpeed="0.00" departDelay="1.00" arrival="25256.00" arrivalLane="28675510#7_0" arrivalPos="257.94" arrivalSpeed="14.07" duration="45.00" routeLength="516.12" waitingTime="0.00" waitingCount="0" stopTime="0.00" timeLoss="8.14" rerouteNo="0" devices="tripinfo_140143_414_0 routing_140143_414_0" vType="pkw" speedFactor="1.02" vaporized=""/>
    <tripinfo id="153496_420_0" depart="25232.00" departLane="22917421#3_0" departPos="4.40" departSpeed="0.00" departDelay="0.00" arrival="25260.00" arrivalLane="186623965#17_0" arrivalPos="143.63" arrivalSpeed="12.85" duration="28.00" routeLength="257.42" waitingTime="0.00" waitingCount="0" stopTime="0.00" timeLoss="3.61" rerouteNo="0" devices="tripinfo_153496_420_0 routing_153496_420_0" vType="pkw" speedFactor="0.96" vaporized=""/>
    <tripinfo id="155353_420_0" depart="25234.00" departLane="22917421#3_0" departPos="4.40" departSpeed="0.00" departDelay="0.00" arrival="25262.00" arrivalLane="186623965#17_0" arrivalPos="143.63" arrivalSpeed="14.36" duration="28.00" routeLength="257.42" waitingTime="0.00" waitingCount="0" stopTime="0.00" timeLoss="5.35" rerouteNo="0" devices="tripinfo_155353_420_0 routing_155353_420_0" vType="pkw" speedFactor="1.06" vaporized=""/>
    <tripinfo id="118788_405_0" depart="25247.00" departLane="22917421#3_0" departPos="4.40" departSpeed="0.00" departDelay="0.00" arrival="25273.00" arrivalLane="186623965#17_0" arrivalPos="143.63" arrivalSpeed="14.13" duration="26.00" routeLength="257.42" waitingTime="0.00" waitingCount="0" stopTime="0.00" timeLoss="3.91" rerouteNo="0" devices="tripinfo_118788_405_0 routing_118788_405_0" vType="pkw" speedFactor="1.08" vaporized=""/>
    <tripinfo id="161942_421_0" depart="25233.00" departLane="-42925825#2_0" departPos="4.40" departSpeed="0.00" departDelay="0.00" arrival="25274.00" arrivalLane="42925825#0_0" arrivalPos="254.17" arrivalSpeed="13.99" duration="41.00" routeLength="508.64" waitingTime="0.00" waitingCount="0" stopTime="0.00" timeLoss="4.68" rerouteNo="0" devices="tripinfo_161942_421_0 routing_161942_421_0" vType="pkw" speedFactor="1.03" vaporized=""/>
    <tripinfo id="144617_416_0" depart="25256.00" departLane="22917421#3_0" departPos="4.40" departSpeed="0.00" departDelay="0.00" arrival="25281.00" arrivalLane="186623965#17_0" arrivalPos="143.63" arrivalSpeed="14.42" duration="25.00" routeLength="257.42" waitingTime="0.00" waitingCount="0" stopTime="0.00" timeLoss="4.17" rerouteNo="0" devices="tripinfo_144617_416_0 routing_144617_416_0" vType="pkw" speedFactor="1.12" vaporized=""/>
    <tripinfo id="111571_401_0" depart="25267.00" departLane="-353069169#0_0" departPos="4.40" departSpeed="0.00" departDelay="0.00" arrival="25297.00" arrivalLane="24487264_0" arrivalPos="166.35" arrivalSpeed="11.42" duration="30.00" routeLength="286.19" waitingTime="0.00" waitingCount="0" stopTime="0.00" timeLoss="5.73" rerouteNo="1" devices="tripinfo_111571_401_0 routing_111571_401_0" vType="pkw" speedFactor="0.91" vaporized=""/>
    <tripinfo id="162497_421_0" depart="25273.00" departLane="22917421#3_0" departPos="4.40" departSpeed="0.00" departDelay="0.00" arrival="25300.00" arrivalLane="186623965#17_0" arrivalPos="143.63" arrivalSpeed="14.05" duration="27.00" routeLength="257.42" waitingTime="0.00" waitingCount="0" stopTime="0.00" timeLoss="3.91" rerouteNo="0" devices="tripinfo_162497_421_0 routing_162497_421_0" vType="pkw" speedFactor="1.04" vaporized=""/>
    <tripinfo id="121484_406_0" depart="25268.00" departLane="-23283579#1_0" departPos="4.40" departSpeed="0.00" departDelay="0.00" arrival="25303.00" arrivalLane="133081987#3_0" arrivalPos="99.94" arrivalSpeed="16.06" duration="35.00" routeLength="434.85" waitingTime="0.00" waitingCount="0" stopTime="0.00" timeLoss="8.11" rerouteNo="1" devices="tripinfo_121484_406_0 routing_121484_406_0" vType="pkw" speedFactor="1.19" vaporized=""/>
    <tripinfo id="127809_407_0" depart="25258.00" departLane="-23283579#1_0" departPos="4.40" departSpeed="0.00" departDelay="1.00" arrival="25309.00" arrivalLane="23285888#0_0" arrivalPos="109.58" arrivalSpeed="8.01" duration="51.00" routeLength="410.95" waitingTime="0.00" waitingCount="0" stopTime="0.00" timeLoss="7.07" rerouteNo="1" devices="tripinfo_127809_407_0 routing_127809_407_0" vType="pkw" speedFactor="1.03" vaporized=""/>
    <tripinfo id="150593_418_0" depart="25297.00" departLane="22959552#0_0" departPos="4.40" departSpeed="0.00" departDelay="0.00" arrival="25311.00" arrivalLane="22959552#0_0" arrivalPos="91.39" arrivalSpeed="7.44" duration="14.00" routeLength="86.99" waitingTime="0.00" waitingCount="0" stopTime="0.00" timeLoss="2.58" rerouteNo="1" devices="tripinfo_150593_418_0 routing_150593_418_0" vType="pkw" speedFactor="0.96" vaporized=""/>
    <tripinfo id="91556_392_0" depart="25271.00" departLane="-23283579#1_0" departPos="4.40" departSpeed="0.00" departDelay="1.00" arrival="25321.00" arrivalLane="23840972_0" arrivalPos="97.66" arrivalSpeed="7.97" duration="50.00" routeLength="525.30" waitingTime="0.00" waitingCount="0" stopTime="0.00" timeLoss="6.89" rerouteNo="1" devices="tripinfo_91556_392_0 routing_91556_392_0" vType="pkw" speedFactor="1.08" vaporized=""/>
    <tripinfo id="145512_416_0" depart="25308.00" departLane="22917421#3_0" departPos="4.40" departSpeed="0.00" departDelay="0.00" arrival="25335.00" arrivalLane="186623965#17_0" arrivalPos="143.63" arrivalSpeed="13.26" duration="27.00" routeLength="257.42" waitingTime="0.00" waitingCount="0" stopTime="0.00" timeLoss="3.91" rerouteNo="0" devices="tripinfo_145512_416_0 routing_145512_416_0" vType="pkw" speedFactor="1.02" vaporized=""/>
    <tripinfo id="171184_426_0" depart="25326.00" departLane="133081987#0_0" departPos="4.40" departSpeed="0.00" departDelay="0.00" arrival="25343.00" arrivalLane="23283436_0" arrivalPos="65.76" arrivalSpeed="13.53" duration="17.00" routeLength="154.99" waitingTime="0.00" waitingCount="0" stopTime="0.00" timeLoss="5.52" rerouteNo="0" devices="tripinfo_171184_426_0 routing_171184_426_0" vType="pkw" speedFactor="1.00" vaporized=""/>
    <tripinfo id="158885_421_0" depart="25220.00" departLane="22917421#3_0" departPos="4.40" departSpeed="0.00" departDelay="0.00" arrival="25357.00" arrivalLane="28675510#7_0" arrivalPos="257.94" arrivalSpeed="10.48" duration="137.00" routeLength="937.03" waitingTime="0.00" waitingCount="0" stopTime="0.00" timeLoss="16.62" rerouteNo="1" devices="tripinfo_158885_421_0 routing_158885_421_0" vType="pkw" speedFactor="0.82" vaporized=""/>
    <tripinfo id="144017_416_0" depart="25348.00" departLane="-353069169#0_0" departPos="4.40" departSpeed="0.00" departDelay="0.00" arrival="25367.00" arrivalLane="323416262_0" arrivalPos="87.54" arrivalSpeed="12.50" duration="19.00" routeLength="175.35" waitingTime="0.00" waitingCount="0" stopTime="0.00" timeLoss="5.46" rerouteNo="0" devices="tripinfo_144017_416_0 routing_144017_416_0" vType="pkw" speedFactor="0.98" vaporized=""/>
    <tripinfo id="166776_424_0" depart="25208.00" departLane="-28675510#11_0" departPos="4.40" departSpeed="0.00" departDelay="0.00" arrival="25368.00" arrivalLane="-186623965#14_0" arrivalPos="159.69" arrivalSpeed="14.61" duration="160.00" routeLength="1202.17" waitingTime="35.00" waitingCount="1" stopTime="0.00" timeLoss="57.96" rerouteNo="1" devices="tripinfo_166776_424_0 routing_166776_424_0" vType="pkw" speedFactor="1.11" vaporized=""/>
    <tripinfo id="114597_403_0" depart="25201.00" departLane="22917421#3_0" departPos="4.40" departSpeed="0.00" departDelay="0.00" arrival="25370.00" arrivalLane="-186623965#14_0" arrivalPos="159.69" arrivalSpeed="11.85" duration="169.00" routeLength="476.78" waitingTime="117.00" waitingCount="1" stopTime="0.00" timeLoss="126.33" rerouteNo="1" devices="tripinfo_114597_403_0 routing_114597_403_0" vType="pkw" speedFactor="0.93" vaporized=""/>
    <tripinfo id="140363_414_0" depart="25314.00" departLane="22917421#3_0" departPos="4.40" departSpeed="0.00" departDelay="1.00" arrival="25372.00" arrivalLane="-186623965#14_1" arrivalPos="159.69" arrivalSpeed="12.48" duration="58.00" routeLength="476.78" waitingTime="3.00" waitingCount="1" stopTime="0.00" timeLoss="14.65" rerouteNo="1" devices="tripinfo_140363_414_0 routing_140363_414_0" vType="pkw" speedFactor="0.91" vaporized=""/>
    <tripinfo id="119181_405_0" depart="25226.00" departLane="186623965#9_0" departPos="4.40" departSpeed="0.00" departDelay="0.00" arrival="25376.00" arrivalLane="42925825#0_0" arrivalPos="254.17" arrivalSpeed="14.14" duration="150.00" routeLength="418.48" waitingTime="109.00" waitingCount="1" stopTime="0.00" timeLoss="122.35" rerouteNo="0" devices="tripinfo_119181_405_0 routing_119181_405_0" vType="pkw" speedFactor="1.10" vaporized=""/>
    <tripinfo id="166783_424_0" depart="25349.00" departLane="22917421#3_0" departPos="4.40" departSpeed="0.00" departDelay="0.00" arrival="25380.00" arrivalLane="186623965#17_0" arrivalPos="143.63" arrivalSpeed="12.20" duration="31.00" routeLength="257.42" waitingTime="0.00" waitingCount="0" stopTime="0.00" timeLoss="3.72" rerouteNo="0" devices="tripinfo_166783_424_0 routing_166783_424_0" vType="pkw" speedFactor="0.88" vaporized=""/>
    <tripinfo id="133416_410_0" depart="25229.00" departLane="186623965#9_0" departPos="4.40" departSpeed="0.00" departDelay="1.00" arrival="25381.00" arrivalLane="42925825#0_0" arrivalPos="254.17" arrivalSpeed="12.37" duration="152.00" routeLength="418.48" waitingTime="108.00" waitingCount="1" stopTime="0.00" timeLoss="118.49" rerouteNo="0" devices="tripinfo_133416_410_0 routing_133416_410_0" vType="pkw" speedFactor="0.91" vaporized=""/>
    <tripinfo id="113370_402_0" depart="25249.00" departLane="186623965#9_0" departPos="4.40" departSpeed="0.00" departDelay="0.00" arrival="25388.00" arrivalLane="42925825#0_0" arrivalPos="254.17" arrivalSpeed="9.25" duration="139.00" routeLength="418.48" waitingTime="87.00" waitingCount="1" stopTime="0.00" timeLoss="98.09" rerouteNo="0" devices="tripinfo_113370_402_0 routing_113370_402_0" vType="pkw" speedFactor="0.74" vaporized=""/>
    <tripinfo id="145282_416_0" depart="25259.00" departLane="186623965#9_0" departPos="4.40" departSpeed="0.00" departDelay="0.00" arrival="25390.00" arrivalLane="42925825#0_0" arrivalPos="254.17" arrivalSpeed="12.52" duration="131.00" routeLength="418.48" waitingTime="81.00" waitingCount="1" stopTime="0.00" timeLoss="100.63" rerouteNo="0" devices="tripinfo_145282_416_0 routing_145282_416_0" vType="pkw" speedFactor="1.02" vaporized=""/>
    <tripinfo id="120970_405_0" depart="25343.00" departLane="-23283579#1_0" departPos="4.40" departSpeed="0.00" departDelay="0.00" arrival="25401.00" arrivalLane="23283470#5_0" arrivalPos="89.27" arrivalSpeed="6.50" duration="58.00" routeLength="393.04" waitingTime="0.00" waitingCount="0" stopTime="0.00" timeLoss="7.75" rerouteNo="1" devices="tripinfo_120970_405_0 routing_120970_405_0" vType="pkw" speedFactor="0.85" vaporized=""/>
    <tripinfo id="174717_427_0" depart="25373.00" departLane="22917421#3_0" departPos="4.40" departSpeed="0.00" departDelay="0.00" arrival="25402.00" arrivalLane="186623965#17_0" arrivalPos="143.63" arrivalSpeed="12.66" duration="29.00" routeLength="257.42" waitingTime="0.00" waitingCount="0" stopTime="0.00" timeLoss="3.79" rerouteNo="0" devices="tripinfo_174717_427_0 routing_174717_427_0" vType="pkw" speedFactor="0.93" vaporized=""/>
    <tripinfo id="142307_415_0" depart="25375.00" departLane="22917421#3_0" departPos="4.40" departSpeed="0.00" departDelay="0.00" arrival="25405.00" arrivalLane="186623965#17_0" arrivalPos="143.63" arrivalSpeed="11.84" duration="30.00" routeLength="257.42" waitingTime="0.00" waitingCount="0" stopTime="0.00" timeLoss="4.91" rerouteNo="0" devices="tripinfo_142307_415_0 routing_142307_415_0" vType="pkw" speedFactor="0.92" vaporized=""/>
    <tripinfo id="157954_421_0" depart="25388.00" departLane="22917421#3_0" departPos="4.40" departSpeed="0.00" departDelay="0.00" arrival="25415.00" arrivalLane="186623965#17_0" arrivalPos="143.63" arrivalSpeed="12.85" duration="27.00" routeLength="257.42" waitingTime="0.00" waitingCount="0" stopTime="0.00" timeLoss="3.80" rerouteNo="0" devices="tripinfo_157954_421_0 routing_157954_421_0" vType="pkw" speedFactor="1.01" vaporized=""/>
    <tripinfo id="139530_413_0" depart="25383.00" departLane="186623965#9_0" departPos="4.40" departSpeed="0.00" departDelay="0.00" arrival="25417.00" arrivalLane="42925825#0_0" arrivalPos="254.17" arrivalSpeed="13.73" duration="34.00" routeLength="418.48" waitingTime="0.00" waitingCount="0" stopTime="0.00" timeLoss="5.07" rerouteNo="0" devices="tripinfo_139530_413_0 routing_139530_413_0" vType="pkw" speedFactor="1.05" vaporized=""/>
    <tripinfo id="179907_430_0" depart="25383.00" departLane="23283470#0_0" departPos="4.40" departSpeed="0.00" departDelay="0.00" arrival="25425.00" arrivalLane="23283579#1_0" arrivalPos="22.22" arrivalSpeed="15.11" duration="42.00" routeLength="367.64" waitingTime="0.00" waitingCount="0" stopTime="0.00" timeLoss="6.63" rerouteNo="1" devices="tripinfo_179907_430_0 routing_179907_430_0" vType="pkw" speedFactor="1.12" vaporized=""/>
    <tripinfo id="83049_390_0" depart="25408.00" departLane="-4936412_0" departPos="4.40" departSpeed="0.00" departDelay="0.00" arrival="25439.00" arrivalLane="8716827#0_0" arrivalPos="109.12" arrivalSpeed="8.18" duration="31.00" routeLength="148.59" waitingTime="7.00" waitingCount="1" stopTime="0.00" timeLoss="14.18" rerouteNo="0" devices="tripinfo_83049_390_0 routing_83049_390_0" vType="pkw" speedFactor="0.98" vaporized=""/>
    <tripinfo id="154420_420_0" depart="25411.00" departLane="22917421#3_0" departPos="4.40" departSpeed="0.00" departDelay="0.00" arrival="25439.00" arrivalLane="186623965#17_0" arrivalPos="143.63" arrivalSpeed="12.25" duration="28.00" routeLength="257.42" waitingTime="0.00" waitingCount="0" stopTime="0.00" timeLoss="3.93" rerouteNo="0" devices="tripinfo_154420_420_0 routing_154420_420_0" vType="pkw" speedFactor="0.97" vaporized=""/>
    <tripinfo id="154646_420_0" depart="25419.00" departLane="25166682#0_0" departPos="4.40" departSpeed="0.00" departDelay="0.00" arrival="25449.00" arrivalLane="323450710#0_0" arrivalPos="95.59" arrivalSpeed="10.97" duration="30.00" routeLength="289.69" waitingTime="0.00" waitingCount="0" stopTime="0.00" timeLoss="4.97" rerouteNo="1" devices="tripinfo_154646_420_0 routing_154646_420_0" vType="pkw" speedFactor="0.85" vaporized=""/>
    <tripinfo id="67978_381_0" depart="25412.00" departLane="-4936412_0" departPos="4.40" departSpeed="0.00" departDelay="0.00" arrival="25451.00" arrivalLane="8716827#0_0" arrivalPos="109.12" arrivalSpeed="7.48" duration="39.00" routeLength="148.59" waitingTime="9.00" waitingCount="2" stopTime="0.00" timeLoss="20.09" rerouteNo="0" devices="tripinfo_67978_381_0 routing_67978_381_0" vType="pkw" speedFactor="0.90" vaporized=""/>
    <tripinfo id="149422_417_0" depart="25311.00" departLane="22917421#3_0" departPos="4.40" departSpeed="0.00" departDelay="1.00" arrival="25460.00" arrivalLane="-23840935_0" arrivalPos="84.89" arrivalSpeed="9.26" duration="149.00" routeLength="1270.70" waitingTime="0.00" waitingCount="0" stopTime="0.00" timeLoss="18.01" rerouteNo="1" devices="tripinfo_149422_417_0 routing_149422_417_0" vType="pkw" speedFactor="1.13" vaporized=""/>
    <tripinfo id="138031_412_0" depart="25371.00" departLane="-23283579#1_0" departPos="4.40" departSpeed="0.00" departDelay="0.00" arrival="25465.00" arrivalLane="-23840935_0" arrivalPos="84.89" arrivalSpeed="8.51" duration="94.00" routeLength="841.83" waitingTime="0.00" waitingCount="0" stopTime="0.00" timeLoss="12.91" rerouteNo="1" devices="tripinfo_138031_412_0 routing_138031_412_0" vType="pkw" speedFactor="1.04" vaporized=""/>
    <tripinfo id="150411_418_0" depart="25329.00" departLane="22917421#3_0" departPos="4.40" departSpeed="0.00" departDelay="0.00" arrival="25467.00" arrivalLane="23840972_0" arrivalPos="97.66" arrivalSpeed="7.28" duration="138.00" routeLength="954.69" waitingTime="6.00" waitingCount="1" stopTime="0.00" timeLoss="22.37" rerouteNo="1" devices="tripinfo_150411_418_0 routing_150411_418_0" vType="pkw" speedFactor="0.95" vaporized=""/>
    <tripinfo id="122677_406_0" depart="25441.00" departLane="-4936412_0" departPos="4.40" departSpeed="0.00" departDelay="0.00" arrival="25467.00" arrivalLane="8716827#0_0" arrivalPos="109.12" arrivalSpeed="9.60" duration="26.00" routeLength="148.59" waitingTime="2.00" waitingCount="1" stopTime="0.00" timeLoss="11.62" rerouteNo="0" devices="tripinfo_122677_406_0 routing_122677_406_0" vType="pkw" speedFactor="1.17" vaporized=""/>
    <tripinfo id="166238_424_0" depart="25449.00" departLane="42925825#0_0" departPos="4.40" departSpeed="0.00" departDelay="0.00" arrival="25471.00" arrivalLane="42925825#0_0" arrivalPos="254.17" arrivalSpeed="13.57" duration="22.00" routeLength="249.77" waitingTime="0.00" waitingCount="0" stopTime="0.00" timeLoss="3.66" rerouteNo="1" devices="tripinfo_166238_424_0 routing_166238_424_0" vType="pkw" speedFactor="0.98" vaporized=""/>
    <tripinfo id="150535_418_0" depart="25444.00" departLane="22917421#3_0" departPos="4.40" departSpeed="0.00" departDelay="0.00" arrival="25473.00" arrivalLane="186623965#17_0" arrivalPos="143.63" arrivalSpeed="13.33" duration="29.00" routeLength="257.42" waitingTime="0.00" waitingCount="0" stopTime="0.00" timeLoss="3.92" rerouteNo="0" devices="tripinfo_150535_418_0 routing_150535_418_0" vType="pkw" speedFactor="0.96" vaporized=""/>
    <tripinfo id="171631_426_0" depart="25415.00" departLane="23283470#0_0" departPos="4.40" departSpeed="0.00" departDelay="0.00" arrival="25475.00" arrivalLane="23283579#1_0" arrivalPos="22.22" arrivalSpeed="10.88" duration="60.00" routeLength="367.64" waitingTime="2.00" waitingCount="1" stopTime="0.00" timeLoss="13.88" rerouteNo="1" devices="tripinfo_171631_426_0 routing_171631_426_0" vType="pkw" speedFactor="0.86" vaporized=""/>
    <tripinfo id="139487_413_0" depart="25456.00" departLane="-4936412_0" departPos="4.40" departSpeed="0.00" departDelay="0.00" arrival="25476.00" arrivalLane="8716827#0_0" arrivalPos="109.12" arrivalSpeed="8.74" duration="20.00" routeLength="148.59" waitingTime="0.00" waitingCount="0" stopTime="0.00" timeLoss="4.46" rerouteNo="0" devices="tripinfo_139487_413_0 routing_139487_413_0" vType="pkw" speedFactor="1.07" vaporized=""/>
    <tripinfo id="167565_425_0" depart="25382.00" departLane="-25166682#0_0" departPos="4.40" departSpeed="0.00" departDelay="0.00" arrival="25478.00" arrivalLane="23283579#1_0" arrivalPos="22.22" arrivalSpeed="12.43" duration="96.00" routeLength="787.93" waitingTime="1.00" waitingCount="1" stopTime="0.00" timeLoss="16.59" rerouteNo="1" devices="tripinfo_167565_425_0 routing_167565_425_0" vType="pkw" speedFactor="0.94" vaporized=""/>
    <tripinfo id="148727_417_0" depart="25479.00" departLane="23283579#1_0" departPos="4.40" departSpeed="0.00" departDelay="0.00" arrival="25483.00" arrivalLane="23283579#1_0" arrivalPos="22.22" arrivalSpeed="7.38" duration="4.00" routeLength="17.82" waitingTime="0.00" waitingCount="0" stopTime="0.00" timeLoss="2.62" rerouteNo="1" devices="tripinfo_148727_417_0 routing_148727_417_0" vType="pkw" speedFactor="1.04" vaporized=""/>
    <tripinfo id="148577_417_0" depart="25457.00" departLane="186623965#9_0" departPos="4.40" departSpeed="0.00" departDelay="0.00" arrival="25491.00" arrivalLane="42925825#0_0" arrivalPos="254.17" arrivalSpeed="14.21" duration="34.00" routeLength="418.48" waitingTime="0.00" waitingCount="0" stopTime="0.00" timeLoss="4.37" rerouteNo="0" devices="tripinfo_148577_417_0 routing_148577_417_0" vType="pkw" speedFactor="1.02" vaporized=""/>
    <tripinfo id="151819_419_0" depart="25464.00" departLane="22917421#3_0" departPos="4.40" departSpeed="0.00" departDelay="0.00" arrival="25492.00" arrivalLane="186623965#17_0" arrivalPos="143.63" arrivalSpeed="12.78" duration="28.00" routeLength="257.42" waitingTime="0.00" waitingCount="0" stopTime="0.00" timeLoss="2.91" rerouteNo="0" devices="tripinfo_151819_419_0 routing_151819_419_0" vType="pkw" speedFactor="0.94" vaporized=""/>
    <tripinfo id="156503_420_0" depart="25472.00" departLane="297047308_0" departPos="4.40" departSpeed="0.00" departDelay="0.00" arrival="25494.00" arrivalLane="297047309#0_0" arrivalPos="91.17" arrivalSpeed="11.33" duration="22.00" routeLength="211.14" waitingTime="0.00" waitingCount="0" stopTime="0.00" timeLoss="3.71" rerouteNo="1" devices="tripinfo_156503_420_0 routing_156503_420_0" vType="pkw" speedFactor="0.87" vaporized=""/>
    <tripinfo id="136088_411_0" depart="25475.00" departLane="-4936412_0" departPos="4.40" departSpeed="0.00" departDelay="0.00" arrival="25497.00" arrivalLane="8716827#0_0" arrivalPos="109.12" arrivalSpeed="8.13" duration="22.00" routeLength="148.59" waitingTime="0.00" waitingCount="0" stopTime="0.00" timeLoss="6.24" rerouteNo="0" devices="tripinfo_136088_411_0 routing_136088_411_0" vType="pkw" speedFactor="1.07" vaporized=""/>
    <tripinfo id="173519_427_0" depart="25477.00" departLane="22917421#3_0" departPos="4.40" departSpeed="0.00" departDelay="0.00" arrival="25502.00" arrivalLane="186623965#17_0" arrivalPos="143.63" arrivalSpeed="14.83" duration="25.00" routeLength="257.42" waitingTime="0.00" waitingCount="0" stopTime="0.00" timeLoss="4.09" rerouteNo="0" devices="tripinfo_173519_427_0 routing_173519_427_0" vType="pkw" speedFactor="1.11" vaporized=""/>
    <tripinfo id="105921_399_0" depart="25468.00" departLane="186623965#9_0" departPos="4.40" departSpeed="0.00" departDelay="0.00" arrival="25507.00" arrivalLane="42925825#0_0" arrivalPos="254.17" arrivalSpeed="11.97" duration="39.00" routeLength="418.48" waitingTime="0.00" waitingCount="0" stopTime="0.00" timeLoss="4.28" rerouteNo="0" devices="tripinfo_105921_399_0 routing_105921_399_0" vType="pkw" speedFactor="0.87" vaporized=""/>
    <tripinfo id="110653_401_0" depart="25471.00" departLane="186623965#9_0" departPos="4.40" departSpeed="0.00" departDelay="0.00" arrival="25509.00" arrivalLane="42925825#0_0" arrivalPos="254.17" arrivalSpeed="13.50" duration="38.00" routeLength="418.48" waitingTime="0.00" waitingCount="0" stopTime="0.00" timeLoss="6.73" rerouteNo="0" devices="tripinfo_110653_401_0 routing_110653_401_0" vType="pkw" speedFactor="0.98" vaporized=""/>
    <tripinfo id="110175_401_0" depart="25491.00" departLane="-4936412_0" departPos="4.40" departSpeed="0.00" departDelay="1.00" arrival="25514.00" arrivalLane="155723703#0_0" arrivalPos="92.60" arrivalSpeed="13.24" duration="23.00" routeLength="132.82" waitingTime="3.00" waitingCount="1" stopTime="0.00" timeLoss="13.55" rerouteNo="0" devices="tripinfo_110175_401_0 routing_110175_401_0" vType="pkw" speedFactor="1.03" vaporized=""/>
    <tripinfo id="143994_416_0" depart="25481.00" departLane="186623965#9_0" departPos="4.40" departSpeed="0.00" departDelay="0.00" arrival="25515.00" arrivalLane="42925825#0_0" arrivalPos="254.17" arrivalSpeed="13.22" duration="34.00" routeLength="418.48" waitingTime="0.00" waitingCount="0" stopTime="0.00" timeLoss="4.71" rerouteNo="0" devices="tripinfo_143994_416_0 routing_143994_416_0" vType="pkw" speedFactor="1.04" vaporized=""/>
    <tripinfo id="82749_390_0" depart="25496.00" departLane="-4936412_0" departPos="4.40" departSpeed="0.00" departDelay="0.00" arrival="25516.00" arrivalLane="155723703#0_0" arrivalPos="92.60" arrivalSpeed="14.09" duration="20.00" routeLength="132.82" waitingTime="1.00" waitingCount="1" stopTime="0.00" timeLoss="10.08" rerouteNo="0" devices="tripinfo_82749_390_0 routing_82749_390_0" vType="pkw" speedFactor="1.02" vaporized=""/>
    <tripinfo id="115107_403_0" depart="25488.00" departLane="-4936412_0" departPos="4.40" departSpeed="0.00" departDelay="0.00" arrival="25521.00" arrivalLane="8716827#0_0" arrivalPos="109.12" arrivalSpeed="6.44" duration="33.00" routeLength="148.59" waitingTime="5.00" waitingCount="1" stopTime="0.00" timeLoss="14.08" rerouteNo="0" devices="tripinfo_115107_403_0 routing_115107_403_0" vType="pkw" speedFactor="0.89" vaporized=""/>
    <tripinfo id="171497_426_0" depart="25456.00" departLane="23647126_0" departPos="4.40" departSpeed="0.00" departDelay="0.00" arrival="25525.00" arrivalLane="23283579#1_0" arrivalPos="22.22" arrivalSpeed="15.06" duration="69.00" routeLength="603.45" waitingTime="0.00" waitingCount="0" stopTime="0.00" timeLoss="7.85" rerouteNo="1" devices="tripinfo_171497_426_0 routing_171497_426_0" vType="pkw" speedFactor="1.10" vaporized=""/>
    <tripinfo id="104777_398_0" depart="25500.00" departLane="-4936412_0" departPos="4.40" departSpeed="0.00" departDelay="0.00" arrival="25528.00" arrivalLane="8716827#0_0" arrivalPos="109.12" arrivalSpeed="8.18" duration="28.00" routeLength="148.59" waitingTime="0.00" waitingCount="0" stopTime="0.00" timeLoss="11.98" rerouteNo="0" devices="tripinfo_104777_398_0 routing_104777_398_0" vType="pkw" speedFactor="1.03" vaporized=""/>
    <tripinfo id="131441_410_0" depart="25459.00" departLane="-297047309#0_0" departPos="4.40" departSpeed="0.00" departDelay="0.00" arrival="25541.00" arrivalLane="23283579#1_0" arrivalPos="22.22" arrivalSpeed="12.57" duration="82.00" routeLength="662.40" waitingTime="0.00" waitingCount="0" stopTime="0.00" timeLoss="13.03" rerouteNo="1" devices="tripinfo_131441_410_0 routing_131441_410_0" vType="pkw" speedFactor="0.96" vaporized=""/>
    <tripinfo id="166158_424_0" depart="25467.00" departLane="-297047309#0_0" departPos="4.40" departSpeed="0.00" departDelay="0.00" arrival="25543.00" arrivalLane="23283579#1_0" arrivalPos="22.22" arrivalSpeed="13.48" duration="76.00" routeLength="662.40" waitingTime="0.00" waitingCount="0" stopTime="0.00" timeLoss="9.97" rerouteNo="1" devices="tripinfo_166158_424_0 routing_166158_424_0" vType="pkw" speedFactor="1.00" vaporized=""/>
    <tripinfo id="157758_421_0" depart="25504.00" departLane="186623965#9_0" departPos="4.40" departSpeed="0.00" departDelay="0.00" arrival="25543.00" arrivalLane="42925825#0_0" arrivalPos="254.17" arrivalSpeed="12.51" duration="39.00" routeLength="418.48" waitingTime="0.00" waitingCount="0" stopTime="0.00" timeLoss="4.76" rerouteNo="0" devices="tripinfo_157758_421_0 routing_157758_421_0" vType="pkw" speedFactor="0.90" vaporized=""/>