<?xml version="1.0" encoding="UTF-8"?>

<!-- generated on 2023-08-31 14:25:15 by Eclipse SUMO libsumo Version 1.18.0
<configuration xmlns:xsi="http://www.w3.org/2001/XMLSchema-instance" xsi:noNamespaceSchemaLocation="http://sumo.dlr.de/xsd/libsumoConfiguration.xsd">

    <input>
        <net-file value="/home/stefan/RESCO/./environments/cologne8/cologne8.net.xml"/>
        <route-files value="/home/stefan/RESCO/./environments/cologne8/cologne8.rou.xml"/>
    </input>

    <output>
        <tripinfo-output value="/home/stefan/results/RAINBOW-tr0-cologne8-0-drq_norm-wait_norm/tripinfo_68.xml"/>
        <tripinfo-output.write-unfinished value="true"/>
    </output>

    <time>
        <begin value="25200"/>
        <end value="28800"/>
    </time>

    <processing>
        <time-to-teleport value="-1"/>
    </processing>

    <report>
        <no-warnings value="True"/>
        <no-step-log value="True"/>
    </report>

    <random_number>
        <random value="true"/>
    </random_number>

</configuration>
-->

<tripinfos xmlns:xsi="http://www.w3.org/2001/XMLSchema-instance" xsi:noNamespaceSchemaLocation="http://sumo.dlr.de/xsd/tripinfo_file.xsd">
    <tripinfo id="142890_415_0" depart="25218.00" departLane="-23283579#1_0" departPos="4.40" departSpeed="0.00" departDelay="0.00" arrival="25225.00" arrivalLane="23283579#1_0" arrivalPos="22.22" arrivalSpeed="11.35" duration="7.00" routeLength="44.72" waitingTime="0.00" waitingCount="0" stopTime="0.00" timeLoss="3.58" rerouteNo="0" devices="tripinfo_142890_415_0 routing_142890_415_0" vType="pkw" speedFactor="0.97" vaporized=""/>
    <tripinfo id="137312_412_0" depart="25200.00" departLane="-23283579#1_0" departPos="4.40" departSpeed="0.00" departDelay="0.00" arrival="25233.00" arrivalLane="23283436_0" arrivalPos="65.76" arrivalSpeed="13.96" duration="33.00" routeLength="404.67" waitingTime="0.00" waitingCount="0" stopTime="0.00" timeLoss="4.75" rerouteNo="1" devices="tripinfo_137312_412_0 routing_137312_412_0" vType="pkw" speedFactor="1.07" vaporized=""/>
    <tripinfo id="155570_420_0" depart="25200.00" departLane="-28675510#11_0" departPos="4.40" departSpeed="0.00" departDelay="0.00" arrival="25239.00" arrivalLane="28675510#7_0" arrivalPos="257.94" arrivalSpeed="16.08" duration="39.00" routeLength="516.12" waitingTime="0.00" waitingCount="0" stopTime="0.00" timeLoss="8.55" rerouteNo="0" devices="tripinfo_155570_420_0 routing_155570_420_0" vType="pkw" speedFactor="1.22" vaporized=""/>
    <tripinfo id="137959_412_0" depart="25209.00" departLane="-186623965#18_0" departPos="4.40" departSpeed="0.00" departDelay="0.00" arrival="25239.00" arrivalLane="-22917421#4_0" arrivalPos="96.26" arrivalSpeed="7.30" duration="30.00" routeLength="263.02" waitingTime="0.00" waitingCount="0" stopTime="0.00" timeLoss="5.18" rerouteNo="0" devices="tripinfo_137959_412_0 routing_137959_412_0" vType="pkw" speedFactor="0.99" vaporized=""/>
    <tripinfo id="114597_403_0" depart="25201.00" departLane="22917421#3_0" departPos="4.40" departSpeed="0.00" departDelay="0.00" arrival="25247.00" arrivalLane="-186623965#14_0" arrivalPos="159.69" arrivalSpeed="12.92" duration="46.00" routeLength="476.78" waitingTime="0.00" waitingCount="0" stopTime="0.00" timeLoss="4.97" rerouteNo="1" devices="tripinfo_114597_403_0 routing_114597_403_0" vType="pkw" speedFactor="0.95" vaporized=""/>
    <tripinfo id="134603_411_0" depart="25206.00" departLane="-28675510#11_0" departPos="4.40" departSpeed="0.00" departDelay="0.00" arrival="25255.00" arrivalLane="28675510#7_0" arrivalPos="257.94" arrivalSpeed="12.82" duration="49.00" routeLength="516.12" waitingTime="1.00" waitingCount="1" stopTime="0.00" timeLoss="10.40" rerouteNo="0" devices="tripinfo_134603_411_0 routing_134603_411_0" vType="pkw" speedFactor="0.97" vaporized=""/>
    <tripinfo id="138070_412_0" depart="25229.00" departLane="22917421#3_0" departPos="4.40" departSpeed="0.00" departDelay="0.00" arrival="25255.00" arrivalLane="186623965#17_0" arrivalPos="143.63" arrivalSpeed="14.23" duration="26.00" routeLength="257.42" waitingTime="0.00" waitingCount="0" stopTime="0.00" timeLoss="3.56" rerouteNo="0" devices="tripinfo_138070_412_0 routing_138070_412_0" vType="pkw" speedFactor="1.04" vaporized=""/>
    <tripinfo id="153496_420_0" depart="25232.00" departLane="22917421#3_0" departPos="4.40" departSpeed="0.00" departDelay="0.00" arrival="25257.00" arrivalLane="186623965#17_0" arrivalPos="143.63" arrivalSpeed="16.37" duration="25.00" routeLength="257.42" waitingTime="0.00" waitingCount="0" stopTime="0.00" timeLoss="5.30" rerouteNo="0" devices="tripinfo_153496_420_0 routing_153496_420_0" vType="pkw" speedFactor="1.20" vaporized=""/>
    <tripinfo id="140143_414_0" depart="25211.00" departLane="-28675510#11_0" departPos="4.40" departSpeed="0.00" departDelay="1.00" arrival="25258.00" arrivalLane="28675510#7_0" arrivalPos="257.94" arrivalSpeed="15.44" duration="47.00" routeLength="516.12" waitingTime="0.00" waitingCount="0" stopTime="0.00" timeLoss="13.61" rerouteNo="0" devices="tripinfo_140143_414_0 routing_140143_414_0" vType="pkw" speedFactor="1.12" vaporized=""/>
    <tripinfo id="155353_420_0" depart="25234.00" departLane="22917421#3_0" departPos="4.40" departSpeed="0.00" departDelay="0.00" arrival="25263.00" arrivalLane="186623965#17_0" arrivalPos="143.63" arrivalSpeed="12.70" duration="29.00" routeLength="257.42" waitingTime="0.00" waitingCount="0" stopTime="0.00" timeLoss="4.39" rerouteNo="0" devices="tripinfo_155353_420_0 routing_155353_420_0" vType="pkw" speedFactor="0.97" vaporized=""/>
    <tripinfo id="119181_405_0" depart="25226.00" departLane="186623965#9_0" departPos="4.40" departSpeed="0.00" departDelay="0.00" arrival="25265.00" arrivalLane="42925825#0_0" arrivalPos="254.17" arrivalSpeed="12.05" duration="39.00" routeLength="418.48" waitingTime="0.00" waitingCount="0" stopTime="0.00" timeLoss="4.76" rerouteNo="0" devices="tripinfo_119181_405_0 routing_119181_405_0" vType="pkw" speedFactor="0.90" vaporized=""/>
    <tripinfo id="133416_410_0" depart="25229.00" departLane="186623965#9_0" departPos="4.40" departSpeed="0.00" departDelay="1.00" arrival="25266.00" arrivalLane="42925825#0_0" arrivalPos="254.17" arrivalSpeed="12.54" duration="37.00" routeLength="418.48" waitingTime="0.00" waitingCount="0" stopTime="0.00" timeLoss="5.07" rerouteNo="0" devices="tripinfo_133416_410_0 routing_133416_410_0" vType="pkw" speedFactor="0.95" vaporized=""/>
    <tripinfo id="118788_405_0" depart="25247.00" departLane="22917421#3_0" departPos="4.40" departSpeed="0.00" departDelay="0.00" arrival="25278.00" arrivalLane="186623965#17_0" arrivalPos="143.63" arrivalSpeed="11.16" duration="31.00" routeLength="257.42" waitingTime="0.00" waitingCount="0" stopTime="0.00" timeLoss="3.66" rerouteNo="0" devices="tripinfo_118788_405_0 routing_118788_405_0" vType="pkw" speedFactor="0.87" vaporized=""/>
    <tripinfo id="135663_411_0" depart="25216.00" departLane="-28675510#11_0" departPos="4.40" departSpeed="0.00" departDelay="2.00" arrival="25279.00" arrivalLane="28675510#7_0" arrivalPos="257.94" arrivalSpeed="11.60" duration="63.00" routeLength="516.12" waitingTime="8.00" waitingCount="1" stopTime="0.00" timeLoss="21.88" rerouteNo="0" devices="tripinfo_135663_411_0 routing_135663_411_0" vType="pkw" speedFactor="0.91" vaporized=""/>
    <tripinfo id="149045_417_0" depart="25219.00" departLane="-28675510#11_0" departPos="4.40" departSpeed="0.00" departDelay="2.00" arrival="25281.00" arrivalLane="28675510#7_0" arrivalPos="257.94" arrivalSpeed="12.80" duration="62.00" routeLength="516.12" waitingTime="6.00" waitingCount="1" stopTime="0.00" timeLoss="21.80" rerouteNo="0" devices="tripinfo_149045_417_0 routing_149045_417_0" vType="pkw" speedFactor="0.94" vaporized=""/>
    <tripinfo id="113370_402_0" depart="25249.00" departLane="186623965#9_0" departPos="4.40" departSpeed="0.00" departDelay="0.00" arrival="25284.00" arrivalLane="42925825#0_0" arrivalPos="254.17" arrivalSpeed="12.52" duration="35.00" routeLength="418.48" waitingTime="0.00" waitingCount="0" stopTime="0.00" timeLoss="3.97" rerouteNo="0" devices="tripinfo_113370_402_0 routing_113370_402_0" vType="pkw" speedFactor="0.97" vaporized=""/>
    <tripinfo id="76230_386_0" depart="25204.00" departLane="-23283579#1_0" departPos="4.40" departSpeed="0.00" departDelay="0.00" arrival="25285.00" arrivalLane="297047309#0_0" arrivalPos="91.17" arrivalSpeed="13.08" duration="81.00" routeLength="656.20" waitingTime="5.00" waitingCount="1" stopTime="0.00" timeLoss="16.71" rerouteNo="1" devices="tripinfo_76230_386_0 routing_76230_386_0" vType="pkw" speedFactor="1.03" vaporized=""/>
    <tripinfo id="144617_416_0" depart="25256.00" departLane="22917421#3_0" departPos="4.40" departSpeed="0.00" departDelay="0.00" arrival="25290.00" arrivalLane="186623965#17_0" arrivalPos="143.63" arrivalSpeed="10.90" duration="34.00" routeLength="257.42" waitingTime="0.00" waitingCount="0" stopTime="0.00" timeLoss="3.94" rerouteNo="0" devices="tripinfo_144617_416_0 routing_144617_416_0" vType="pkw" speedFactor="0.79" vaporized=""/>
    <tripinfo id="134428_411_0" depart="25239.00" departLane="-28675510#11_0" departPos="4.40" departSpeed="0.00" departDelay="2.00" arrival="25293.00" arrivalLane="28675510#7_0" arrivalPos="257.94" arrivalSpeed="11.13" duration="54.00" routeLength="516.12" waitingTime="0.00" waitingCount="0" stopTime="0.00" timeLoss="10.91" rerouteNo="0" devices="tripinfo_134428_411_0 routing_134428_411_0" vType="pkw" speedFactor="0.87" vaporized=""/>
    <tripinfo id="110248_401_0" depart="25207.00" departLane="-23283579#1_0" departPos="4.40" departSpeed="0.00" departDelay="1.00" arrival="25294.00" arrivalLane="297047309#0_0" arrivalPos="91.17" arrivalSpeed="14.24" duration="87.00" routeLength="656.20" waitingTime="8.00" waitingCount="2" stopTime="0.00" timeLoss="27.69" rerouteNo="1" devices="tripinfo_110248_401_0 routing_110248_401_0" vType="pkw" speedFactor="1.11" vaporized=""/>
    <tripinfo id="145282_416_0" depart="25259.00" departLane="186623965#9_0" departPos="4.40" departSpeed="0.00" departDelay="0.00" arrival="25294.00" arrivalLane="42925825#0_0" arrivalPos="254.17" arrivalSpeed="12.52" duration="35.00" routeLength="418.48" waitingTime="0.00" waitingCount="0" stopTime="0.00" timeLoss="3.69" rerouteNo="0" devices="tripinfo_145282_416_0 routing_145282_416_0" vType="pkw" speedFactor="0.97" vaporized=""/>
    <tripinfo id="111571_401_0" depart="25267.00" departLane="-353069169#0_0" departPos="4.40" departSpeed="0.00" departDelay="0.00" arrival="25298.00" arrivalLane="24487264_0" arrivalPos="166.35" arrivalSpeed="11.74" duration="31.00" routeLength="286.19" waitingTime="0.00" waitingCount="0" stopTime="0.00" timeLoss="5.25" rerouteNo="1" devices="tripinfo_111571_401_0 routing_111571_401_0" vType="pkw" speedFactor="0.85" vaporized=""/>
    <tripinfo id="162497_421_0" depart="25273.00" departLane="22917421#3_0" departPos="4.40" departSpeed="0.00" departDelay="0.00" arrival="25300.00" arrivalLane="186623965#17_0" arrivalPos="143.63" arrivalSpeed="12.96" duration="27.00" routeLength="257.42" waitingTime="0.00" waitingCount="0" stopTime="0.00" timeLoss="3.24" rerouteNo="0" devices="tripinfo_162497_421_0 routing_162497_421_0" vType="pkw" speedFactor="0.97" vaporized=""/>
    <tripinfo id="127809_407_0" depart="25258.00" departLane="-23283579#1_0" departPos="4.40" departSpeed="0.00" departDelay="1.00" arrival="25305.00" arrivalLane="23285888#0_0" arrivalPos="109.58" arrivalSpeed="8.87" duration="47.00" routeLength="410.95" waitingTime="0.00" waitingCount="0" stopTime="0.00" timeLoss="6.37" rerouteNo="1" devices="tripinfo_127809_407_0 routing_127809_407_0" vType="pkw" speedFactor="1.12" vaporized=""/>
    <tripinfo id="121484_406_0" depart="25268.00" departLane="-23283579#1_0" departPos="4.40" departSpeed="0.00" departDelay="0.00" arrival="25310.00" arrivalLane="133081987#3_0" arrivalPos="99.94" arrivalSpeed="11.40" duration="42.00" routeLength="434.85" waitingTime="0.00" waitingCount="0" stopTime="0.00" timeLoss="5.70" rerouteNo="1" devices="tripinfo_121484_406_0 routing_121484_406_0" vType="pkw" speedFactor="0.87" vaporized=""/>
    <tripinfo id="150593_418_0" depart="25297.00" departLane="22959552#0_0" departPos="4.40" departSpeed="0.00" departDelay="0.00" arrival="25311.00" arrivalLane="22959552#0_0" arrivalPos="91.39" arrivalSpeed="6.98" duration="14.00" routeLength="86.99" waitingTime="0.00" waitingCount="0" stopTime="0.00" timeLoss="2.36" rerouteNo="1" devices="tripinfo_150593_418_0 routing_150593_418_0" vType="pkw" speedFactor="0.95" vaporized=""/>
    <tripinfo id="166162_424_0" depart="25233.00" departLane="22959550#0_0" departPos="4.40" departSpeed="0.00" departDelay="0.00" arrival="25314.00" arrivalLane="28675510#7_0" arrivalPos="257.94" arrivalSpeed="16.17" duration="81.00" routeLength="903.30" waitingTime="0.00" waitingCount="0" stopTime="0.00" timeLoss="9.25" rerouteNo="1" devices="tripinfo_166162_424_0 routing_166162_424_0" vType="pkw" speedFactor="1.18" vaporized=""/>
    <tripinfo id="91556_392_0" depart="25270.00" departLane="-23283579#1_0" departPos="4.40" departSpeed="0.00" departDelay="0.00" arrival="25325.00" arrivalLane="23840972_0" arrivalPos="97.66" arrivalSpeed="7.70" duration="55.00" routeLength="525.30" waitingTime="0.00" waitingCount="0" stopTime="0.00" timeLoss="8.05" rerouteNo="1" devices="tripinfo_91556_392_0 routing_91556_392_0" vType="pkw" speedFactor="0.98" vaporized=""/>
    <tripinfo id="146152_416_0" depart="25210.00" departLane="25166682#0_0" departPos="4.40" departSpeed="0.00" departDelay="0.00" arrival="25335.00" arrivalLane="28675510#7_0" arrivalPos="257.94" arrivalSpeed="12.60" duration="125.00" routeLength="1219.50" waitingTime="0.00" waitingCount="0" stopTime="0.00" timeLoss="16.07" rerouteNo="1" devices="tripinfo_146152_416_0 routing_146152_416_0" vType="pkw" speedFactor="1.00" vaporized=""/>
    <tripinfo id="166776_424_0" depart="25208.00" departLane="-28675510#11_0" departPos="4.40" departSpeed="0.00" departDelay="0.00" arrival="25336.00" arrivalLane="-186623965#14_0" arrivalPos="159.69" arrivalSpeed="14.21" duration="128.00" routeLength="1202.17" waitingTime="1.00" waitingCount="1" stopTime="0.00" timeLoss="18.08" rerouteNo="1" devices="tripinfo_166776_424_0 routing_166776_424_0" vType="pkw" speedFactor="1.03" vaporized=""/>
    <tripinfo id="145512_416_0" depart="25308.00" departLane="22917421#3_0" departPos="4.40" departSpeed="0.00" departDelay="0.00" arrival="25340.00" arrivalLane="186623965#17_0" arrivalPos="143.63" arrivalSpeed="10.63" duration="32.00" routeLength="257.42" waitingTime="0.00" waitingCount="0" stopTime="0.00" timeLoss="3.84" rerouteNo="0" devices="tripinfo_145512_416_0 routing_145512_416_0" vType="pkw" speedFactor="0.85" vaporized=""/>
    <tripinfo id="171184_426_0" depart="25326.00" departLane="133081987#0_0" departPos="4.40" departSpeed="0.00" departDelay="0.00" arrival="25343.00" arrivalLane="23283436_0" arrivalPos="65.76" arrivalSpeed="11.72" duration="17.00" routeLength="154.99" waitingTime="0.00" waitingCount="0" stopTime="0.00" timeLoss="3.92" rerouteNo="0" devices="tripinfo_171184_426_0 routing_171184_426_0" vType="pkw" speedFactor="0.87" vaporized=""/>
    <tripinfo id="156485_420_0" depart="25205.00" departLane="22959552#0_0" departPos="4.40" departSpeed="0.00" departDelay="0.00" arrival="25345.00" arrivalLane="28675510#7_0" arrivalPos="257.94" arrivalSpeed="10.27" duration="140.00" routeLength="1112.54" waitingTime="1.00" waitingCount="1" stopTime="0.00" timeLoss="16.15" rerouteNo="1" devices="tripinfo_156485_420_0 routing_156485_420_0" vType="pkw" speedFactor="0.83" vaporized=""/>
    <tripinfo id="146111_416_0" depart="25223.00" departLane="-28675510#11_0" departPos="4.40" departSpeed="0.00" departDelay="2.00" arrival="25355.00" arrivalLane="-186623965#14_0" arrivalPos="159.69" arrivalSpeed="14.79" duration="132.00" routeLength="1202.17" waitingTime="7.00" waitingCount="1" stopTime="0.00" timeLoss="28.80" rerouteNo="1" devices="tripinfo_146111_416_0 routing_146111_416_0" vType="pkw" speedFactor="1.10" vaporized=""/>
    <tripinfo id="140363_414_0" depart="25313.00" departLane="22917421#3_0" departPos="4.40" departSpeed="0.00" departDelay="0.00" arrival="25359.00" arrivalLane="-186623965#14_1" arrivalPos="159.69" arrivalSpeed="14.36" duration="46.00" routeLength="476.78" waitingTime="0.00" waitingCount="0" stopTime="0.00" timeLoss="8.05" rerouteNo="1" devices="tripinfo_140363_414_0 routing_140363_414_0" vType="pkw" speedFactor="1.04" vaporized=""/>
    <tripinfo id="144017_416_0" depart="25348.00" departLane="-353069169#0_0" departPos="4.40" departSpeed="0.00" departDelay="0.00" arrival="25366.00" arrivalLane="323416262_0" arrivalPos="87.54" arrivalSpeed="12.94" duration="18.00" routeLength="175.35" waitingTime="0.00" waitingCount="0" stopTime="0.00" timeLoss="5.10" rerouteNo="0" devices="tripinfo_144017_416_0 routing_144017_416_0" vType="pkw" speedFactor="0.98" vaporized=""/>
    <tripinfo id="166783_424_0" depart="25349.00" departLane="22917421#3_0" departPos="4.40" departSpeed="0.00" departDelay="0.00" arrival="25373.00" arrivalLane="186623965#17_0" arrivalPos="143.63" arrivalSpeed="15.42" duration="24.00" routeLength="257.42" waitingTime="0.00" waitingCount="0" stopTime="0.00" timeLoss="3.91" rerouteNo="0" devices="tripinfo_166783_424_0 routing_166783_424_0" vType="pkw" speedFactor="1.19" vaporized=""/>
    <tripinfo id="161942_421_0" depart="25233.00" departLane="-42925825#2_0" departPos="4.40" departSpeed="0.00" departDelay="0.00" arrival="25376.00" arrivalLane="42925825#0_0" arrivalPos="254.17" arrivalSpeed="12.88" duration="143.00" routeLength="508.64" waitingTime="95.00" waitingCount="1" stopTime="0.00" timeLoss="103.86" rerouteNo="0" devices="tripinfo_161942_421_0 routing_161942_421_0" vType="pkw" speedFactor="0.96" vaporized=""/>
    <tripinfo id="139269_413_0" depart="25307.00" departLane="-23283579#1_0" departPos="4.40" departSpeed="0.00" departDelay="0.00" arrival="25384.00" arrivalLane="-297047308_0" arrivalPos="28.52" arrivalSpeed="11.10" duration="77.00" routeLength="517.28" waitingTime="0.00" waitingCount="0" stopTime="0.00" timeLoss="10.83" rerouteNo="1" devices="tripinfo_139269_413_0 routing_139269_413_0" vType="pkw" speedFactor="0.84" vaporized=""/>
    <tripinfo id="124742_406_0" depart="25237.00" departLane="22917421#3_0" departPos="4.40" departSpeed="0.00" departDelay="1.00" arrival="25385.00" arrivalLane="28675493_0" arrivalPos="90.85" arrivalSpeed="15.22" duration="148.00" routeLength="1141.94" waitingTime="57.00" waitingCount="1" stopTime="0.00" timeLoss="70.80" rerouteNo="1" devices="tripinfo_124742_406_0 routing_124742_406_0" vType="pkw" speedFactor="1.13" vaporized=""/>
    <tripinfo id="117517_404_0" depart="25225.00" departLane="-28675510#11_0" departPos="4.40" departSpeed="0.00" departDelay="1.00" arrival="25389.00" arrivalLane="-186623965#14_0" arrivalPos="159.69" arrivalSpeed="13.82" duration="164.00" routeLength="1202.17" waitingTime="26.00" waitingCount="2" stopTime="0.00" timeLoss="52.62" rerouteNo="1" devices="tripinfo_117517_404_0 routing_117517_404_0" vType="pkw" speedFactor="1.02" vaporized=""/>
    <tripinfo id="154212_420_0" depart="25232.00" departLane="-28675510#11_0" departPos="4.40" departSpeed="0.00" departDelay="0.00" arrival="25389.00" arrivalLane="-186623965#14_1" arrivalPos="159.69" arrivalSpeed="13.06" duration="157.00" routeLength="1202.17" waitingTime="14.00" waitingCount="2" stopTime="0.00" timeLoss="40.10" rerouteNo="1" devices="tripinfo_154212_420_0 routing_154212_420_0" vType="pkw" speedFactor="0.98" vaporized=""/>
    <tripinfo id="164302_422_0" depart="25241.00" departLane="-28675510#11_0" departPos="4.40" departSpeed="0.00" departDelay="1.00" arrival="25391.00" arrivalLane="-186623965#14_1" arrivalPos="159.69" arrivalSpeed="11.91" duration="150.00" routeLength="1202.17" waitingTime="5.00" waitingCount="1" stopTime="0.00" timeLoss="29.68" rerouteNo="1" devices="tripinfo_164302_422_0 routing_164302_422_0" vType="pkw" speedFactor="0.94" vaporized=""/>
    <tripinfo id="120970_405_0" depart="25344.00" departLane="-23283579#1_0" departPos="4.40" departSpeed="0.00" departDelay="1.00" arrival="25391.00" arrivalLane="23283470#5_0" arrivalPos="89.27" arrivalSpeed="8.43" duration="47.00" routeLength="393.04" waitingTime="0.00" waitingCount="0" stopTime="0.00" timeLoss="6.37" rerouteNo="1" devices="tripinfo_120970_405_0 routing_120970_405_0" vType="pkw" speedFactor="1.07" vaporized=""/>
    <tripinfo id="129175_408_0" depart="25255.00" departLane="-23283579#1_0" departPos="4.40" departSpeed="0.00" departDelay="0.00" arrival="25393.00" arrivalLane="323450710#0_0" arrivalPos="95.59" arrivalSpeed="14.77" duration="138.00" routeLength="843.12" waitingTime="45.00" waitingCount="2" stopTime="0.00" timeLoss="63.59" rerouteNo="1" devices="tripinfo_129175_408_0 routing_129175_408_0" vType="pkw" speedFactor="1.07" vaporized=""/>
    <tripinfo id="84611_390_0" depart="25261.00" departLane="-23283579#1_0" departPos="4.40" departSpeed="0.00" departDelay="0.00" arrival="25395.00" arrivalLane="-23648008#0_0" arrivalPos="75.90" arrivalSpeed="10.49" duration="134.00" routeLength="782.02" waitingTime="26.00" waitingCount="2" stopTime="0.00" timeLoss="44.53" rerouteNo="1" devices="tripinfo_84611_390_0 routing_84611_390_0" vType="pkw" speedFactor="0.84" vaporized=""/>
    <tripinfo id="158885_421_0" depart="25220.00" departLane="22917421#3_0" departPos="4.40" departSpeed="0.00" departDelay="0.00" arrival="25398.00" arrivalLane="28675510#7_0" arrivalPos="257.94" arrivalSpeed="12.35" duration="178.00" routeLength="937.03" waitingTime="58.00" waitingCount="1" stopTime="0.00" timeLoss="72.79" rerouteNo="1" devices="tripinfo_158885_421_0 routing_158885_421_0" vType="pkw" speedFactor="0.95" vaporized=""/>
    <tripinfo id="174717_427_0" depart="25373.00" departLane="22917421#3_0" departPos="4.40" departSpeed="0.00" departDelay="0.00" arrival="25403.00" arrivalLane="186623965#17_0" arrivalPos="143.63" arrivalSpeed="15.72" duration="30.00" routeLength="257.42" waitingTime="0.00" waitingCount="0" stopTime="0.00" timeLoss="9.43" rerouteNo="0" devices="tripinfo_174717_427_0 routing_174717_427_0" vType="pkw" speedFactor="1.18" vaporized=""/>
    <tripinfo id="122140_406_0" depart="25244.00" departLane="22917421#3_0" departPos="4.40" departSpeed="0.00" departDelay="0.00" arrival="25409.00" arrivalLane="23648008#2_0" arrivalPos="175.60" arrivalSpeed="11.89" duration="165.00" routeLength="1356.05" waitingTime="37.00" waitingCount="1" stopTime="0.00" timeLoss="55.13" rerouteNo="1" devices="tripinfo_122140_406_0 routing_122140_406_0" vType="pkw" speedFactor="0.93" vaporized=""/>
    <tripinfo id="171749_426_0" depart="25314.00" departLane="-23283579#1_0" departPos="4.40" departSpeed="0.00" departDelay="0.00" arrival="25412.00" arrivalLane="-297047309#0_0" arrivalPos="91.17" arrivalSpeed="13.15" duration="98.00" routeLength="752.04" waitingTime="4.00" waitingCount="1" stopTime="0.00" timeLoss="27.84" rerouteNo="1" devices="tripinfo_171749_426_0 routing_171749_426_0" vType="pkw" speedFactor="1.04" vaporized=""/>
    <tripinfo id="142307_415_0" depart="25375.00" departLane="22917421#3_0" departPos="4.40" departSpeed="0.00" departDelay="0.00" arrival="25416.00" arrivalLane="186623965#17_0" arrivalPos="143.63" arrivalSpeed="11.08" duration="41.00" routeLength="257.42" waitingTime="5.00" waitingCount="1" stopTime="0.00" timeLoss="14.08" rerouteNo="0" devices="tripinfo_142307_415_0 routing_142307_415_0" vType="pkw" speedFactor="0.88" vaporized=""/>
    <tripinfo id="157954_421_0" depart="25388.00" departLane="22917421#3_0" departPos="4.40" departSpeed="0.00" departDelay="0.00" arrival="25417.00" arrivalLane="186623965#17_0" arrivalPos="143.63" arrivalSpeed="13.04" duration="29.00" routeLength="257.42" waitingTime="0.00" waitingCount="0" stopTime="0.00" timeLoss="6.98" rerouteNo="0" devices="tripinfo_157954_421_0 routing_157954_421_0" vType="pkw" speedFactor="1.05" vaporized=""/>
    <tripinfo id="107217_400_0" depart="25283.00" departLane="-28675510#11_0" departPos="4.40" departSpeed="0.00" departDelay="0.00" arrival="25423.00" arrivalLane="-186623965#14_0" arrivalPos="159.69" arrivalSpeed="12.21" duration="140.00" routeLength="1202.17" waitingTime="0.00" waitingCount="0" stopTime="0.00" timeLoss="16.64" rerouteNo="1" devices="tripinfo_107217_400_0 routing_107217_400_0" vType="pkw" speedFactor="0.92" vaporized=""/>
    <tripinfo id="139530_413_0" depart="25383.00" departLane="186623965#9_0" departPos="4.40" departSpeed="0.00" departDelay="0.00" arrival="25425.00" arrivalLane="42925825#0_0" arrivalPos="254.17" arrivalSpeed="10.89" duration="42.00" routeLength="418.48" waitingTime="0.00" waitingCount="0" stopTime="0.00" timeLoss="4.15" rerouteNo="0" devices="tripinfo_139530_413_0 routing_139530_413_0" vType="pkw" speedFactor="0.80" vaporized=""/>
    <tripinfo id="164277_422_0" depart="25343.00" departLane="23285888#0_0" departPos="4.40" departSpeed="0.00" departDelay="0.00" arrival="25427.00" arrivalLane="297047309#0_0" arrivalPos="91.17" arrivalSpeed="11.58" duration="84.00" routeLength="518.80" waitingTime="7.00" waitingCount="2" stopTime="0.00" timeLoss="23.48" rerouteNo="1" devices="tripinfo_164277_422_0 routing_164277_422_0" vType="pkw" speedFactor="0.90" vaporized=""/>
    <tripinfo id="83049_390_0" depart="25408.00" departLane="-4936412_0" departPos="4.40" departSpeed="0.00" departDelay="0.00" arrival="25427.00" arrivalLane="8716827#0_0" arrivalPos="109.12" arrivalSpeed="8.07" duration="19.00" routeLength="148.59" waitingTime="0.00" waitingCount="0" stopTime="0.00" timeLoss="4.24" rerouteNo="0" devices="tripinfo_83049_390_0 routing_83049_390_0" vType="pkw" speedFactor="1.11" vaporized=""/>
    <tripinfo id="179907_430_0" depart="25383.00" departLane="23283470#0_0" departPos="4.40" departSpeed="0.00" departDelay="0.00" arrival="25429.00" arrivalLane="23283579#1_0" arrivalPos="22.22" arrivalSpeed="12.57" duration="46.00" routeLength="367.64" waitingTime="0.00" waitingCount="0" stopTime="0.00" timeLoss="5.36" rerouteNo="1" devices="tripinfo_179907_430_0 routing_179907_430_0" vType="pkw" speedFactor="0.97" vaporized=""/>
    <tripinfo id="67978_381_0" depart="25412.00" departLane="-4936412_0" departPos="4.40" departSpeed="0.00" departDelay="0.00" arrival="25431.00" arrivalLane="8716827#0_0" arrivalPos="109.12" arrivalSpeed="9.25" duration="19.00" routeLength="148.59" waitingTime="0.00" waitingCount="0" stopTime="0.00" timeLoss="3.87" rerouteNo="0" devices="tripinfo_67978_381_0 routing_67978_381_0" vType="pkw" speedFactor="1.12" vaporized=""/>
    <tripinfo id="109527_401_0" depart="25342.00" departLane="-23283579#1_0" departPos="4.40" departSpeed="0.00" departDelay="3.00" arrival="25434.00" arrivalLane="297047309#0_0" arrivalPos="91.17" arrivalSpeed="15.01" duration="92.00" routeLength="656.20" waitingTime="9.00" waitingCount="3" stopTime="0.00" timeLoss="30.95" rerouteNo="1" devices="tripinfo_109527_401_0 routing_109527_401_0" vType="pkw" speedFactor="1.08" vaporized=""/>
    <tripinfo id="154420_420_0" depart="25411.00" departLane="22917421#3_0" departPos="4.40" departSpeed="0.00" departDelay="0.00" arrival="25436.00" arrivalLane="186623965#17_0" arrivalPos="143.63" arrivalSpeed="14.04" duration="25.00" routeLength="257.42" waitingTime="0.00" waitingCount="0" stopTime="0.00" timeLoss="3.44" rerouteNo="0" devices="tripinfo_154420_420_0 routing_154420_420_0" vType="pkw" speedFactor="1.10" vaporized=""/>
    <tripinfo id="157572_421_0" depart="25303.00" departLane="23283470#0_0" departPos="4.40" departSpeed="0.00" departDelay="0.00" arrival="25445.00" arrivalLane="323416262_0" arrivalPos="87.54" arrivalSpeed="13.21" duration="142.00" routeLength="994.79" waitingTime="23.00" waitingCount="2" stopTime="0.00" timeLoss="46.79" rerouteNo="1" devices="tripinfo_157572_421_0 routing_157572_421_0" vType="pkw" speedFactor="0.98" vaporized=""/>
    <tripinfo id="154646_420_0" depart="25419.00" departLane="25166682#0_0" departPos="4.40" departSpeed="0.00" departDelay="0.00" arrival="25446.00" arrivalLane="323450710#0_0" arrivalPos="95.59" arrivalSpeed="13.86" duration="27.00" routeLength="289.69" waitingTime="0.00" waitingCount="0" stopTime="0.00" timeLoss="6.54" rerouteNo="1" devices="tripinfo_154646_420_0 routing_154646_420_0" vType="pkw" speedFactor="1.04" vaporized=""/>
    <tripinfo id="149205_417_0" depart="25341.00" departLane="8716807#1_0" departPos="4.40" departSpeed="0.00" departDelay="3.00" arrival="25447.00" arrivalLane="323416262_0" arrivalPos="87.54" arrivalSpeed="15.06" duration="106.00" routeLength="830.79" waitingTime="9.00" waitingCount="2" stopTime="0.00" timeLoss="40.01" rerouteNo="1" devices="tripinfo_149205_417_0 routing_149205_417_0" vType="pkw" speedFactor="1.12" vaporized=""/>
    <tripinfo id="146387_416_0" depart="25321.00" departLane="-28675510#11_0" departPos="4.40" departSpeed="0.00" departDelay="0.00" arrival="25450.00" arrivalLane="-186623965#14_0" arrivalPos="159.69" arrivalSpeed="13.96" duration="129.00" routeLength="1202.17" waitingTime="3.00" waitingCount="1" stopTime="0.00" timeLoss="18.15" rerouteNo="1" devices="tripinfo_146387_416_0 routing_146387_416_0" vType="pkw" speedFactor="1.03" vaporized=""/>
    <tripinfo id="150411_418_0" depart="25329.00" departLane="22917421#3_0" departPos="4.40" departSpeed="0.00" departDelay="0.00" arrival="25451.00" arrivalLane="23840972_0" arrivalPos="97.66" arrivalSpeed="9.45" duration="122.00" routeLength="954.69" waitingTime="0.00" waitingCount="0" stopTime="0.00" timeLoss="27.98" rerouteNo="1" devices="tripinfo_150411_418_0 routing_150411_418_0" vType="pkw" speedFactor="1.16" vaporized=""/>