<?xml version="1.0" encoding="UTF-8"?>

<!-- generated on 2023-08-31 14:26:58 by Eclipse SUMO libsumo Version 1.18.0
<configuration xmlns:xsi="http://www.w3.org/2001/XMLSchema-instance" xsi:noNamespaceSchemaLocation="http://sumo.dlr.de/xsd/libsumoConfiguration.xsd">

    <input>
        <net-file value="/home/stefan/RESCO/./environments/cologne8/cologne8.net.xml"/>
        <route-files value="/home/stefan/RESCO/./environments/cologne8/cologne8.rou.xml"/>
    </input>

    <output>
        <tripinfo-output value="/home/stefan/results/RAINBOW-tr0-cologne8-0-drq_norm-wait_norm/tripinfo_72.xml"/>
        <tripinfo-output.write-unfinished value="true"/>
    </output>

    <time>
        <begin value="25200"/>
        <end value="28800"/>
    </time>

    <processing>
        <time-to-teleport value="-1"/>
    </processing>

    <report>
        <no-warnings value="True"/>
        <no-step-log value="True"/>
    </report>

    <random_number>
        <random value="true"/>
    </random_number>

</configuration>
-->

<tripinfos xmlns:xsi="http://www.w3.org/2001/XMLSchema-instance" xsi:noNamespaceSchemaLocation="http://sumo.dlr.de/xsd/tripinfo_file.xsd">
    <tripinfo id="142890_415_0" depart="25218.00" departLane="-23283579#1_0" departPos="4.40" departSpeed="0.00" departDelay="0.00" arrival="25225.00" arrivalLane="23283579#1_0" arrivalPos="22.22" arrivalSpeed="12.20" duration="7.00" routeLength="44.72" waitingTime="0.00" waitingCount="0" stopTime="0.00" timeLoss="3.26" rerouteNo="0" devices="tripinfo_142890_415_0 routing_142890_415_0" vType="pkw" speedFactor="0.89" vaporized=""/>
    <tripinfo id="114597_403_0" depart="25201.00" departLane="22917421#3_0" departPos="4.40" departSpeed="0.00" departDelay="0.00" arrival="25247.00" arrivalLane="-186623965#14_0" arrivalPos="159.69" arrivalSpeed="12.83" duration="46.00" routeLength="476.78" waitingTime="0.00" waitingCount="0" stopTime="0.00" timeLoss="5.32" rerouteNo="1" devices="tripinfo_114597_403_0 routing_114597_403_0" vType="pkw" speedFactor="0.97" vaporized=""/>
    <tripinfo id="155570_420_0" depart="25200.00" departLane="-28675510#11_0" departPos="4.40" departSpeed="0.00" departDelay="0.00" arrival="25249.00" arrivalLane="28675510#7_0" arrivalPos="257.94" arrivalSpeed="14.68" duration="49.00" routeLength="516.12" waitingTime="5.00" waitingCount="1" stopTime="0.00" timeLoss="14.56" rerouteNo="0" devices="tripinfo_155570_420_0 routing_155570_420_0" vType="pkw" speedFactor="1.09" vaporized=""/>
    <tripinfo id="134603_411_0" depart="25206.00" departLane="-28675510#11_0" departPos="4.40" departSpeed="0.00" departDelay="0.00" arrival="25254.00" arrivalLane="28675510#7_0" arrivalPos="257.94" arrivalSpeed="15.31" duration="48.00" routeLength="516.12" waitingTime="1.00" waitingCount="1" stopTime="0.00" timeLoss="14.05" rerouteNo="0" devices="tripinfo_134603_411_0 routing_134603_411_0" vType="pkw" speedFactor="1.12" vaporized=""/>
    <tripinfo id="138070_412_0" depart="25229.00" departLane="22917421#3_0" departPos="4.40" departSpeed="0.00" departDelay="0.00" arrival="25257.00" arrivalLane="186623965#17_0" arrivalPos="143.63" arrivalSpeed="13.57" duration="28.00" routeLength="257.42" waitingTime="0.00" waitingCount="0" stopTime="0.00" timeLoss="3.77" rerouteNo="0" devices="tripinfo_138070_412_0 routing_138070_412_0" vType="pkw" speedFactor="0.98" vaporized=""/>
    <tripinfo id="140143_414_0" depart="25211.00" departLane="-28675510#11_0" departPos="4.40" departSpeed="0.00" departDelay="1.00" arrival="25260.00" arrivalLane="28675510#7_0" arrivalPos="257.94" arrivalSpeed="12.77" duration="49.00" routeLength="516.12" waitingTime="0.00" waitingCount="0" stopTime="0.00" timeLoss="9.03" rerouteNo="0" devices="tripinfo_140143_414_0 routing_140143_414_0" vType="pkw" speedFactor="0.95" vaporized=""/>
    <tripinfo id="153496_420_0" depart="25232.00" departLane="22917421#3_0" departPos="4.40" departSpeed="0.00" departDelay="0.00" arrival="25260.00" arrivalLane="186623965#17_0" arrivalPos="143.63" arrivalSpeed="12.28" duration="28.00" routeLength="257.42" waitingTime="0.00" waitingCount="0" stopTime="0.00" timeLoss="3.53" rerouteNo="0" devices="tripinfo_153496_420_0 routing_153496_420_0" vType="pkw" speedFactor="0.97" vaporized=""/>
    <tripinfo id="155353_420_0" depart="25234.00" departLane="22917421#3_0" departPos="4.40" departSpeed="0.00" departDelay="0.00" arrival="25265.00" arrivalLane="186623965#17_0" arrivalPos="143.63" arrivalSpeed="12.18" duration="31.00" routeLength="257.42" waitingTime="0.00" waitingCount="0" stopTime="0.00" timeLoss="4.50" rerouteNo="0" devices="tripinfo_155353_420_0 routing_155353_420_0" vType="pkw" speedFactor="0.90" vaporized=""/>
    <tripinfo id="137312_412_0" depart="25200.00" departLane="-23283579#1_0" departPos="4.40" departSpeed="0.00" departDelay="0.00" arrival="25268.00" arrivalLane="23283436_0" arrivalPos="65.76" arrivalSpeed="13.49" duration="68.00" routeLength="404.67" waitingTime="30.00" waitingCount="1" stopTime="0.00" timeLoss="40.04" rerouteNo="1" devices="tripinfo_137312_412_0 routing_137312_412_0" vType="pkw" speedFactor="1.05" vaporized=""/>
    <tripinfo id="118788_405_0" depart="25247.00" departLane="22917421#3_0" departPos="4.40" departSpeed="0.00" departDelay="0.00" arrival="25272.00" arrivalLane="186623965#17_0" arrivalPos="143.63" arrivalSpeed="14.58" duration="25.00" routeLength="257.42" waitingTime="0.00" waitingCount="0" stopTime="0.00" timeLoss="3.36" rerouteNo="0" devices="tripinfo_118788_405_0 routing_118788_405_0" vType="pkw" speedFactor="1.08" vaporized=""/>
    <tripinfo id="119181_405_0" depart="25226.00" departLane="186623965#9_0" departPos="4.40" departSpeed="0.00" departDelay="0.00" arrival="25275.00" arrivalLane="42925825#0_0" arrivalPos="254.17" arrivalSpeed="13.63" duration="49.00" routeLength="418.48" waitingTime="8.00" waitingCount="1" stopTime="0.00" timeLoss="17.96" rerouteNo="0" devices="tripinfo_119181_405_0 routing_119181_405_0" vType="pkw" speedFactor="0.98" vaporized=""/>
    <tripinfo id="133416_410_0" depart="25228.00" departLane="186623965#9_0" departPos="4.40" departSpeed="0.00" departDelay="0.00" arrival="25277.00" arrivalLane="42925825#0_0" arrivalPos="254.17" arrivalSpeed="14.49" duration="49.00" routeLength="418.48" waitingTime="7.00" waitingCount="1" stopTime="0.00" timeLoss="19.67" rerouteNo="0" devices="tripinfo_133416_410_0 routing_133416_410_0" vType="pkw" speedFactor="1.05" vaporized=""/>
    <tripinfo id="135663_411_0" depart="25217.00" departLane="-28675510#11_0" departPos="4.40" departSpeed="0.00" departDelay="3.00" arrival="25279.00" arrivalLane="28675510#7_0" arrivalPos="257.94" arrivalSpeed="11.87" duration="62.00" routeLength="516.12" waitingTime="9.00" waitingCount="1" stopTime="0.00" timeLoss="20.88" rerouteNo="0" devices="tripinfo_135663_411_0 routing_135663_411_0" vType="pkw" speedFactor="0.91" vaporized=""/>
    <tripinfo id="149045_417_0" depart="25220.00" departLane="-28675510#11_0" departPos="4.40" departSpeed="0.00" departDelay="3.00" arrival="25281.00" arrivalLane="28675510#7_0" arrivalPos="257.94" arrivalSpeed="14.67" duration="61.00" routeLength="516.12" waitingTime="8.00" waitingCount="1" stopTime="0.00" timeLoss="25.49" rerouteNo="0" devices="tripinfo_149045_417_0 routing_149045_417_0" vType="pkw" speedFactor="1.07" vaporized=""/>
    <tripinfo id="144617_416_0" depart="25256.00" departLane="22917421#3_0" departPos="4.40" departSpeed="0.00" departDelay="0.00" arrival="25282.00" arrivalLane="186623965#17_0" arrivalPos="143.63" arrivalSpeed="13.74" duration="26.00" routeLength="257.42" waitingTime="0.00" waitingCount="0" stopTime="0.00" timeLoss="4.07" rerouteNo="0" devices="tripinfo_144617_416_0 routing_144617_416_0" vType="pkw" speedFactor="1.07" vaporized=""/>
    <tripinfo id="161942_421_0" depart="25233.00" departLane="-42925825#2_0" departPos="4.40" departSpeed="0.00" departDelay="0.00" arrival="25291.00" arrivalLane="42925825#0_0" arrivalPos="254.17" arrivalSpeed="12.62" duration="58.00" routeLength="508.64" waitingTime="9.00" waitingCount="1" stopTime="0.00" timeLoss="20.52" rerouteNo="0" devices="tripinfo_161942_421_0 routing_161942_421_0" vType="pkw" speedFactor="0.99" vaporized=""/>
    <tripinfo id="111571_401_0" depart="25267.00" departLane="-353069169#0_0" departPos="4.40" departSpeed="0.00" departDelay="0.00" arrival="25296.00" arrivalLane="24487264_0" arrivalPos="166.35" arrivalSpeed="12.47" duration="29.00" routeLength="286.19" waitingTime="0.00" waitingCount="0" stopTime="0.00" timeLoss="5.43" rerouteNo="1" devices="tripinfo_111571_401_0 routing_111571_401_0" vType="pkw" speedFactor="0.91" vaporized=""/>
    <tripinfo id="113370_402_0" depart="25249.00" departLane="186623965#9_0" departPos="4.40" departSpeed="0.00" departDelay="0.00" arrival="25303.00" arrivalLane="42925825#0_0" arrivalPos="254.17" arrivalSpeed="15.10" duration="54.00" routeLength="418.48" waitingTime="16.00" waitingCount="1" stopTime="0.00" timeLoss="27.10" rerouteNo="0" devices="tripinfo_113370_402_0 routing_113370_402_0" vType="pkw" speedFactor="1.13" vaporized=""/>
    <tripinfo id="162497_421_0" depart="25273.00" departLane="22917421#3_0" departPos="4.40" departSpeed="0.00" departDelay="0.00" arrival="25306.00" arrivalLane="186623965#17_0" arrivalPos="143.63" arrivalSpeed="10.03" duration="33.00" routeLength="257.42" waitingTime="0.00" waitingCount="0" stopTime="0.00" timeLoss="3.88" rerouteNo="0" devices="tripinfo_162497_421_0 routing_162497_421_0" vType="pkw" speedFactor="0.81" vaporized=""/>
    <tripinfo id="145282_416_0" depart="25259.00" departLane="186623965#9_0" departPos="4.40" departSpeed="0.00" departDelay="0.00" arrival="25307.00" arrivalLane="42925825#0_0" arrivalPos="254.17" arrivalSpeed="12.75" duration="48.00" routeLength="418.48" waitingTime="7.00" waitingCount="1" stopTime="0.00" timeLoss="17.85" rerouteNo="0" devices="tripinfo_145282_416_0 routing_145282_416_0" vType="pkw" speedFactor="1.01" vaporized=""/>
    <tripinfo id="76230_386_0" depart="25204.00" departLane="-23283579#1_0" departPos="4.40" departSpeed="0.00" departDelay="0.00" arrival="25311.00" arrivalLane="297047309#0_0" arrivalPos="91.17" arrivalSpeed="12.68" duration="107.00" routeLength="656.20" waitingTime="27.00" waitingCount="1" stopTime="0.00" timeLoss="40.24" rerouteNo="1" devices="tripinfo_76230_386_0 routing_76230_386_0" vType="pkw" speedFactor="0.98" vaporized=""/>
    <tripinfo id="150593_418_0" depart="25297.00" departLane="22959552#0_0" departPos="4.40" departSpeed="0.00" departDelay="0.00" arrival="25313.00" arrivalLane="22959552#0_0" arrivalPos="91.39" arrivalSpeed="5.97" duration="16.00" routeLength="86.99" waitingTime="0.00" waitingCount="0" stopTime="0.00" timeLoss="2.59" rerouteNo="1" devices="tripinfo_150593_418_0 routing_150593_418_0" vType="pkw" speedFactor="0.79" vaporized=""/>
    <tripinfo id="163043_422_0" depart="25215.00" departLane="-28675510#11_0" departPos="4.40" departSpeed="0.00" departDelay="3.00" arrival="25324.00" arrivalLane="8716827#0_0" arrivalPos="109.12" arrivalSpeed="8.30" duration="109.00" routeLength="1154.53" waitingTime="10.00" waitingCount="1" stopTime="0.00" timeLoss="28.71" rerouteNo="1" devices="tripinfo_163043_422_0 routing_163043_422_0" vType="pkw" speedFactor="1.10" vaporized=""/>
    <tripinfo id="110248_401_0" depart="25207.00" departLane="-23283579#1_0" departPos="4.40" departSpeed="0.00" departDelay="1.00" arrival="25331.00" arrivalLane="297047309#0_0" arrivalPos="91.17" arrivalSpeed="10.75" duration="124.00" routeLength="656.20" waitingTime="25.00" waitingCount="1" stopTime="0.00" timeLoss="47.02" rerouteNo="1" devices="tripinfo_110248_401_0 routing_110248_401_0" vType="pkw" speedFactor="0.86" vaporized=""/>
    <tripinfo id="145512_416_0" depart="25308.00" departLane="22917421#3_0" departPos="4.40" departSpeed="0.00" departDelay="0.00" arrival="25335.00" arrivalLane="186623965#17_0" arrivalPos="143.63" arrivalSpeed="14.21" duration="27.00" routeLength="257.42" waitingTime="0.00" waitingCount="0" stopTime="0.00" timeLoss="3.79" rerouteNo="0" devices="tripinfo_145512_416_0 routing_145512_416_0" vType="pkw" speedFactor="1.03" vaporized=""/>
    <tripinfo id="171184_426_0" depart="25326.00" departLane="133081987#0_0" departPos="4.40" departSpeed="0.00" departDelay="0.00" arrival="25343.00" arrivalLane="23283436_0" arrivalPos="65.76" arrivalSpeed="13.44" duration="17.00" routeLength="154.99" waitingTime="0.00" waitingCount="0" stopTime="0.00" timeLoss="5.63" rerouteNo="0" devices="tripinfo_171184_426_0 routing_171184_426_0" vType="pkw" speedFactor="1.01" vaporized=""/>
    <tripinfo id="166776_424_0" depart="25208.00" departLane="-28675510#11_0" departPos="4.40" departSpeed="0.00" departDelay="0.00" arrival="25359.00" arrivalLane="-186623965#14_0" arrivalPos="159.69" arrivalSpeed="12.95" duration="151.00" routeLength="1202.17" waitingTime="10.00" waitingCount="1" stopTime="0.00" timeLoss="31.39" rerouteNo="1" devices="tripinfo_166776_424_0 routing_166776_424_0" vType="pkw" speedFactor="0.95" vaporized=""/>
    <tripinfo id="144017_416_0" depart="25348.00" departLane="-353069169#0_0" departPos="4.40" departSpeed="0.00" departDelay="0.00" arrival="25367.00" arrivalLane="323416262_0" arrivalPos="87.54" arrivalSpeed="11.99" duration="19.00" routeLength="175.35" waitingTime="0.00" waitingCount="0" stopTime="0.00" timeLoss="4.88" rerouteNo="0" devices="tripinfo_144017_416_0 routing_144017_416_0" vType="pkw" speedFactor="0.94" vaporized=""/>
    <tripinfo id="146111_416_0" depart="25222.00" departLane="-28675510#11_0" departPos="4.40" departSpeed="0.00" departDelay="1.00" arrival="25378.00" arrivalLane="-186623965#14_1" arrivalPos="159.69" arrivalSpeed="13.82" duration="156.00" routeLength="1202.17" waitingTime="16.00" waitingCount="3" stopTime="0.00" timeLoss="47.62" rerouteNo="1" devices="tripinfo_146111_416_0 routing_146111_416_0" vType="pkw" speedFactor="1.04" vaporized=""/>
    <tripinfo id="117517_404_0" depart="25225.00" departLane="-28675510#11_0" departPos="4.40" departSpeed="0.00" departDelay="1.00" arrival="25380.00" arrivalLane="-186623965#14_1" arrivalPos="159.69" arrivalSpeed="13.60" duration="155.00" routeLength="1202.17" waitingTime="15.00" waitingCount="3" stopTime="0.00" timeLoss="49.04" rerouteNo="1" devices="tripinfo_117517_404_0 routing_117517_404_0" vType="pkw" speedFactor="1.07" vaporized=""/>
    <tripinfo id="166783_424_0" depart="25349.00" departLane="22917421#3_0" departPos="4.40" departSpeed="0.00" departDelay="0.00" arrival="25380.00" arrivalLane="186623965#17_0" arrivalPos="143.63" arrivalSpeed="11.40" duration="31.00" routeLength="257.42" waitingTime="0.00" waitingCount="0" stopTime="0.00" timeLoss="4.00" rerouteNo="0" devices="tripinfo_166783_424_0 routing_166783_424_0" vType="pkw" speedFactor="0.88" vaporized=""/>
    <tripinfo id="140363_414_0" depart="25314.00" departLane="22917421#3_0" departPos="4.40" departSpeed="0.00" departDelay="1.00" arrival="25382.00" arrivalLane="-186623965#14_0" arrivalPos="159.69" arrivalSpeed="11.10" duration="68.00" routeLength="476.78" waitingTime="7.00" waitingCount="1" stopTime="0.00" timeLoss="20.12" rerouteNo="1" devices="tripinfo_140363_414_0 routing_140363_414_0" vType="pkw" speedFactor="0.83" vaporized=""/>
    <tripinfo id="158885_421_0" depart="25220.00" departLane="22917421#3_0" departPos="4.40" departSpeed="0.00" departDelay="0.00" arrival="25402.00" arrivalLane="28675510#7_0" arrivalPos="257.94" arrivalSpeed="14.29" duration="182.00" routeLength="937.03" waitingTime="76.00" waitingCount="1" stopTime="0.00" timeLoss="88.65" rerouteNo="1" devices="tripinfo_158885_421_0 routing_158885_421_0" vType="pkw" speedFactor="1.07" vaporized=""/>
    <tripinfo id="174717_427_0" depart="25373.00" departLane="22917421#3_0" departPos="4.40" departSpeed="0.00" departDelay="0.00" arrival="25407.00" arrivalLane="186623965#17_0" arrivalPos="143.63" arrivalSpeed="10.66" duration="34.00" routeLength="257.42" waitingTime="0.00" waitingCount="0" stopTime="0.00" timeLoss="3.87" rerouteNo="0" devices="tripinfo_174717_427_0 routing_174717_427_0" vType="pkw" speedFactor="0.78" vaporized=""/>
    <tripinfo id="142307_415_0" depart="25375.00" departLane="22917421#3_0" departPos="4.40" departSpeed="0.00" departDelay="0.00" arrival="25409.00" arrivalLane="186623965#17_0" arrivalPos="143.63" arrivalSpeed="12.85" duration="34.00" routeLength="257.42" waitingTime="0.00" waitingCount="0" stopTime="0.00" timeLoss="10.40" rerouteNo="0" devices="tripinfo_142307_415_0 routing_142307_415_0" vType="pkw" speedFactor="1.01" vaporized=""/>
    <tripinfo id="157954_421_0" depart="25388.00" departLane="22917421#3_0" departPos="4.40" departSpeed="0.00" departDelay="0.00" arrival="25414.00" arrivalLane="186623965#17_0" arrivalPos="143.63" arrivalSpeed="14.56" duration="26.00" routeLength="257.42" waitingTime="0.00" waitingCount="0" stopTime="0.00" timeLoss="4.22" rerouteNo="0" devices="tripinfo_157954_421_0 routing_157954_421_0" vType="pkw" speedFactor="1.08" vaporized=""/>
    <tripinfo id="124742_406_0" depart="25237.00" departLane="22917421#3_0" departPos="4.40" departSpeed="0.00" departDelay="1.00" arrival="25421.00" arrivalLane="28675493_0" arrivalPos="90.85" arrivalSpeed="12.20" duration="184.00" routeLength="1141.94" waitingTime="67.00" waitingCount="2" stopTime="0.00" timeLoss="89.84" rerouteNo="1" devices="tripinfo_124742_406_0 routing_124742_406_0" vType="pkw" speedFactor="0.92" vaporized=""/>
    <tripinfo id="139530_413_0" depart="25383.00" departLane="186623965#9_0" departPos="4.40" departSpeed="0.00" departDelay="0.00" arrival="25426.00" arrivalLane="42925825#0_0" arrivalPos="254.17" arrivalSpeed="12.67" duration="43.00" routeLength="418.48" waitingTime="2.00" waitingCount="1" stopTime="0.00" timeLoss="10.82" rerouteNo="0" devices="tripinfo_139530_413_0 routing_139530_413_0" vType="pkw" speedFactor="0.94" vaporized=""/>
    <tripinfo id="83049_390_0" depart="25408.00" departLane="-4936412_0" departPos="4.40" departSpeed="0.00" departDelay="0.00" arrival="25428.00" arrivalLane="8716827#0_0" arrivalPos="109.12" arrivalSpeed="7.61" duration="20.00" routeLength="148.59" waitingTime="0.00" waitingCount="0" stopTime="0.00" timeLoss="4.16" rerouteNo="0" devices="tripinfo_83049_390_0 routing_83049_390_0" vType="pkw" speedFactor="1.06" vaporized=""/>
    <tripinfo id="67978_381_0" depart="25412.00" departLane="-4936412_0" departPos="4.40" departSpeed="0.00" departDelay="0.00" arrival="25431.00" arrivalLane="8716827#0_0" arrivalPos="109.12" arrivalSpeed="8.77" duration="19.00" routeLength="148.59" waitingTime="0.00" waitingCount="0" stopTime="0.00" timeLoss="4.44" rerouteNo="0" devices="tripinfo_67978_381_0 routing_67978_381_0" vType="pkw" speedFactor="1.16" vaporized=""/>
    <tripinfo id="152801_419_0" depart="25299.00" departLane="-297047307_0" departPos="4.40" departSpeed="0.00" departDelay="0.00" arrival="25432.00" arrivalLane="297047309#0_0" arrivalPos="91.17" arrivalSpeed="12.75" duration="133.00" routeLength="439.92" waitingTime="86.00" waitingCount="1" stopTime="0.00" timeLoss="98.96" rerouteNo="1" devices="tripinfo_152801_419_0 routing_152801_419_0" vType="pkw" speedFactor="0.95" vaporized=""/>
    <tripinfo id="154420_420_0" depart="25411.00" departLane="22917421#3_0" departPos="4.40" departSpeed="0.00" departDelay="0.00" arrival="25439.00" arrivalLane="186623965#17_0" arrivalPos="143.63" arrivalSpeed="12.31" duration="28.00" routeLength="257.42" waitingTime="0.00" waitingCount="0" stopTime="0.00" timeLoss="3.67" rerouteNo="0" devices="tripinfo_154420_420_0 routing_154420_420_0" vType="pkw" speedFactor="0.98" vaporized=""/>
    <tripinfo id="157572_421_0" depart="25303.00" departLane="23283470#0_0" departPos="4.40" departSpeed="0.00" departDelay="0.00" arrival="25442.00" arrivalLane="323416262_0" arrivalPos="87.54" arrivalSpeed="14.15" duration="139.00" routeLength="994.79" waitingTime="35.00" waitingCount="1" stopTime="0.00" timeLoss="51.41" rerouteNo="1" devices="tripinfo_157572_421_0 routing_157572_421_0" vType="pkw" speedFactor="1.07" vaporized=""/>
    <tripinfo id="179907_430_0" depart="25383.00" departLane="23283470#0_0" departPos="4.40" departSpeed="0.00" departDelay="0.00" arrival="25443.00" arrivalLane="23283579#1_0" arrivalPos="22.22" arrivalSpeed="15.01" duration="60.00" routeLength="531.05" waitingTime="0.00" waitingCount="0" stopTime="0.00" timeLoss="10.43" rerouteNo="1" devices="tripinfo_179907_430_0 routing_179907_430_0" vType="pkw" speedFactor="1.11" vaporized=""/>
    <tripinfo id="154646_420_0" depart="25419.00" departLane="25166682#0_0" departPos="4.40" departSpeed="0.00" departDelay="0.00" arrival="25447.00" arrivalLane="323450710#0_0" arrivalPos="95.59" arrivalSpeed="12.03" duration="28.00" routeLength="289.69" waitingTime="0.00" waitingCount="0" stopTime="0.00" timeLoss="5.52" rerouteNo="1" devices="tripinfo_154646_420_0 routing_154646_420_0" vType="pkw" speedFactor="0.93" vaporized=""/>
    <tripinfo id="158136_421_0" depart="25240.00" departLane="28675510#1_0" departPos="4.40" departSpeed="0.00" departDelay="0.00" arrival="25450.00" arrivalLane="323416262_0" arrivalPos="87.54" arrivalSpeed="11.55" duration="210.00" routeLength="1126.93" waitingTime="72.00" waitingCount="2" stopTime="0.00" timeLoss="93.81" rerouteNo="1" devices="tripinfo_158136_421_0 routing_158136_421_0" vType="pkw" speedFactor="0.90" vaporized=""/>
    <tripinfo id="122677_406_0" depart="25441.00" departLane="-4936412_0" departPos="4.40" departSpeed="0.00" departDelay="0.00" arrival="25464.00" arrivalLane="8716827#0_0" arrivalPos="109.12" arrivalSpeed="6.37" duration="23.00" routeLength="148.59" waitingTime="0.00" waitingCount="0" stopTime="0.00" timeLoss="4.11" rerouteNo="0" devices="tripinfo_122677_406_0 routing_122677_406_0" vType="pkw" speedFactor="0.87" vaporized=""/>
    <tripinfo id="150411_418_0" depart="25329.00" departLane="22917421#3_0" departPos="4.40" departSpeed="0.00" departDelay="0.00" arrival="25466.00" arrivalLane="23840972_0" arrivalPos="97.66" arrivalSpeed="6.97" duration="137.00" routeLength="954.69" waitingTime="4.00" waitingCount="1" stopTime="0.00" timeLoss="21.27" rerouteNo="1" devices="tripinfo_150411_418_0 routing_150411_418_0" vType="pkw" speedFactor="0.95" vaporized=""/>
    <tripinfo id="150535_418_0" depart="25444.00" departLane="22917421#3_0" departPos="4.40" departSpeed="0.00" departDelay="0.00" arrival="25468.00" arrivalLane="186623965#17_0" arrivalPos="143.63" arrivalSpeed="15.65" duration="24.00" routeLength="257.42" waitingTime="0.00" waitingCount="0" stopTime="0.00" timeLoss="3.35" rerouteNo="0" devices="tripinfo_150535_418_0 routing_150535_418_0" vType="pkw" speedFactor="1.13" vaporized=""/>
    <tripinfo id="167565_425_0" depart="25382.00" departLane="-25166682#0_0" departPos="4.40" departSpeed="0.00" departDelay="0.00" arrival="25472.00" arrivalLane="23283579#1_0" arrivalPos="22.22" arrivalSpeed="14.91" duration="90.00" routeLength="874.92" waitingTime="0.00" waitingCount="0" stopTime="0.00" timeLoss="13.73" rerouteNo="1" devices="tripinfo_167565_425_0 routing_167565_425_0" vType="pkw" speedFactor="1.09" vaporized=""/>
    <tripinfo id="166238_424_0" depart="25449.00" departLane="42925825#0_0" departPos="4.40" departSpeed="0.00" departDelay="0.00" arrival="25473.00" arrivalLane="42925825#0_0" arrivalPos="254.17" arrivalSpeed="12.51" duration="24.00" routeLength="249.77" waitingTime="0.00" waitingCount="0" stopTime="0.00" timeLoss="4.33" rerouteNo="1" devices="tripinfo_166238_424_0 routing_166238_424_0" vType="pkw" speedFactor="0.93" vaporized=""/>
    <tripinfo id="149422_417_0" depart="25311.00" departLane="22917421#3_0" departPos="4.40" departSpeed="0.00" departDelay="1.00" arrival="25477.00" arrivalLane="-23840935_0" arrivalPos="84.89" arrivalSpeed="7.53" duration="166.00" routeLength="1270.70" waitingTime="0.00" waitingCount="0" stopTime="0.00" timeLoss="17.18" rerouteNo="1" devices="tripinfo_149422_417_0 routing_149422_417_0" vType="pkw" speedFactor="0.99" vaporized=""/>
    <tripinfo id="171631_426_0" depart="25415.00" departLane="23283470#0_0" departPos="4.40" departSpeed="0.00" departDelay="0.00" arrival="25477.00" arrivalLane="23283579#1_0" arrivalPos="22.22" arrivalSpeed="13.84" duration="62.00" routeLength="531.05" waitingTime="0.00" waitingCount="0" stopTime="0.00" timeLoss="8.91" rerouteNo="1" devices="tripinfo_171631_426_0 routing_171631_426_0" vType="pkw" speedFactor="1.03" vaporized=""/>
    <tripinfo id="148727_417_0" depart="25479.00" departLane="23283579#1_0" departPos="4.40" departSpeed="0.00" departDelay="0.00" arrival="25483.00" arrivalLane="23283579#1_0" arrivalPos="22.22" arrivalSpeed="7.88" duration="4.00" routeLength="17.82" waitingTime="0.00" waitingCount="0" stopTime="0.00" timeLoss="2.70" rerouteNo="1" devices="tripinfo_148727_417_0 routing_148727_417_0" vType="pkw" speedFactor="1.06" vaporized=""/>
    <tripinfo id="109384_401_0" depart="25386.00" departLane="186623965#9_0" departPos="4.40" departSpeed="0.00" departDelay="0.00" arrival="25484.00" arrivalLane="323450710#0_0" arrivalPos="95.59" arrivalSpeed="14.27" duration="98.00" routeLength="1132.81" waitingTime="5.00" waitingCount="2" stopTime="0.00" timeLoss="21.40" rerouteNo="1" devices="tripinfo_109384_401_0 routing_109384_401_0" vType="pkw" speedFactor="1.07" vaporized=""/>
    <tripinfo id="122140_406_0" depart="25244.00" departLane="22917421#3_0" departPos="4.40" departSpeed="0.00" departDelay="0.00" arrival="25487.00" arrivalLane="23648008#2_0" arrivalPos="175.60" arrivalSpeed="14.85" duration="243.00" routeLength="1356.05" waitingTime="114.00" waitingCount="3" stopTime="0.00" timeLoss="152.80" rerouteNo="1" devices="tripinfo_122140_406_0 routing_122140_406_0" vType="pkw" speedFactor="1.14" vaporized=""/>
    <tripinfo id="151819_419_0" depart="25464.00" departLane="22917421#3_0" departPos="4.40" departSpeed="0.00" departDelay="0.00" arrival="25488.00" arrivalLane="186623965#17_0" arrivalPos="143.63" arrivalSpeed="15.82" duration="24.00" routeLength="257.42" waitingTime="0.00" waitingCount="0" stopTime="0.00" timeLoss="3.52" rerouteNo="0" devices="tripinfo_151819_419_0 routing_151819_419_0" vType="pkw" speedFactor="1.15" vaporized=""/>
    <tripinfo id="139487_413_0" depart="25456.00" departLane="-4936412_0" departPos="4.40" departSpeed="0.00" departDelay="0.00" arrival="25489.00" arrivalLane="8716827#0_0" arrivalPos="109.12" arrivalSpeed="7.28" duration="33.00" routeLength="148.59" waitingTime="8.00" waitingCount="1" stopTime="0.00" timeLoss="16.20" rerouteNo="0" devices="tripinfo_139487_413_0 routing_139487_413_0" vType="pkw" speedFactor="0.97" vaporized=""/>
    <tripinfo id="156503_420_0" depart="25472.00" departLane="297047308_0" departPos="4.40" departSpeed="0.00" departDelay="0.00" arrival="25492.00" arrivalLane="297047309#0_0" arrivalPos="91.17" arrivalSpeed="13.05" duration="20.00" routeLength="211.14" waitingTime="0.00" waitingCount="0" stopTime="0.00" timeLoss="3.43" rerouteNo="1" devices="tripinfo_156503_420_0 routing_156503_420_0" vType="pkw" speedFactor="0.95" vaporized=""/>
    <tripinfo id="148577_417_0" depart="25457.00" departLane="186623965#9_0" departPos="4.40" departSpeed="0.00" departDelay="0.00" arrival="25493.00" arrivalLane="42925825#0_0" arrivalPos="254.17" arrivalSpeed="11.96" duration="36.00" routeLength="418.48" waitingTime="0.00" waitingCount="0" stopTime="0.00" timeLoss="4.11" rerouteNo="0" devices="tripinfo_148577_417_0 routing_148577_417_0" vType="pkw" speedFactor="0.95" vaporized=""/>
    <tripinfo id="136088_411_0" depart="25475.00" departLane="-4936412_0" departPos="4.40" departSpeed="0.00" departDelay="0.00" arrival="25494.00" arrivalLane="8716827#0_0" arrivalPos="109.12" arrivalSpeed="8.83" duration="19.00" routeLength="148.59" waitingTime="0.00" waitingCount="0" stopTime="0.00" timeLoss="4.20" rerouteNo="0" devices="tripinfo_136088_411_0 routing_136088_411_0" vType="pkw" speedFactor="1.14" vaporized=""/>
    <tripinfo id="134167_411_0" depart="25211.00" departLane="-23283579#1_0" departPos="4.40" departSpeed="0.00" departDelay="0.00" arrival="25501.00" arrivalLane="-186623965#14_0" arrivalPos="159.69" arrivalSpeed="12.91" duration="290.00" routeLength="1526.65" waitingTime="110.00" waitingCount="3" stopTime="0.00" timeLoss="155.29" rerouteNo="1" devices="tripinfo_134167_411_0 routing_134167_411_0" vType="pkw" speedFactor="0.96" vaporized=""/>
    <tripinfo id="160358_421_0" depart="25213.00" departLane="-23283579#1_0" departPos="4.40" departSpeed="0.00" departDelay="0.00" arrival="25502.00" arrivalLane="-186623965#14_0" arrivalPos="159.69" arrivalSpeed="12.81" duration="289.00" routeLength="1526.65" waitingTime="106.00" waitingCount="3" stopTime="0.00" timeLoss="153.66" rerouteNo="1" devices="tripinfo_160358_421_0 routing_160358_421_0" vType="pkw" speedFactor="0.95" vaporized=""/>
    <tripinfo id="173519_427_0" depart="25477.00" departLane="22917421#3_0" departPos="4.40" departSpeed="0.00" departDelay="0.00" arrival="25505.00" arrivalLane="186623965#17_0" arrivalPos="143.63" arrivalSpeed="13.53" duration="28.00" routeLength="257.42" waitingTime="0.00" waitingCount="0" stopTime="0.00" timeLoss="3.72" rerouteNo="0" devices="tripinfo_173519_427_0 routing_173519_427_0" vType="pkw" speedFactor="0.99" vaporized=""/>
    <tripinfo id="175131_428_0" depart="25328.00" departLane="23840713#2_0" departPos="4.40" departSpeed="0.00" departDelay="0.00" arrival="25506.00" arrivalLane="42925825#0_0" arrivalPos="254.17" arrivalSpeed="13.64" duration="178.00" routeLength="1254.72" waitingTime="53.00" waitingCount="1" stopTime="0.00" timeLoss="68.91" rerouteNo="1" devices="tripinfo_175131_428_0 routing_175131_428_0" vType="pkw" speedFactor="0.99" vaporized=""/>