<?xml version="1.0" encoding="UTF-8"?>

<!-- generated on 2023-08-31 14:22:43 by Eclipse SUMO libsumo Version 1.18.0
<configuration xmlns:xsi="http://www.w3.org/2001/XMLSchema-instance" xsi:noNamespaceSchemaLocation="http://sumo.dlr.de/xsd/libsumoConfiguration.xsd">

    <input>
        <net-file value="/home/stefan/RESCO/./environments/cologne8/cologne8.net.xml"/>
        <route-files value="/home/stefan/RESCO/./environments/cologne8/cologne8.rou.xml"/>
    </input>

    <output>
        <tripinfo-output value="/home/stefan/results/RAINBOW-tr0-cologne8-0-drq_norm-wait_norm/tripinfo_62.xml"/>
        <tripinfo-output.write-unfinished value="true"/>
    </output>

    <time>
        <begin value="25200"/>
        <end value="28800"/>
    </time>

    <processing>
        <time-to-teleport value="-1"/>
    </processing>

    <report>
        <no-warnings value="True"/>
        <no-step-log value="True"/>
    </report>

    <random_number>
        <random value="true"/>
    </random_number>

</configuration>
-->

<tripinfos xmlns:xsi="http://www.w3.org/2001/XMLSchema-instance" xsi:noNamespaceSchemaLocation="http://sumo.dlr.de/xsd/tripinfo_file.xsd">
    <tripinfo id="142890_415_0" depart="25218.00" departLane="-23283579#1_0" departPos="4.40" departSpeed="0.00" departDelay="0.00" arrival="25226.00" arrivalLane="23283579#1_0" arrivalPos="22.22" arrivalSpeed="13.09" duration="8.00" routeLength="44.72" waitingTime="0.00" waitingCount="0" stopTime="0.00" timeLoss="3.73" rerouteNo="0" devices="tripinfo_142890_415_0 routing_142890_415_0" vType="pkw" speedFactor="0.97" vaporized=""/>
    <tripinfo id="155570_420_0" depart="25200.00" departLane="-28675510#11_0" departPos="4.40" departSpeed="0.00" departDelay="0.00" arrival="25244.00" arrivalLane="28675510#7_0" arrivalPos="257.94" arrivalSpeed="13.25" duration="44.00" routeLength="516.12" waitingTime="0.00" waitingCount="0" stopTime="0.00" timeLoss="4.99" rerouteNo="0" devices="tripinfo_155570_420_0 routing_155570_420_0" vType="pkw" speedFactor="0.97" vaporized=""/>
    <tripinfo id="134603_411_0" depart="25206.00" departLane="-28675510#11_0" departPos="4.40" departSpeed="0.00" departDelay="0.00" arrival="25246.00" arrivalLane="28675510#7_0" arrivalPos="257.94" arrivalSpeed="13.56" duration="40.00" routeLength="516.12" waitingTime="0.00" waitingCount="0" stopTime="0.00" timeLoss="4.45" rerouteNo="0" devices="tripinfo_134603_411_0 routing_134603_411_0" vType="pkw" speedFactor="1.05" vaporized=""/>
    <tripinfo id="114597_403_0" depart="25201.00" departLane="22917421#3_0" departPos="4.40" departSpeed="0.00" departDelay="0.00" arrival="25247.00" arrivalLane="-186623965#14_0" arrivalPos="159.69" arrivalSpeed="13.86" duration="46.00" routeLength="476.78" waitingTime="0.00" waitingCount="0" stopTime="0.00" timeLoss="7.50" rerouteNo="1" devices="tripinfo_114597_403_0 routing_114597_403_0" vType="pkw" speedFactor="1.02" vaporized=""/>
    <tripinfo id="140143_414_0" depart="25212.00" departLane="-28675510#11_0" departPos="4.40" departSpeed="0.00" departDelay="2.00" arrival="25253.00" arrivalLane="28675510#7_0" arrivalPos="257.94" arrivalSpeed="16.45" duration="41.00" routeLength="516.12" waitingTime="0.00" waitingCount="0" stopTime="0.00" timeLoss="8.81" rerouteNo="0" devices="tripinfo_140143_414_0 routing_140143_414_0" vType="pkw" speedFactor="1.19" vaporized=""/>
    <tripinfo id="138070_412_0" depart="25229.00" departLane="22917421#3_0" departPos="4.40" departSpeed="0.00" departDelay="0.00" arrival="25254.00" arrivalLane="186623965#17_0" arrivalPos="143.63" arrivalSpeed="15.48" duration="25.00" routeLength="257.42" waitingTime="0.00" waitingCount="0" stopTime="0.00" timeLoss="3.51" rerouteNo="0" devices="tripinfo_138070_412_0 routing_138070_412_0" vType="pkw" speedFactor="1.12" vaporized=""/>
    <tripinfo id="153496_420_0" depart="25232.00" departLane="22917421#3_0" departPos="4.40" departSpeed="0.00" departDelay="0.00" arrival="25259.00" arrivalLane="186623965#17_0" arrivalPos="143.63" arrivalSpeed="12.67" duration="27.00" routeLength="257.42" waitingTime="0.00" waitingCount="0" stopTime="0.00" timeLoss="3.24" rerouteNo="0" devices="tripinfo_153496_420_0 routing_153496_420_0" vType="pkw" speedFactor="0.99" vaporized=""/>
    <tripinfo id="119181_405_0" depart="25226.00" departLane="186623965#9_0" departPos="4.40" departSpeed="0.00" departDelay="0.00" arrival="25260.00" arrivalLane="42925825#0_0" arrivalPos="254.17" arrivalSpeed="13.87" duration="34.00" routeLength="418.48" waitingTime="0.00" waitingCount="0" stopTime="0.00" timeLoss="4.90" rerouteNo="0" devices="tripinfo_119181_405_0 routing_119181_405_0" vType="pkw" speedFactor="1.06" vaporized=""/>
    <tripinfo id="133416_410_0" depart="25229.00" departLane="186623965#9_0" departPos="4.40" departSpeed="0.00" departDelay="1.00" arrival="25261.00" arrivalLane="42925825#0_0" arrivalPos="254.17" arrivalSpeed="14.60" duration="32.00" routeLength="418.48" waitingTime="0.00" waitingCount="0" stopTime="0.00" timeLoss="5.05" rerouteNo="0" devices="tripinfo_133416_410_0 routing_133416_410_0" vType="pkw" speedFactor="1.12" vaporized=""/>
    <tripinfo id="155353_420_0" depart="25234.00" departLane="22917421#3_0" departPos="4.40" departSpeed="0.00" departDelay="0.00" arrival="25261.00" arrivalLane="186623965#17_0" arrivalPos="143.63" arrivalSpeed="13.85" duration="27.00" routeLength="257.42" waitingTime="0.00" waitingCount="0" stopTime="0.00" timeLoss="4.54" rerouteNo="0" devices="tripinfo_155353_420_0 routing_155353_420_0" vType="pkw" speedFactor="1.07" vaporized=""/>
    <tripinfo id="137312_412_0" depart="25200.00" departLane="-23283579#1_0" departPos="4.40" departSpeed="0.00" departDelay="0.00" arrival="25262.00" arrivalLane="23283436_0" arrivalPos="65.76" arrivalSpeed="12.10" duration="62.00" routeLength="404.67" waitingTime="19.00" waitingCount="1" stopTime="0.00" timeLoss="27.99" rerouteNo="1" devices="tripinfo_137312_412_0 routing_137312_412_0" vType="pkw" speedFactor="0.88" vaporized=""/>
    <tripinfo id="135663_411_0" depart="25217.00" departLane="-28675510#11_0" departPos="4.40" departSpeed="0.00" departDelay="3.00" arrival="25268.00" arrivalLane="28675510#7_0" arrivalPos="257.94" arrivalSpeed="12.82" duration="51.00" routeLength="516.12" waitingTime="0.00" waitingCount="0" stopTime="0.00" timeLoss="11.13" rerouteNo="0" devices="tripinfo_135663_411_0 routing_135663_411_0" vType="pkw" speedFactor="0.94" vaporized=""/>
    <tripinfo id="149045_417_0" depart="25219.00" departLane="-28675510#11_0" departPos="4.40" departSpeed="0.00" departDelay="2.00" arrival="25270.00" arrivalLane="28675510#7_0" arrivalPos="257.94" arrivalSpeed="13.21" duration="51.00" routeLength="516.12" waitingTime="0.00" waitingCount="0" stopTime="0.00" timeLoss="12.38" rerouteNo="0" devices="tripinfo_149045_417_0 routing_149045_417_0" vType="pkw" speedFactor="0.98" vaporized=""/>
    <tripinfo id="118788_405_0" depart="25247.00" departLane="22917421#3_0" departPos="4.40" departSpeed="0.00" departDelay="0.00" arrival="25275.00" arrivalLane="186623965#17_0" arrivalPos="143.63" arrivalSpeed="12.62" duration="28.00" routeLength="257.42" waitingTime="0.00" waitingCount="0" stopTime="0.00" timeLoss="3.65" rerouteNo="0" devices="tripinfo_118788_405_0 routing_118788_405_0" vType="pkw" speedFactor="0.96" vaporized=""/>
    <tripinfo id="144617_416_0" depart="25256.00" departLane="22917421#3_0" departPos="4.40" departSpeed="0.00" departDelay="0.00" arrival="25283.00" arrivalLane="186623965#17_0" arrivalPos="143.63" arrivalSpeed="13.82" duration="27.00" routeLength="257.42" waitingTime="0.00" waitingCount="0" stopTime="0.00" timeLoss="4.12" rerouteNo="0" devices="tripinfo_144617_416_0 routing_144617_416_0" vType="pkw" speedFactor="1.02" vaporized=""/>
    <tripinfo id="113370_402_0" depart="25249.00" departLane="186623965#9_0" departPos="4.40" departSpeed="0.00" departDelay="0.00" arrival="25285.00" arrivalLane="42925825#0_0" arrivalPos="254.17" arrivalSpeed="13.22" duration="36.00" routeLength="418.48" waitingTime="0.00" waitingCount="0" stopTime="0.00" timeLoss="5.21" rerouteNo="0" devices="tripinfo_113370_402_0 routing_113370_402_0" vType="pkw" speedFactor="1.01" vaporized=""/>
    <tripinfo id="134428_411_0" depart="25237.00" departLane="-28675510#11_0" departPos="4.40" departSpeed="0.00" departDelay="0.00" arrival="25289.00" arrivalLane="28675510#7_0" arrivalPos="257.94" arrivalSpeed="12.99" duration="52.00" routeLength="516.12" waitingTime="4.00" waitingCount="1" stopTime="0.00" timeLoss="14.96" rerouteNo="0" devices="tripinfo_134428_411_0 routing_134428_411_0" vType="pkw" speedFactor="1.02" vaporized=""/>
    <tripinfo id="76230_386_0" depart="25204.00" departLane="-23283579#1_0" departPos="4.40" departSpeed="0.00" departDelay="0.00" arrival="25292.00" arrivalLane="297047309#0_0" arrivalPos="91.17" arrivalSpeed="14.47" duration="88.00" routeLength="656.20" waitingTime="18.00" waitingCount="1" stopTime="0.00" timeLoss="29.64" rerouteNo="1" devices="tripinfo_76230_386_0 routing_76230_386_0" vType="pkw" speedFactor="1.13" vaporized=""/>
    <tripinfo id="111571_401_0" depart="25267.00" departLane="-353069169#0_0" departPos="4.40" departSpeed="0.00" departDelay="0.00" arrival="25293.00" arrivalLane="24487264_0" arrivalPos="166.35" arrivalSpeed="13.81" duration="26.00" routeLength="286.19" waitingTime="0.00" waitingCount="0" stopTime="0.00" timeLoss="5.35" rerouteNo="1" devices="tripinfo_111571_401_0 routing_111571_401_0" vType="pkw" speedFactor="1.08" vaporized=""/>
    <tripinfo id="145282_416_0" depart="25259.00" departLane="186623965#9_0" departPos="4.40" departSpeed="0.00" departDelay="0.00" arrival="25294.00" arrivalLane="42925825#0_0" arrivalPos="254.17" arrivalSpeed="13.68" duration="35.00" routeLength="418.48" waitingTime="0.00" waitingCount="0" stopTime="0.00" timeLoss="5.62" rerouteNo="0" devices="tripinfo_145282_416_0 routing_145282_416_0" vType="pkw" speedFactor="1.05" vaporized=""/>
    <tripinfo id="140525_414_0" depart="25221.00" departLane="186623965#9_0" departPos="4.40" departSpeed="0.00" departDelay="0.00" arrival="25299.00" arrivalLane="186623965#17_0" arrivalPos="143.63" arrivalSpeed="12.53" duration="78.00" routeLength="527.61" waitingTime="27.00" waitingCount="1" stopTime="0.00" timeLoss="36.85" rerouteNo="1" devices="tripinfo_140525_414_0 routing_140525_414_0" vType="pkw" speedFactor="0.93" vaporized=""/>
    <tripinfo id="137959_412_0" depart="25209.00" departLane="-186623965#18_0" departPos="4.40" departSpeed="0.00" departDelay="0.00" arrival="25304.00" arrivalLane="-22917421#4_0" arrivalPos="96.26" arrivalSpeed="7.95" duration="95.00" routeLength="263.02" waitingTime="58.00" waitingCount="2" stopTime="0.00" timeLoss="69.20" rerouteNo="0" devices="tripinfo_137959_412_0 routing_137959_412_0" vType="pkw" speedFactor="0.96" vaporized=""/>
    <tripinfo id="166162_424_0" depart="25233.00" departLane="22959550#0_0" departPos="4.40" departSpeed="0.00" departDelay="0.00" arrival="25311.00" arrivalLane="28675510#7_0" arrivalPos="257.94" arrivalSpeed="16.95" duration="78.00" routeLength="903.30" waitingTime="0.00" waitingCount="0" stopTime="0.00" timeLoss="8.88" rerouteNo="1" devices="tripinfo_166162_424_0 routing_166162_424_0" vType="pkw" speedFactor="1.23" vaporized=""/>
    <tripinfo id="150593_418_0" depart="25297.00" departLane="22959552#0_0" departPos="4.40" departSpeed="0.00" departDelay="0.00" arrival="25312.00" arrivalLane="22959552#0_0" arrivalPos="91.39" arrivalSpeed="6.42" duration="15.00" routeLength="86.99" waitingTime="0.00" waitingCount="0" stopTime="0.00" timeLoss="2.25" rerouteNo="1" devices="tripinfo_150593_418_0 routing_150593_418_0" vType="pkw" speedFactor="0.85" vaporized=""/>
    <tripinfo id="163043_422_0" depart="25214.00" departLane="-28675510#11_0" departPos="4.40" departSpeed="0.00" departDelay="2.00" arrival="25315.00" arrivalLane="8716827#0_0" arrivalPos="109.12" arrivalSpeed="8.50" duration="101.00" routeLength="1154.53" waitingTime="3.00" waitingCount="1" stopTime="0.00" timeLoss="17.68" rerouteNo="1" devices="tripinfo_163043_422_0 routing_163043_422_0" vType="pkw" speedFactor="1.08" vaporized=""/>
    <tripinfo id="162497_421_0" depart="25273.00" departLane="22917421#3_0" departPos="4.40" departSpeed="0.00" departDelay="0.00" arrival="25315.00" arrivalLane="186623965#17_0" arrivalPos="143.63" arrivalSpeed="11.79" duration="42.00" routeLength="257.42" waitingTime="9.00" waitingCount="1" stopTime="0.00" timeLoss="16.24" rerouteNo="0" devices="tripinfo_162497_421_0 routing_162497_421_0" vType="pkw" speedFactor="0.92" vaporized=""/>
    <tripinfo id="110248_401_0" depart="25206.00" departLane="-23283579#1_0" departPos="4.40" departSpeed="0.00" departDelay="0.00" arrival="25317.00" arrivalLane="297047309#0_0" arrivalPos="91.17" arrivalSpeed="11.69" duration="111.00" routeLength="656.20" waitingTime="19.00" waitingCount="3" stopTime="0.00" timeLoss="35.42" rerouteNo="1" devices="tripinfo_110248_401_0 routing_110248_401_0" vType="pkw" speedFactor="0.88" vaporized=""/>
    <tripinfo id="131071_409_0" depart="25236.00" departLane="-186623965#18_0" departPos="4.40" departSpeed="0.00" departDelay="0.00" arrival="25317.00" arrivalLane="42925825#0_0" arrivalPos="254.17" arrivalSpeed="16.63" duration="81.00" routeLength="625.62" waitingTime="28.00" waitingCount="2" stopTime="0.00" timeLoss="45.25" rerouteNo="1" devices="tripinfo_131071_409_0 routing_131071_409_0" vType="pkw" speedFactor="1.28" vaporized=""/>
    <tripinfo id="161942_421_0" depart="25233.00" departLane="-42925825#2_0" departPos="4.40" departSpeed="0.00" departDelay="0.00" arrival="25325.00" arrivalLane="42925825#0_0" arrivalPos="254.17" arrivalSpeed="13.31" duration="92.00" routeLength="508.64" waitingTime="45.00" waitingCount="1" stopTime="0.00" timeLoss="55.52" rerouteNo="0" devices="tripinfo_161942_421_0 routing_161942_421_0" vType="pkw" speedFactor="1.01" vaporized=""/>
    <tripinfo id="131243_409_0" depart="25248.00" departLane="-186623965#18_0" departPos="4.40" departSpeed="0.00" departDelay="0.00" arrival="25330.00" arrivalLane="-186623965#14_0" arrivalPos="159.69" arrivalSpeed="11.20" duration="82.00" routeLength="528.65" waitingTime="21.00" waitingCount="2" stopTime="0.00" timeLoss="38.32" rerouteNo="1" devices="tripinfo_131243_409_0 routing_131243_409_0" vType="pkw" speedFactor="0.88" vaporized=""/>
    <tripinfo id="141355_415_0" depart="25232.00" departLane="-186623965#18_0" departPos="4.40" departSpeed="0.00" departDelay="0.00" arrival="25332.00" arrivalLane="42925825#0_0" arrivalPos="254.17" arrivalSpeed="12.91" duration="100.00" routeLength="625.62" waitingTime="35.00" waitingCount="1" stopTime="0.00" timeLoss="55.25" rerouteNo="1" devices="tripinfo_141355_415_0 routing_141355_415_0" vType="pkw" speedFactor="1.02" vaporized=""/>
    <tripinfo id="152887_419_0" depart="25229.00" departLane="-28675510#11_0" departPos="4.40" departSpeed="0.00" departDelay="0.00" arrival="25336.00" arrivalLane="8716827#0_0" arrivalPos="109.12" arrivalSpeed="7.86" duration="107.00" routeLength="1154.53" waitingTime="6.00" waitingCount="1" stopTime="0.00" timeLoss="23.08" rerouteNo="1" devices="tripinfo_152887_419_0 routing_152887_419_0" vType="pkw" speedFactor="1.07" vaporized=""/>
    <tripinfo id="145512_416_0" depart="25308.00" departLane="22917421#3_0" departPos="4.40" departSpeed="0.00" departDelay="0.00" arrival="25337.00" arrivalLane="186623965#17_0" arrivalPos="143.63" arrivalSpeed="12.14" duration="29.00" routeLength="257.42" waitingTime="0.00" waitingCount="0" stopTime="0.00" timeLoss="3.60" rerouteNo="0" devices="tripinfo_145512_416_0 routing_145512_416_0" vType="pkw" speedFactor="0.93" vaporized=""/>
    <tripinfo id="171184_426_0" depart="25326.00" departLane="133081987#0_0" departPos="4.40" departSpeed="0.00" departDelay="0.00" arrival="25343.00" arrivalLane="23283436_0" arrivalPos="65.76" arrivalSpeed="12.68" duration="17.00" routeLength="154.99" waitingTime="0.00" waitingCount="0" stopTime="0.00" timeLoss="5.51" rerouteNo="0" devices="tripinfo_171184_426_0 routing_171184_426_0" vType="pkw" speedFactor="0.98" vaporized=""/>
    <tripinfo id="158885_421_0" depart="25220.00" departLane="22917421#3_0" departPos="4.40" departSpeed="0.00" departDelay="0.00" arrival="25349.00" arrivalLane="28675510#7_0" arrivalPos="257.94" arrivalSpeed="12.35" duration="129.00" routeLength="937.03" waitingTime="3.00" waitingCount="1" stopTime="0.00" timeLoss="18.14" rerouteNo="1" devices="tripinfo_158885_421_0 routing_158885_421_0" vType="pkw" speedFactor="0.90" vaporized=""/>
    <tripinfo id="166776_424_0" depart="25209.00" departLane="-28675510#11_0" departPos="4.40" departSpeed="0.00" departDelay="1.00" arrival="25359.00" arrivalLane="-186623965#14_0" arrivalPos="159.69" arrivalSpeed="11.85" duration="150.00" routeLength="1202.17" waitingTime="8.00" waitingCount="1" stopTime="0.00" timeLoss="25.15" rerouteNo="1" devices="tripinfo_166776_424_0 routing_166776_424_0" vType="pkw" speedFactor="0.91" vaporized=""/>
    <tripinfo id="140363_414_0" depart="25313.00" departLane="22917421#3_0" departPos="4.40" departSpeed="0.00" departDelay="0.00" arrival="25359.00" arrivalLane="-186623965#14_1" arrivalPos="159.69" arrivalSpeed="12.72" duration="46.00" routeLength="476.78" waitingTime="0.00" waitingCount="0" stopTime="0.00" timeLoss="4.99" rerouteNo="1" devices="tripinfo_140363_414_0 routing_140363_414_0" vType="pkw" speedFactor="0.96" vaporized=""/>
    <tripinfo id="144017_416_0" depart="25348.00" departLane="-353069169#0_0" departPos="4.40" departSpeed="0.00" departDelay="0.00" arrival="25365.00" arrivalLane="323416262_0" arrivalPos="87.54" arrivalSpeed="14.14" duration="17.00" routeLength="175.35" waitingTime="0.00" waitingCount="0" stopTime="0.00" timeLoss="4.29" rerouteNo="0" devices="tripinfo_144017_416_0 routing_144017_416_0" vType="pkw" speedFactor="1.04" vaporized=""/>
    <tripinfo id="138639_413_0" depart="25314.00" departLane="186623965#9_0" departPos="4.40" departSpeed="0.00" departDelay="0.00" arrival="25368.00" arrivalLane="186623965#17_0" arrivalPos="143.63" arrivalSpeed="13.05" duration="54.00" routeLength="527.61" waitingTime="5.00" waitingCount="1" stopTime="0.00" timeLoss="16.15" rerouteNo="1" devices="tripinfo_138639_413_0 routing_138639_413_0" vType="pkw" speedFactor="1.01" vaporized=""/>
    <tripinfo id="127809_407_0" depart="25257.00" departLane="-23283579#1_0" departPos="4.40" departSpeed="0.00" departDelay="0.00" arrival="25373.00" arrivalLane="23285888#0_0" arrivalPos="109.58" arrivalSpeed="7.94" duration="116.00" routeLength="410.95" waitingTime="56.00" waitingCount="1" stopTime="0.00" timeLoss="71.38" rerouteNo="1" devices="tripinfo_127809_407_0 routing_127809_407_0" vType="pkw" speedFactor="1.01" vaporized=""/>
    <tripinfo id="163025_422_0" depart="25246.00" departLane="-28675510#11_0" departPos="4.40" departSpeed="0.00" departDelay="0.00" arrival="25374.00" arrivalLane="8716807#1_0" arrivalPos="110.75" arrivalSpeed="5.87" duration="128.00" routeLength="862.02" waitingTime="21.00" waitingCount="2" stopTime="0.00" timeLoss="39.57" rerouteNo="1" devices="tripinfo_163025_422_0 routing_163025_422_0" vType="pkw" speedFactor="0.83" vaporized=""/>
    <tripinfo id="121484_406_0" depart="25268.00" departLane="-23283579#1_0" departPos="4.40" departSpeed="0.00" departDelay="0.00" arrival="25374.00" arrivalLane="133081987#3_0" arrivalPos="99.94" arrivalSpeed="13.56" duration="106.00" routeLength="434.85" waitingTime="57.00" waitingCount="2" stopTime="0.00" timeLoss="74.80" rerouteNo="1" devices="tripinfo_121484_406_0 routing_121484_406_0" vType="pkw" speedFactor="1.03" vaporized=""/>
    <tripinfo id="163799_422_0" depart="25256.00" departLane="-186623965#18_0" departPos="4.40" departSpeed="0.00" departDelay="1.00" arrival="25376.00" arrivalLane="-22917421#4_0" arrivalPos="96.26" arrivalSpeed="7.35" duration="120.00" routeLength="263.02" waitingTime="72.00" waitingCount="3" stopTime="0.00" timeLoss="94.55" rerouteNo="0" devices="tripinfo_163799_422_0 routing_163799_422_0" vType="pkw" speedFactor="0.98" vaporized=""/>
    <tripinfo id="166783_424_0" depart="25349.00" departLane="22917421#3_0" departPos="4.40" departSpeed="0.00" departDelay="0.00" arrival="25376.00" arrivalLane="186623965#17_0" arrivalPos="143.63" arrivalSpeed="13.00" duration="27.00" routeLength="257.42" waitingTime="0.00" waitingCount="0" stopTime="0.00" timeLoss="3.87" rerouteNo="0" devices="tripinfo_166783_424_0 routing_166783_424_0" vType="pkw" speedFactor="1.01" vaporized=""/>
    <tripinfo id="117517_404_0" depart="25225.00" departLane="-28675510#11_0" departPos="4.40" departSpeed="0.00" departDelay="1.00" arrival="25377.00" arrivalLane="-186623965#14_0" arrivalPos="159.69" arrivalSpeed="15.26" duration="152.00" routeLength="1202.17" waitingTime="6.00" waitingCount="1" stopTime="0.00" timeLoss="52.86" rerouteNo="1" devices="tripinfo_117517_404_0 routing_117517_404_0" vType="pkw" speedFactor="1.14" vaporized=""/>
    <tripinfo id="146111_416_0" depart="25222.00" departLane="-28675510#11_0" departPos="4.40" departSpeed="0.00" departDelay="1.00" arrival="25380.00" arrivalLane="-186623965#14_0" arrivalPos="159.69" arrivalSpeed="11.74" duration="158.00" routeLength="1202.17" waitingTime="5.00" waitingCount="1" stopTime="0.00" timeLoss="30.00" rerouteNo="1" devices="tripinfo_146111_416_0 routing_146111_416_0" vType="pkw" speedFactor="0.89" vaporized=""/>
    <tripinfo id="154212_420_0" depart="25232.00" departLane="-28675510#11_0" departPos="4.40" departSpeed="0.00" departDelay="0.00" arrival="25381.00" arrivalLane="-186623965#14_0" arrivalPos="159.69" arrivalSpeed="13.02" duration="149.00" routeLength="1202.17" waitingTime="9.00" waitingCount="2" stopTime="0.00" timeLoss="34.66" rerouteNo="1" devices="tripinfo_154212_420_0 routing_154212_420_0" vType="pkw" speedFactor="0.99" vaporized=""/>
    <tripinfo id="142950_415_0" depart="25274.00" departLane="-28675510#11_0" departPos="4.40" departSpeed="0.00" departDelay="0.00" arrival="25382.00" arrivalLane="155723703#0_0" arrivalPos="92.60" arrivalSpeed="14.87" duration="108.00" routeLength="1137.50" waitingTime="2.00" waitingCount="1" stopTime="0.00" timeLoss="35.49" rerouteNo="1" devices="tripinfo_142950_415_0 routing_142950_415_0" vType="pkw" speedFactor="1.14" vaporized=""/>
    <tripinfo id="91556_392_0" depart="25271.00" departLane="-23283579#1_0" departPos="4.40" departSpeed="0.00" departDelay="1.00" arrival="25394.00" arrivalLane="23840972_0" arrivalPos="97.66" arrivalSpeed="7.37" duration="123.00" routeLength="525.30" waitingTime="55.00" waitingCount="2" stopTime="0.00" timeLoss="73.96" rerouteNo="1" devices="tripinfo_91556_392_0 routing_91556_392_0" vType="pkw" speedFactor="0.95" vaporized=""/>
    <tripinfo id="161216_421_0" depart="25251.00" departLane="-186623965#18_0" departPos="4.40" departSpeed="0.00" departDelay="3.00" arrival="25396.00" arrivalLane="42925825#0_0" arrivalPos="254.17" arrivalSpeed="11.78" duration="145.00" routeLength="625.62" waitingTime="75.00" waitingCount="3" stopTime="0.00" timeLoss="95.83" rerouteNo="1" devices="tripinfo_161216_421_0 routing_161216_421_0" vType="pkw" speedFactor="0.92" vaporized=""/>
    <tripinfo id="107217_400_0" depart="25283.00" departLane="-28675510#11_0" departPos="4.40" departSpeed="0.00" departDelay="0.00" arrival="25396.00" arrivalLane="-186623965#14_1" arrivalPos="159.69" arrivalSpeed="14.84" duration="113.00" routeLength="1202.17" waitingTime="0.00" waitingCount="0" stopTime="0.00" timeLoss="12.40" rerouteNo="1" devices="tripinfo_107217_400_0 routing_107217_400_0" vType="pkw" speedFactor="1.13" vaporized=""/>
    <tripinfo id="159622_421_0" depart="25254.00" departLane="-186623965#18_0" departPos="4.40" departSpeed="0.00" departDelay="3.00" arrival="25398.00" arrivalLane="42925825#0_0" arrivalPos="254.17" arrivalSpeed="14.87" duration="144.00" routeLength="625.62" waitingTime="70.00" waitingCount="3" stopTime="0.00" timeLoss="102.47" rerouteNo="1" devices="tripinfo_159622_421_0 routing_159622_421_0" vType="pkw" speedFactor="1.11" vaporized=""/>
    <tripinfo id="147744_416_0" depart="25272.00" departLane="-186623965#18_0" departPos="4.40" departSpeed="0.00" departDelay="0.00" arrival="25399.00" arrivalLane="42925825#0_0" arrivalPos="254.17" arrivalSpeed="13.52" duration="127.00" routeLength="625.62" waitingTime="59.00" waitingCount="2" stopTime="0.00" timeLoss="82.94" rerouteNo="1" devices="tripinfo_147744_416_0 routing_147744_416_0" vType="pkw" speedFactor="1.03" vaporized=""/>
    <tripinfo id="164302_422_0" depart="25240.00" departLane="-28675510#11_0" departPos="4.40" departSpeed="0.00" departDelay="0.00" arrival="25400.00" arrivalLane="-186623965#14_0" arrivalPos="159.69" arrivalSpeed="10.89" duration="160.00" routeLength="1202.17" waitingTime="4.00" waitingCount="1" stopTime="0.00" timeLoss="26.56" rerouteNo="1" devices="tripinfo_164302_422_0 routing_164302_422_0" vType="pkw" speedFactor="0.85" vaporized=""/>
    <tripinfo id="174717_427_0" depart="25373.00" departLane="22917421#3_0" departPos="4.40" departSpeed="0.00" departDelay="0.00" arrival="25400.00" arrivalLane="186623965#17_0" arrivalPos="143.63" arrivalSpeed="13.27" duration="27.00" routeLength="257.42" waitingTime="0.00" waitingCount="0" stopTime="0.00" timeLoss="3.42" rerouteNo="0" devices="tripinfo_174717_427_0 routing_174717_427_0" vType="pkw" speedFactor="1.00" vaporized=""/>
    <tripinfo id="126900_407_0" depart="25239.00" departLane="-186623965#18_0" departPos="4.40" departSpeed="0.00" departDelay="0.00" arrival="25402.00" arrivalLane="42925825#0_0" arrivalPos="254.17" arrivalSpeed="12.02" duration="163.00" routeLength="625.62" waitingTime="86.00" waitingCount="3" stopTime="0.00" timeLoss="114.21" rerouteNo="1" devices="tripinfo_126900_407_0 routing_126900_407_0" vType="pkw" speedFactor="0.94" vaporized=""/>
    <tripinfo id="126698_407_0" depart="25242.00" departLane="-186623965#18_0" departPos="4.40" departSpeed="0.00" departDelay="1.00" arrival="25403.00" arrivalLane="42925825#0_0" arrivalPos="254.17" arrivalSpeed="13.88" duration="161.00" routeLength="625.62" waitingTime="85.00" waitingCount="3" stopTime="0.00" timeLoss="119.10" rerouteNo="1" devices="tripinfo_126698_407_0 routing_126698_407_0" vType="pkw" speedFactor="1.08" vaporized=""/>
    <tripinfo id="120970_405_0" depart="25343.00" departLane="-23283579#1_0" departPos="4.40" departSpeed="0.00" departDelay="0.00" arrival="25404.00" arrivalLane="23283470#5_0" arrivalPos="89.27" arrivalSpeed="7.72" duration="61.00" routeLength="393.04" waitingTime="0.00" waitingCount="0" stopTime="0.00" timeLoss="16.79" rerouteNo="1" devices="tripinfo_120970_405_0 routing_120970_405_0" vType="pkw" speedFactor="0.97" vaporized=""/>
    <tripinfo id="142307_415_0" depart="25376.00" departLane="22917421#3_0" departPos="4.40" departSpeed="0.00" departDelay="1.00" arrival="25404.00" arrivalLane="186623965#17_0" arrivalPos="143.63" arrivalSpeed="12.97" duration="28.00" routeLength="257.42" waitingTime="0.00" waitingCount="0" stopTime="0.00" timeLoss="4.12" rerouteNo="0" devices="tripinfo_142307_415_0 routing_142307_415_0" vType="pkw" speedFactor="1.00" vaporized=""/>
    <tripinfo id="157954_421_0" depart="25388.00" departLane="22917421#3_0" departPos="4.40" departSpeed="0.00" departDelay="0.00" arrival="25415.00" arrivalLane="186623965#17_0" arrivalPos="143.63" arrivalSpeed="13.30" duration="27.00" routeLength="257.42" waitingTime="0.00" waitingCount="0" stopTime="0.00" timeLoss="3.40" rerouteNo="0" devices="tripinfo_157954_421_0 routing_157954_421_0" vType="pkw" speedFactor="0.99" vaporized=""/>
    <tripinfo id="139530_413_0" depart="25383.00" departLane="186623965#9_0" departPos="4.40" departSpeed="0.00" departDelay="0.00" arrival="25419.00" arrivalLane="42925825#0_0" arrivalPos="254.17" arrivalSpeed="13.50" duration="36.00" routeLength="418.48" waitingTime="0.00" waitingCount="0" stopTime="0.00" timeLoss="4.87" rerouteNo="0" devices="tripinfo_139530_413_0 routing_139530_413_0" vType="pkw" speedFactor="0.98" vaporized=""/>
    <tripinfo id="164277_422_0" depart="25343.00" departLane="23285888#0_0" departPos="4.40" departSpeed="0.00" departDelay="0.00" arrival="25420.00" arrivalLane="297047309#0_0" arrivalPos="91.17" arrivalSpeed="13.51" duration="77.00" routeLength="518.80" waitingTime="6.00" waitingCount="2" stopTime="0.00" timeLoss="23.74" rerouteNo="1" devices="tripinfo_164277_422_0 routing_164277_422_0" vType="pkw" speedFactor="1.01" vaporized=""/>
    <tripinfo id="146152_416_0" depart="25210.00" departLane="25166682#0_0" departPos="4.40" departSpeed="0.00" departDelay="0.00" arrival="25426.00" arrivalLane="28675510#7_0" arrivalPos="257.94" arrivalSpeed="14.09" duration="216.00" routeLength="1219.50" waitingTime="94.00" waitingCount="1" stopTime="0.00" timeLoss="113.66" rerouteNo="1" devices="tripinfo_146152_416_0 routing_146152_416_0" vType="pkw" speedFactor="1.06" vaporized=""/>
    <tripinfo id="174787_427_0" depart="25287.00" departLane="22959550#3_0" departPos="4.40" departSpeed="0.00" departDelay="0.00" arrival="25428.00" arrivalLane="28675510#7_0" arrivalPos="257.94" arrivalSpeed="13.64" duration="141.00" routeLength="757.45" waitingTime="59.00" waitingCount="1" stopTime="0.00" timeLoss="73.81" rerouteNo="1" devices="tripinfo_174787_427_0 routing_174787_427_0" vType="pkw" speedFactor="1.00" vaporized=""/>
    <tripinfo id="156485_420_0" depart="25205.00" departLane="22959552#0_0" departPos="4.40" departSpeed="0.00" departDelay="0.00" arrival="25431.00" arrivalLane="28675510#7_0" arrivalPos="257.94" arrivalSpeed="12.48" duration="226.00" routeLength="1112.54" waitingTime="101.00" waitingCount="2" stopTime="0.00" timeLoss="118.73" rerouteNo="1" devices="tripinfo_156485_420_0 routing_156485_420_0" vType="pkw" speedFactor="0.96" vaporized=""/>