<?xml version="1.0" encoding="UTF-8"?>

<!-- generated on 2023-08-30 12:32:13 by Eclipse SUMO libsumo Version 1.18.0
<configuration xmlns:xsi="http://www.w3.org/2001/XMLSchema-instance" xsi:noNamespaceSchemaLocation="http://sumo.dlr.de/xsd/libsumoConfiguration.xsd">

    <input>
        <net-file value="/home/stefan/RESCO/./environments/arterial4x4/arterial4x4.net.xml"/>
        <route-files value="/home/stefan/RESCO/./environments/arterial4x4/arterial4x4_37.rou.xml"/>
    </input>

    <output>
        <tripinfo-output value="/home/stefan/results/ITRPO-tr0-arterial4x4-0-drq_norm-wait_norm/tripinfo_37.xml"/>
        <tripinfo-output.write-unfinished value="true"/>
    </output>

    <processing>
        <time-to-teleport value="-1"/>
    </processing>

    <report>
        <no-warnings value="True"/>
        <no-step-log value="True"/>
    </report>

    <random_number>
        <random value="true"/>
    </random_number>

</configuration>
-->

<tripinfos xmlns:xsi="http://www.w3.org/2001/XMLSchema-instance" xsi:noNamespaceSchemaLocation="http://sumo.dlr.de/xsd/tripinfo_file.xsd">
    <tripinfo id="f_0_2.0" depart="0.00" departLane="np2_nt2_0" departPos="17.02" departSpeed="0.00" departDelay="0.00" arrival="97.00" arrivalLane="nt15_np10_0" arrivalPos="75.00" arrivalSpeed="10.25" duration="97.00" routeLength="934.06" waitingTime="2.00" waitingCount="2" stopTime="0.00" timeLoss="19.90" rerouteNo="0" devices="tripinfo_f_0_2.0" vType="type1" speedFactor="1.02" vaporized=""/>
    <tripinfo id="f_0_2.1" depart="9.00" departLane="np2_nt2_0" departPos="42.91" departSpeed="0.00" departDelay="0.82" arrival="132.00" arrivalLane="nt15_np10_0" arrivalPos="75.00" arrivalSpeed="10.83" duration="123.00" routeLength="908.17" waitingTime="31.00" waitingCount="3" stopTime="0.00" timeLoss="52.50" rerouteNo="0" devices="tripinfo_f_0_2.1" vType="type1" speedFactor="1.08" vaporized=""/>
    <tripinfo id="f_0_2.2" depart="17.00" departLane="np2_nt2_0" departPos="25.73" departSpeed="0.00" departDelay="0.64" arrival="133.00" arrivalLane="nt15_np10_0" arrivalPos="75.00" arrivalSpeed="12.12" duration="116.00" routeLength="925.35" waitingTime="22.00" waitingCount="3" stopTime="0.00" timeLoss="48.80" rerouteNo="0" devices="tripinfo_f_0_2.2" vType="type1" speedFactor="1.15" vaporized=""/>
    <tripinfo id="f_0_3.0" depart="0.00" departLane="np3_nt3_0" departPos="10.94" departSpeed="0.00" departDelay="0.00" arrival="135.00" arrivalLane="nt14_np11_0" arrivalPos="75.00" arrivalSpeed="7.66" duration="135.00" routeLength="940.15" waitingTime="11.00" waitingCount="1" stopTime="0.00" timeLoss="34.77" rerouteNo="0" devices="tripinfo_f_0_3.0" vType="type1" speedFactor="0.79" vaporized=""/>
    <tripinfo id="f_0_2.3" depart="25.00" departLane="np2_nt2_0" departPos="47.10" departSpeed="0.00" departDelay="0.45" arrival="176.00" arrivalLane="nt15_np10_0" arrivalPos="75.00" arrivalSpeed="11.08" duration="151.00" routeLength="903.98" waitingTime="60.00" waitingCount="4" stopTime="0.00" timeLoss="80.72" rerouteNo="0" devices="tripinfo_f_0_2.3" vType="type1" speedFactor="1.08" vaporized=""/>
    <tripinfo id="f_0_0.0" depart="0.00" departLane="np13_nt13_0" departPos="10.40" departSpeed="0.00" departDelay="0.00" arrival="178.00" arrivalLane="nt4_np5_0" arrivalPos="75.00" arrivalSpeed="19.25" duration="178.00" routeLength="1337.49" waitingTime="51.00" waitingCount="5" stopTime="0.00" timeLoss="83.68" rerouteNo="0" devices="tripinfo_f_0_0.0" vType="type1" speedFactor="0.98" vaporized=""/>
    <tripinfo id="f_0_3.1" depart="9.00" departLane="np3_nt3_0" departPos="4.84" departSpeed="0.00" departDelay="0.82" arrival="208.00" arrivalLane="nt14_np11_0" arrivalPos="75.00" arrivalSpeed="10.44" duration="199.00" routeLength="946.25" waitingTime="90.00" waitingCount="4" stopTime="0.00" timeLoss="115.23" rerouteNo="0" devices="tripinfo_f_0_3.1" vType="type1" speedFactor="0.96" vaporized=""/>
    <tripinfo id="f_0_3.2" depart="17.00" departLane="np3_nt3_0" departPos="28.37" departSpeed="0.00" departDelay="0.64" arrival="210.00" arrivalLane="nt14_np11_0" arrivalPos="75.00" arrivalSpeed="8.22" duration="193.00" routeLength="922.72" waitingTime="81.00" waitingCount="4" stopTime="0.00" timeLoss="111.47" rerouteNo="0" devices="tripinfo_f_0_3.2" vType="type1" speedFactor="0.96" vaporized=""/>
    <tripinfo id="f_0_3.3" depart="25.00" departLane="np3_nt3_0" departPos="21.16" departSpeed="0.00" departDelay="0.45" arrival="212.00" arrivalLane="nt14_np11_0" arrivalPos="75.00" arrivalSpeed="10.24" duration="187.00" routeLength="929.93" waitingTime="80.00" waitingCount="5" stopTime="0.00" timeLoss="114.69" rerouteNo="0" devices="tripinfo_f_0_3.3" vType="type1" speedFactor="1.09" vaporized=""/>
    <tripinfo id="f_0_0.1" depart="14.00" departLane="np13_nt13_0" departPos="23.82" departSpeed="0.00" departDelay="0.36" arrival="213.00" arrivalLane="nt4_np5_0" arrivalPos="75.00" arrivalSpeed="17.48" duration="199.00" routeLength="1324.07" waitingTime="61.00" waitingCount="6" stopTime="0.00" timeLoss="100.98" rerouteNo="0" devices="tripinfo_f_0_0.1" vType="type1" speedFactor="0.94" vaporized=""/>
    <tripinfo id="f_0_3.4" depart="33.00" departLane="np3_nt3_0" departPos="33.56" departSpeed="0.00" departDelay="0.27" arrival="214.00" arrivalLane="nt14_np11_0" arrivalPos="75.00" arrivalSpeed="10.15" duration="181.00" routeLength="917.53" waitingTime="69.00" waitingCount="5" stopTime="0.00" timeLoss="109.79" rerouteNo="0" devices="tripinfo_f_0_3.4" vType="type1" speedFactor="1.09" vaporized=""/>
    <tripinfo id="f_0_2.4" depart="33.00" departLane="np2_nt2_0" departPos="63.64" departSpeed="0.00" departDelay="0.27" arrival="219.00" arrivalLane="nt15_np10_0" arrivalPos="75.00" arrivalSpeed="8.17" duration="186.00" routeLength="887.44" waitingTime="69.00" waitingCount="4" stopTime="0.00" timeLoss="98.66" rerouteNo="0" devices="tripinfo_f_0_2.4" vType="type1" speedFactor="0.85" vaporized=""/>
    <tripinfo id="f_0_2.5" depart="41.00" departLane="np2_nt2_0" departPos="27.71" departSpeed="0.00" departDelay="0.09" arrival="232.00" arrivalLane="nt15_np10_0" arrivalPos="75.00" arrivalSpeed="10.37" duration="191.00" routeLength="923.37" waitingTime="87.00" waitingCount="6" stopTime="0.00" timeLoss="118.26" rerouteNo="0" devices="tripinfo_f_0_2.5" vType="type1" speedFactor="1.07" vaporized=""/>
    <tripinfo id="f_0_1.0" depart="0.00" departLane="np16_nt1_0" departPos="57.70" departSpeed="0.00" departDelay="0.00" arrival="248.00" arrivalLane="nt16_np8_0" arrivalPos="75.00" arrivalSpeed="17.64" duration="248.00" routeLength="1290.18" waitingTime="109.00" waitingCount="8" stopTime="0.00" timeLoss="152.03" rerouteNo="0" devices="tripinfo_f_0_1.0" vType="type1" speedFactor="0.95" vaporized=""/>
    <tripinfo id="f_0_0.2" depart="28.00" departLane="np13_nt13_0" departPos="13.40" departSpeed="0.00" departDelay="0.73" arrival="248.00" arrivalLane="nt4_np5_0" arrivalPos="75.00" arrivalSpeed="17.49" duration="220.00" routeLength="1334.49" waitingTime="83.00" waitingCount="7" stopTime="0.00" timeLoss="124.89" rerouteNo="0" devices="tripinfo_f_0_0.2" vType="type1" speedFactor="0.98" vaporized=""/>
    <tripinfo id="f_0_0.3" depart="41.00" departLane="np13_nt13_0" departPos="63.25" departSpeed="0.00" departDelay="0.09" arrival="250.00" arrivalLane="nt4_np5_0" arrivalPos="75.00" arrivalSpeed="19.48" duration="209.00" routeLength="1284.64" waitingTime="97.00" waitingCount="4" stopTime="0.00" timeLoss="123.70" rerouteNo="0" devices="tripinfo_f_0_0.3" vType="type1" speedFactor="1.06" vaporized=""/>
    <tripinfo id="f_0_2.6" depart="50.00" departLane="np2_nt2_0" departPos="12.46" departSpeed="0.00" departDelay="0.91" arrival="263.00" arrivalLane="nt15_np10_0" arrivalPos="75.00" arrivalSpeed="9.55" duration="213.00" routeLength="938.62" waitingTime="94.00" waitingCount="6" stopTime="0.00" timeLoss="130.48" rerouteNo="0" devices="tripinfo_f_0_2.6" vType="type1" speedFactor="0.96" vaporized=""/>
    <tripinfo id="f_0_2.7" depart="58.00" departLane="np2_nt2_0" departPos="52.12" departSpeed="0.00" departDelay="0.73" arrival="266.00" arrivalLane="nt15_np10_0" arrivalPos="75.00" arrivalSpeed="9.00" duration="208.00" routeLength="898.96" waitingTime="76.00" waitingCount="6" stopTime="0.00" timeLoss="119.67" rerouteNo="0" devices="tripinfo_f_0_2.7" vType="type1" speedFactor="0.85" vaporized=""/>
    <tripinfo id="f_0_3.5" depart="41.00" departLane="np3_nt3_0" departPos="25.77" departSpeed="0.00" departDelay="0.09" arrival="268.00" arrivalLane="nt14_np11_0" arrivalPos="75.00" arrivalSpeed="8.47" duration="227.00" routeLength="925.32" waitingTime="109.00" waitingCount="6" stopTime="0.00" timeLoss="145.55" rerouteNo="0" devices="tripinfo_f_0_3.5" vType="type1" speedFactor="0.95" vaporized=""/>
    <tripinfo id="f_0_3.6" depart="50.00" departLane="np3_nt3_0" departPos="1.74" departSpeed="0.00" departDelay="0.91" arrival="270.00" arrivalLane="nt14_np11_0" arrivalPos="75.00" arrivalSpeed="11.44" duration="220.00" routeLength="949.35" waitingTime="98.00" waitingCount="5" stopTime="0.00" timeLoss="144.38" rerouteNo="0" devices="tripinfo_f_0_3.6" vType="type1" speedFactor="1.06" vaporized=""/>
    <tripinfo id="f_0_0.4" depart="55.00" departLane="np13_nt13_0" departPos="51.03" departSpeed="0.00" departDelay="0.46" arrival="276.00" arrivalLane="nt4_np5_0" arrivalPos="75.00" arrivalSpeed="18.42" duration="221.00" routeLength="1296.86" waitingTime="95.00" waitingCount="6" stopTime="0.00" timeLoss="129.79" rerouteNo="0" devices="tripinfo_f_0_0.4" vType="type1" speedFactor="0.99" vaporized=""/>
    <tripinfo id="f_0_0.5" depart="69.00" departLane="np13_nt13_0" departPos="21.00" departSpeed="0.00" departDelay="0.82" arrival="280.00" arrivalLane="nt4_np5_0" arrivalPos="75.00" arrivalSpeed="16.42" duration="211.00" routeLength="1326.89" waitingTime="74.00" waitingCount="5" stopTime="0.00" timeLoss="111.77" rerouteNo="0" devices="tripinfo_f_0_0.5" vType="type1" speedFactor="0.93" vaporized=""/>
    <tripinfo id="f_0_0.6" depart="82.00" departLane="np13_nt13_0" departPos="1.97" departSpeed="0.00" departDelay="0.18" arrival="293.00" arrivalLane="nt4_np5_0" arrivalPos="75.00" arrivalSpeed="19.56" duration="211.00" routeLength="1345.92" waitingTime="70.00" waitingCount="7" stopTime="0.00" timeLoss="122.40" rerouteNo="0" devices="tripinfo_f_0_0.6" vType="type1" speedFactor="1.05" vaporized=""/>
    <tripinfo id="f_0_1.1" depart="14.00" departLane="np16_nt1_0" departPos="36.04" departSpeed="0.00" departDelay="0.36" arrival="303.00" arrivalLane="nt16_np8_0" arrivalPos="75.00" arrivalSpeed="18.15" duration="289.00" routeLength="1311.84" waitingTime="139.00" waitingCount="9" stopTime="0.00" timeLoss="198.42" rerouteNo="0" devices="tripinfo_f_0_1.1" vType="type1" speedFactor="1.00" vaporized=""/>
    <tripinfo id="f_0_2.8" depart="66.00" departLane="np2_nt2_0" departPos="30.20" departSpeed="0.00" departDelay="0.54" arrival="323.00" arrivalLane="nt15_np10_0" arrivalPos="75.00" arrivalSpeed="9.72" duration="257.00" routeLength="920.88" waitingTime="112.00" waitingCount="10" stopTime="0.00" timeLoss="171.07" rerouteNo="0" devices="tripinfo_f_0_2.8" vType="type1" speedFactor="0.90" vaporized=""/>
    <tripinfo id="f_0_1.2" depart="28.00" departLane="np16_nt1_0" departPos="47.20" departSpeed="0.00" departDelay="0.73" arrival="328.00" arrivalLane="nt16_np8_0" arrivalPos="75.00" arrivalSpeed="17.56" duration="300.00" routeLength="1300.68" waitingTime="146.00" waitingCount="11" stopTime="0.00" timeLoss="208.29" rerouteNo="0" devices="tripinfo_f_0_1.2" vType="type1" speedFactor="0.99" vaporized=""/>
    <tripinfo id="f_0_3.7" depart="58.00" departLane="np3_nt3_0" departPos="5.51" departSpeed="0.00" departDelay="0.73" arrival="329.00" arrivalLane="nt14_np11_0" arrivalPos="75.00" arrivalSpeed="8.36" duration="271.00" routeLength="945.58" waitingTime="132.00" waitingCount="8" stopTime="0.00" timeLoss="172.52" rerouteNo="0" devices="tripinfo_f_0_3.7" vType="type1" speedFactor="0.81" vaporized=""/>
    <tripinfo id="f_0_2.9" depart="74.00" departLane="np2_nt2_0" departPos="44.43" departSpeed="0.00" departDelay="0.36" arrival="330.00" arrivalLane="nt15_np10_0" arrivalPos="75.00" arrivalSpeed="9.07" duration="256.00" routeLength="906.65" waitingTime="101.00" waitingCount="10" stopTime="0.00" timeLoss="179.13" rerouteNo="0" devices="tripinfo_f_0_2.9" vType="type1" speedFactor="0.99" vaporized=""/>
    <tripinfo id="f_0_3.8" depart="66.00" departLane="np3_nt3_0" departPos="2.68" departSpeed="0.00" departDelay="0.54" arrival="331.00" arrivalLane="nt14_np11_0" arrivalPos="75.00" arrivalSpeed="10.15" duration="265.00" routeLength="948.41" waitingTime="122.00" waitingCount="6" stopTime="0.00" timeLoss="190.31" rerouteNo="0" devices="tripinfo_f_0_3.8" vType="type1" speedFactor="1.07" vaporized=""/>
    <tripinfo id="f_0_2.10" depart="82.00" departLane="np2_nt2_0" departPos="21.83" departSpeed="0.00" departDelay="0.18" arrival="338.00" arrivalLane="nt15_np10_0" arrivalPos="75.00" arrivalSpeed="10.10" duration="256.00" routeLength="929.25" waitingTime="105.00" waitingCount="12" stopTime="0.00" timeLoss="175.78" rerouteNo="0" devices="tripinfo_f_0_2.10" vType="type1" speedFactor="0.98" vaporized=""/>
    <tripinfo id="f_0_1.10" depart="137.00" departLane="np16_nt1_0" departPos="8.47" departSpeed="0.00" departDelay="0.64" arrival="338.00" arrivalLane="nt16_np8_0" arrivalPos="75.00" arrivalSpeed="19.43" duration="201.00" routeLength="1339.41" waitingTime="54.00" waitingCount="8" stopTime="0.00" timeLoss="113.53" rerouteNo="0" devices="tripinfo_f_0_1.10" vType="type1" speedFactor="1.06" vaporized=""/>
    <tripinfo id="f_0_1.3" depart="41.00" departLane="np16_nt1_0" departPos="37.05" departSpeed="0.00" departDelay="0.09" arrival="340.00" arrivalLane="nt16_np8_0" arrivalPos="75.00" arrivalSpeed="20.00" duration="299.00" routeLength="1310.83" waitingTime="118.00" waitingCount="11" stopTime="0.00" timeLoss="217.25" rerouteNo="0" devices="tripinfo_f_0_1.3" vType="type1" speedFactor="1.12" vaporized=""/>
    <tripinfo id="f_0_1.11" depart="150.00" departLane="np16_nt1_0" departPos="62.88" departSpeed="0.00" departDelay="0.00" arrival="349.00" arrivalLane="nt16_np8_0" arrivalPos="75.00" arrivalSpeed="19.29" duration="199.00" routeLength="1285.00" waitingTime="51.00" waitingCount="9" stopTime="0.00" timeLoss="113.21" rerouteNo="0" devices="tripinfo_f_0_1.11" vType="type1" speedFactor="1.05" vaporized=""/>
    <tripinfo id="f_0_3.9" depart="74.00" departLane="np3_nt3_0" departPos="0.00" departSpeed="0.00" departDelay="0.36" arrival="352.00" arrivalLane="nt14_np11_0" arrivalPos="75.00" arrivalSpeed="10.03" duration="278.00" routeLength="951.09" waitingTime="148.00" waitingCount="8" stopTime="0.00" timeLoss="203.00" rerouteNo="0" devices="tripinfo_f_0_3.9" vType="type1" speedFactor="1.06" vaporized=""/>
    <tripinfo id="f_0_3.10" depart="82.00" departLane="np3_nt3_0" departPos="9.62" departSpeed="0.00" departDelay="0.18" arrival="364.00" arrivalLane="nt14_np11_0" arrivalPos="75.00" arrivalSpeed="7.40" duration="282.00" routeLength="941.47" waitingTime="143.00" waitingCount="8" stopTime="0.00" timeLoss="191.28" rerouteNo="0" devices="tripinfo_f_0_3.10" vType="type1" speedFactor="0.87" vaporized=""/>
    <tripinfo id="f_0_3.11" depart="90.00" departLane="np3_nt3_0" departPos="29.34" departSpeed="0.00" departDelay="0.00" arrival="366.00" arrivalLane="nt14_np11_0" arrivalPos="75.00" arrivalSpeed="9.74" duration="276.00" routeLength="921.75" waitingTime="138.00" waitingCount="10" stopTime="0.00" timeLoss="196.27" rerouteNo="0" devices="tripinfo_f_0_3.11" vType="type1" speedFactor="0.96" vaporized=""/>
    <tripinfo id="f_0_3.12" depart="99.00" departLane="np3_nt3_0" departPos="1.38" departSpeed="0.00" departDelay="0.82" arrival="377.00" arrivalLane="nt14_np11_0" arrivalPos="75.00" arrivalSpeed="9.57" duration="278.00" routeLength="949.71" waitingTime="134.00" waitingCount="9" stopTime="0.00" timeLoss="196.92" rerouteNo="0" devices="tripinfo_f_0_3.12" vType="type1" speedFactor="0.98" vaporized=""/>
    <tripinfo id="f_0_3.13" depart="107.00" departLane="np3_nt3_0" departPos="13.79" departSpeed="0.00" departDelay="0.63" arrival="380.00" arrivalLane="nt14_np11_0" arrivalPos="75.00" arrivalSpeed="10.01" duration="273.00" routeLength="937.30" waitingTime="144.00" waitingCount="9" stopTime="0.00" timeLoss="189.85" rerouteNo="0" devices="tripinfo_f_0_3.13" vType="type1" speedFactor="0.95" vaporized=""/>
    <tripinfo id="f_0_3.14" depart="115.00" departLane="np3_nt3_0" departPos="18.45" departSpeed="0.00" departDelay="0.45" arrival="381.00" arrivalLane="nt14_np11_0" arrivalPos="75.00" arrivalSpeed="11.38" duration="266.00" routeLength="932.64" waitingTime="134.00" waitingCount="9" stopTime="0.00" timeLoss="199.94" rerouteNo="0" devices="tripinfo_f_0_3.14" vType="type1" speedFactor="1.17" vaporized=""/>
    <tripinfo id="f_0_3.15" depart="123.00" departLane="np3_nt3_0" departPos="13.47" departSpeed="0.00" departDelay="0.27" arrival="383.00" arrivalLane="nt14_np11_0" arrivalPos="75.00" arrivalSpeed="10.10" duration="260.00" routeLength="937.62" waitingTime="128.00" waitingCount="11" stopTime="0.00" timeLoss="185.01" rerouteNo="0" devices="tripinfo_f_0_3.15" vType="type1" speedFactor="1.04" vaporized=""/>
    <tripinfo id="f_0_0.7" depart="96.00" departLane="np13_nt13_0" departPos="6.96" departSpeed="0.00" departDelay="0.55" arrival="384.00" arrivalLane="nt4_np5_0" arrivalPos="75.00" arrivalSpeed="16.73" duration="288.00" routeLength="1340.93" waitingTime="140.00" waitingCount="9" stopTime="0.00" timeLoss="188.48" rerouteNo="0" devices="tripinfo_f_0_0.7" vType="type1" speedFactor="0.94" vaporized=""/>
    <tripinfo id="f_0_0.8" depart="110.00" departLane="np13_nt13_0" departPos="20.65" departSpeed="0.00" departDelay="0.91" arrival="388.00" arrivalLane="nt4_np5_0" arrivalPos="75.00" arrivalSpeed="20.04" duration="278.00" routeLength="1327.24" waitingTime="140.00" waitingCount="8" stopTime="0.00" timeLoss="195.46" rerouteNo="0" devices="tripinfo_f_0_0.8" vType="type1" speedFactor="1.12" vaporized=""/>
    <tripinfo id="f_0_0.9" depart="123.00" departLane="np13_nt13_0" departPos="4.89" departSpeed="0.00" departDelay="0.28" arrival="393.00" arrivalLane="nt4_np5_0" arrivalPos="75.00" arrivalSpeed="18.93" duration="270.00" routeLength="1343.00" waitingTime="132.00" waitingCount="8" stopTime="0.00" timeLoss="178.60" rerouteNo="0" devices="tripinfo_f_0_0.9" vType="type1" speedFactor="1.02" vaporized=""/>
    <tripinfo id="f_0_0.10" depart="137.00" departLane="np13_nt13_0" departPos="19.45" departSpeed="0.00" departDelay="0.64" arrival="414.00" arrivalLane="nt4_np5_0" arrivalPos="75.00" arrivalSpeed="13.84" duration="277.00" routeLength="1328.44" waitingTime="105.00" waitingCount="7" stopTime="0.00" timeLoss="159.13" rerouteNo="0" devices="tripinfo_f_0_0.10" vType="type1" speedFactor="0.79" vaporized=""/>
    <tripinfo id="f_0_0.11" depart="150.00" departLane="np13_nt13_0" departPos="20.39" departSpeed="0.00" departDelay="0.00" arrival="416.00" arrivalLane="nt4_np5_0" arrivalPos="75.00" arrivalSpeed="17.65" duration="266.00" routeLength="1327.50" waitingTime="103.00" waitingCount="7" stopTime="0.00" timeLoss="162.17" rerouteNo="0" devices="tripinfo_f_0_0.11" vType="type1" speedFactor="0.89" vaporized=""/>
    <tripinfo id="f_0_3.16" depart="131.00" departLane="np3_nt3_0" departPos="0.00" departSpeed="0.00" departDelay="0.09" arrival="417.00" arrivalLane="nt14_np11_0" arrivalPos="75.00" arrivalSpeed="10.31" duration="286.00" routeLength="951.09" waitingTime="141.00" waitingCount="11" stopTime="0.00" timeLoss="211.64" rerouteNo="0" devices="tripinfo_f_0_3.16" vType="type1" speedFactor="1.08" vaporized=""/>
    <tripinfo id="f_0_0.12" depart="164.00" departLane="np13_nt13_0" departPos="59.17" departSpeed="0.00" departDelay="0.37" arrival="418.00" arrivalLane="nt4_np5_0" arrivalPos="75.00" arrivalSpeed="19.00" duration="254.00" routeLength="1288.72" waitingTime="94.00" waitingCount="6" stopTime="0.00" timeLoss="160.49" rerouteNo="0" devices="tripinfo_f_0_0.12" vType="type1" speedFactor="0.97" vaporized=""/>
    <tripinfo id="f_0_3.17" depart="140.00" departLane="np3_nt3_0" departPos="0.39" departSpeed="0.00" departDelay="0.91" arrival="420.00" arrivalLane="nt14_np11_0" arrivalPos="75.00" arrivalSpeed="9.08" duration="280.00" routeLength="950.70" waitingTime="134.00" waitingCount="10" stopTime="0.00" timeLoss="191.93" rerouteNo="0" devices="tripinfo_f_0_3.17" vType="type1" speedFactor="0.91" vaporized=""/>
    <tripinfo id="f_0_3.18" depart="148.00" departLane="np3_nt3_0" departPos="4.64" departSpeed="0.00" departDelay="0.72" arrival="422.00" arrivalLane="nt14_np11_0" arrivalPos="75.00" arrivalSpeed="9.21" duration="274.00" routeLength="946.45" waitingTime="122.00" waitingCount="8" stopTime="0.00" timeLoss="193.36" rerouteNo="0" devices="tripinfo_f_0_3.18" vType="type1" speedFactor="0.98" vaporized=""/>
    <tripinfo id="f_0_3.19" depart="156.00" departLane="np3_nt3_0" departPos="0.00" departSpeed="0.00" departDelay="0.54" arrival="424.00" arrivalLane="nt14_np11_0" arrivalPos="75.00" arrivalSpeed="10.36" duration="268.00" routeLength="951.09" waitingTime="138.00" waitingCount="9" stopTime="0.00" timeLoss="197.42" rerouteNo="0" devices="tripinfo_f_0_3.19" vType="type1" speedFactor="1.14" vaporized=""/>
    <tripinfo id="f_0_3.20" depart="164.00" departLane="np3_nt3_0" departPos="0.00" departSpeed="0.00" departDelay="0.36" arrival="426.00" arrivalLane="nt14_np11_0" arrivalPos="75.00" arrivalSpeed="11.33" duration="262.00" routeLength="951.09" waitingTime="131.00" waitingCount="6" stopTime="0.00" timeLoss="189.70" rerouteNo="0" devices="tripinfo_f_0_3.20" vType="type1" speedFactor="1.11" vaporized=""/>
    <tripinfo id="f_0_0.13" depart="178.00" departLane="np13_nt13_0" departPos="6.25" departSpeed="0.00" departDelay="0.73" arrival="427.00" arrivalLane="nt4_np5_0" arrivalPos="75.00" arrivalSpeed="19.07" duration="249.00" routeLength="1341.64" waitingTime="84.00" waitingCount="6" stopTime="0.00" timeLoss="153.10" rerouteNo="0" devices="tripinfo_f_0_0.13" vType="type1" speedFactor="0.97" vaporized=""/>
    <tripinfo id="f_0_3.21" depart="172.00" departLane="np3_nt3_0" departPos="0.00" departSpeed="0.00" departDelay="0.18" arrival="428.00" arrivalLane="nt14_np11_0" arrivalPos="75.00" arrivalSpeed="10.34" duration="256.00" routeLength="951.09" waitingTime="122.00" waitingCount="6" stopTime="0.00" timeLoss="180.60" rerouteNo="0" devices="tripinfo_f_0_3.21" vType="type1" speedFactor="1.07" vaporized=""/>
    <tripinfo id="f_0_3.22" depart="197.00" departLane="np3_nt3_0" departPos="0.00" departSpeed="0.00" departDelay="17.00" arrival="430.00" arrivalLane="nt14_np11_0" arrivalPos="75.00" arrivalSpeed="9.57" duration="233.00" routeLength="951.09" waitingTime="98.00" waitingCount="6" stopTime="0.00" timeLoss="147.60" rerouteNo="0" devices="tripinfo_f_0_3.22" vType="type1" speedFactor="0.93" vaporized=""/>
    <tripinfo id="f_0_3.23" depart="201.00" departLane="np3_nt3_0" departPos="0.00" departSpeed="0.00" departDelay="12.81" arrival="433.00" arrivalLane="nt14_np11_0" arrivalPos="75.00" arrivalSpeed="9.76" duration="232.00" routeLength="951.09" waitingTime="88.00" waitingCount="6" stopTime="0.00" timeLoss="145.89" rerouteNo="0" devices="tripinfo_f_0_3.23" vType="type1" speedFactor="0.94" vaporized=""/>
    <tripinfo id="f_0_3.24" depart="217.00" departLane="np3_nt3_0" departPos="1.05" departSpeed="0.00" departDelay="20.63" arrival="435.00" arrivalLane="nt14_np11_0" arrivalPos="75.00" arrivalSpeed="9.42" duration="218.00" routeLength="950.04" waitingTime="87.00" waitingCount="7" stopTime="0.00" timeLoss="140.33" rerouteNo="0" devices="tripinfo_f_0_3.24" vType="type1" speedFactor="1.04" vaporized=""/>
    <tripinfo id="f_0_2.11" depart="90.00" departLane="np2_nt2_0" departPos="51.53" departSpeed="0.00" departDelay="0.00" arrival="452.00" arrivalLane="nt15_np10_0" arrivalPos="75.00" arrivalSpeed="8.89" duration="362.00" routeLength="899.55" waitingTime="207.00" waitingCount="12" stopTime="0.00" timeLoss="283.18" rerouteNo="0" devices="tripinfo_f_0_2.11" vType="type1" speedFactor="0.96" vaporized=""/>
    <tripinfo id="f_0_2.20" depart="164.00" departLane="np2_nt2_0" departPos="33.95" departSpeed="0.00" departDelay="0.36" arrival="454.00" arrivalLane="nt15_np10_0" arrivalPos="75.00" arrivalSpeed="8.62" duration="290.00" routeLength="917.13" waitingTime="165.00" waitingCount="10" stopTime="0.00" timeLoss="211.08" rerouteNo="0" devices="tripinfo_f_0_2.20" vType="type1" speedFactor="0.98" vaporized=""/>
    <tripinfo id="f_0_0.14" depart="191.00" departLane="np13_nt13_0" departPos="9.93" departSpeed="0.00" departDelay="0.10" arrival="463.00" arrivalLane="nt4_np5_0" arrivalPos="75.00" arrivalSpeed="18.05" duration="272.00" routeLength="1337.96" waitingTime="93.00" waitingCount="7" stopTime="0.00" timeLoss="172.27" rerouteNo="0" devices="tripinfo_f_0_0.14" vType="type1" speedFactor="0.93" vaporized=""/>
    <tripinfo id="f_0_3.25" depart="220.00" departLane="np3_nt3_0" departPos="0.00" departSpeed="0.00" departDelay="15.45" arrival="463.00" arrivalLane="nt14_np11_0" arrivalPos="75.00" arrivalSpeed="6.57" duration="243.00" routeLength="951.09" waitingTime="85.00" waitingCount="4" stopTime="0.00" timeLoss="126.62" rerouteNo="0" devices="tripinfo_f_0_3.25" vType="type1" speedFactor="0.69" vaporized=""/>
    <tripinfo id="f_0_0.15" depart="205.00" departLane="np13_nt13_0" departPos="62.32" departSpeed="0.00" departDelay="0.46" arrival="465.00" arrivalLane="nt4_np5_0" arrivalPos="75.00" arrivalSpeed="18.05" duration="260.00" routeLength="1285.57" waitingTime="81.00" waitingCount="7" stopTime="0.00" timeLoss="166.45" rerouteNo="0" devices="tripinfo_f_0_0.15" vType="type1" speedFactor="0.96" vaporized=""/>
    <tripinfo id="f_0_3.26" depart="267.00" departLane="np3_nt3_0" departPos="0.24" departSpeed="0.00" departDelay="54.27" arrival="468.00" arrivalLane="nt14_np11_0" arrivalPos="75.00" arrivalSpeed="9.81" duration="201.00" routeLength="950.85" waitingTime="55.00" waitingCount="4" stopTime="0.00" timeLoss="116.03" rerouteNo="0" devices="tripinfo_f_0_3.26" vType="type1" speedFactor="0.94" vaporized=""/>
    <tripinfo id="f_0_1.4" depart="55.00" departLane="np16_nt1_0" departPos="3.49" departSpeed="0.00" departDelay="0.46" arrival="469.00" arrivalLane="nt16_np8_0" arrivalPos="75.00" arrivalSpeed="19.00" duration="414.00" routeLength="1344.39" waitingTime="206.00" waitingCount="15" stopTime="0.00" timeLoss="317.71" rerouteNo="0" devices="tripinfo_f_0_1.4" vType="type1" speedFactor="0.97" vaporized=""/>
    <tripinfo id="f_0_0.16" depart="219.00" departLane="np13_nt13_0" departPos="41.56" departSpeed="0.00" departDelay="0.82" arrival="469.00" arrivalLane="nt4_np5_0" arrivalPos="75.00" arrivalSpeed="19.26" duration="250.00" routeLength="1306.33" waitingTime="72.00" waitingCount="8" stopTime="0.00" timeLoss="164.21" rerouteNo="0" devices="tripinfo_f_0_0.16" vType="type1" speedFactor="1.06" vaporized=""/>
    <tripinfo id="f_0_0.17" depart="232.00" departLane="np13_nt13_0" departPos="33.21" departSpeed="0.00" departDelay="0.19" arrival="472.00" arrivalLane="nt4_np5_0" arrivalPos="75.00" arrivalSpeed="18.48" duration="240.00" routeLength="1314.68" waitingTime="79.00" waitingCount="7" stopTime="0.00" timeLoss="149.69" rerouteNo="0" devices="tripinfo_f_0_0.17" vType="type1" speedFactor="1.02" vaporized=""/>
    <tripinfo id="f_0_1.12" depart="164.00" departLane="np16_nt1_0" departPos="7.53" departSpeed="0.00" departDelay="0.37" arrival="474.00" arrivalLane="nt16_np8_0" arrivalPos="75.00" arrivalSpeed="16.22" duration="310.00" routeLength="1340.35" waitingTime="161.00" waitingCount="8" stopTime="0.00" timeLoss="204.42" rerouteNo="0" devices="tripinfo_f_0_1.12" vType="type1" speedFactor="0.88" vaporized=""/>
    <tripinfo id="f_0_2.12" depart="99.00" departLane="np2_nt2_0" departPos="12.24" departSpeed="0.00" departDelay="0.82" arrival="482.00" arrivalLane="nt15_np10_0" arrivalPos="75.00" arrivalSpeed="10.19" duration="383.00" routeLength="938.84" waitingTime="191.00" waitingCount="13" stopTime="0.00" timeLoss="301.58" rerouteNo="0" devices="tripinfo_f_0_2.12" vType="type1" speedFactor="0.97" vaporized=""/>
    <tripinfo id="f_0_0.18" depart="246.00" departLane="np13_nt13_0" departPos="5.84" departSpeed="0.00" departDelay="0.55" arrival="483.00" arrivalLane="nt4_np5_0" arrivalPos="75.00" arrivalSpeed="17.48" duration="237.00" routeLength="1342.05" waitingTime="68.00" waitingCount="8" stopTime="0.00" timeLoss="139.88" rerouteNo="0" devices="tripinfo_f_0_0.18" vType="type1" speedFactor="0.96" vaporized=""/>
    <tripinfo id="f_0_2.28" depart="230.00" departLane="np2_nt2_0" departPos="20.98" departSpeed="0.00" departDelay="0.90" arrival="485.00" arrivalLane="nt15_np10_0" arrivalPos="75.00" arrivalSpeed="8.03" duration="255.00" routeLength="930.10" waitingTime="130.00" waitingCount="6" stopTime="0.00" timeLoss="168.48" rerouteNo="0" devices="tripinfo_f_0_2.28" vType="type1" speedFactor="0.91" vaporized=""/>
    <tripinfo id="f_0_0.19" depart="260.00" departLane="np13_nt13_0" departPos="27.36" departSpeed="0.00" departDelay="0.92" arrival="485.00" arrivalLane="nt4_np5_0" arrivalPos="75.00" arrivalSpeed="16.56" duration="225.00" routeLength="1320.53" waitingTime="63.00" waitingCount="9" stopTime="0.00" timeLoss="124.40" rerouteNo="0" devices="tripinfo_f_0_0.19" vType="type1" speedFactor="0.91" vaporized=""/>
    <tripinfo id="f_0_2.23" depart="189.00" departLane="np2_nt2_0" departPos="53.92" departSpeed="0.00" departDelay="0.81" arrival="487.00" arrivalLane="nt15_np10_0" arrivalPos="75.00" arrivalSpeed="10.86" duration="298.00" routeLength="897.16" waitingTime="164.00" waitingCount="7" stopTime="0.00" timeLoss="228.37" rerouteNo="0" devices="tripinfo_f_0_2.23" vType="type1" speedFactor="1.09" vaporized=""/>