<?xml version="1.0" encoding="UTF-8"?>

<!-- generated on 2023-08-30 12:48:59 by Eclipse SUMO libsumo Version 1.18.0
<configuration xmlns:xsi="http://www.w3.org/2001/XMLSchema-instance" xsi:noNamespaceSchemaLocation="http://sumo.dlr.de/xsd/libsumoConfiguration.xsd">

    <input>
        <net-file value="/home/stefan/RESCO/./environments/arterial4x4/arterial4x4.net.xml"/>
        <route-files value="/home/stefan/RESCO/./environments/arterial4x4/arterial4x4_84.rou.xml"/>
    </input>

    <output>
        <tripinfo-output value="/home/stefan/results/ITRPO-tr0-arterial4x4-0-drq_norm-wait_norm/tripinfo_84.xml"/>
        <tripinfo-output.write-unfinished value="true"/>
    </output>

    <processing>
        <time-to-teleport value="-1"/>
    </processing>

    <report>
        <no-warnings value="True"/>
        <no-step-log value="True"/>
    </report>

    <random_number>
        <random value="true"/>
    </random_number>

</configuration>
-->

<tripinfos xmlns:xsi="http://www.w3.org/2001/XMLSchema-instance" xsi:noNamespaceSchemaLocation="http://sumo.dlr.de/xsd/tripinfo_file.xsd">
    <tripinfo id="f_0_3.0" depart="0.00" departLane="np3_nt3_0" departPos="17.15" departSpeed="0.00" departDelay="0.00" arrival="113.00" arrivalLane="nt14_np11_0" arrivalPos="75.00" arrivalSpeed="8.42" duration="113.00" routeLength="933.94" waitingTime="6.00" waitingCount="2" stopTime="0.00" timeLoss="31.94" rerouteNo="0" devices="tripinfo_f_0_3.0" vType="type1" speedFactor="0.97" vaporized=""/>
    <tripinfo id="f_0_0.0" depart="0.00" departLane="np13_nt13_0" departPos="52.66" departSpeed="0.00" departDelay="0.00" arrival="132.00" arrivalLane="nt4_np5_0" arrivalPos="75.00" arrivalSpeed="19.95" duration="132.00" routeLength="1295.23" waitingTime="16.00" waitingCount="3" stopTime="0.00" timeLoss="44.09" rerouteNo="0" devices="tripinfo_f_0_0.0" vType="type1" speedFactor="1.03" vaporized=""/>
    <tripinfo id="f_0_2.0" depart="0.00" departLane="np2_nt2_0" departPos="47.57" departSpeed="0.00" departDelay="0.00" arrival="161.00" arrivalLane="nt15_np10_0" arrivalPos="75.00" arrivalSpeed="11.78" duration="161.00" routeLength="903.51" waitingTime="63.00" waitingCount="5" stopTime="0.00" timeLoss="92.69" rerouteNo="0" devices="tripinfo_f_0_2.0" vType="type1" speedFactor="1.10" vaporized=""/>
    <tripinfo id="f_0_2.1" depart="9.00" departLane="np2_nt2_0" departPos="38.66" departSpeed="0.00" departDelay="0.82" arrival="163.00" arrivalLane="nt15_np10_0" arrivalPos="75.00" arrivalSpeed="11.49" duration="154.00" routeLength="912.42" waitingTime="54.00" waitingCount="6" stopTime="0.00" timeLoss="84.24" rerouteNo="0" devices="tripinfo_f_0_2.1" vType="type1" speedFactor="1.10" vaporized=""/>
    <tripinfo id="f_0_2.2" depart="17.00" departLane="np2_nt2_0" departPos="37.02" departSpeed="0.00" departDelay="0.64" arrival="169.00" arrivalLane="nt15_np10_0" arrivalPos="75.00" arrivalSpeed="9.73" duration="152.00" routeLength="914.06" waitingTime="47.00" waitingCount="5" stopTime="0.00" timeLoss="76.12" rerouteNo="0" devices="tripinfo_f_0_2.2" vType="type1" speedFactor="1.01" vaporized=""/>
    <tripinfo id="f_0_1.0" depart="0.00" departLane="np16_nt1_0" departPos="59.47" departSpeed="0.00" departDelay="0.00" arrival="173.00" arrivalLane="nt16_np8_0" arrivalPos="75.00" arrivalSpeed="20.92" duration="173.00" routeLength="1288.41" waitingTime="53.00" waitingCount="5" stopTime="0.00" timeLoss="90.50" rerouteNo="0" devices="tripinfo_f_0_1.0" vType="type1" speedFactor="1.09" vaporized=""/>
    <tripinfo id="f_0_0.1" depart="14.00" departLane="np13_nt13_0" departPos="22.06" departSpeed="0.00" departDelay="0.36" arrival="179.00" arrivalLane="nt4_np5_0" arrivalPos="75.00" arrivalSpeed="18.73" duration="165.00" routeLength="1325.83" waitingTime="39.00" waitingCount="6" stopTime="0.00" timeLoss="72.93" rerouteNo="0" devices="tripinfo_f_0_0.1" vType="type1" speedFactor="1.01" vaporized=""/>
    <tripinfo id="f_0_0.2" depart="28.00" departLane="np13_nt13_0" departPos="9.30" departSpeed="0.00" departDelay="0.73" arrival="217.00" arrivalLane="nt4_np5_0" arrivalPos="75.00" arrivalSpeed="17.76" duration="189.00" routeLength="1338.59" waitingTime="58.00" waitingCount="5" stopTime="0.00" timeLoss="86.79" rerouteNo="0" devices="tripinfo_f_0_0.2" vType="type1" speedFactor="0.91" vaporized=""/>
    <tripinfo id="f_0_3.1" depart="9.00" departLane="np3_nt3_0" departPos="42.77" departSpeed="0.00" departDelay="0.82" arrival="233.00" arrivalLane="nt14_np11_0" arrivalPos="75.00" arrivalSpeed="8.31" duration="224.00" routeLength="908.32" waitingTime="113.00" waitingCount="3" stopTime="0.00" timeLoss="139.62" rerouteNo="0" devices="tripinfo_f_0_3.1" vType="type1" speedFactor="0.91" vaporized=""/>
    <tripinfo id="f_0_3.2" depart="17.00" departLane="np3_nt3_0" departPos="23.02" departSpeed="0.00" departDelay="0.64" arrival="234.00" arrivalLane="nt14_np11_0" arrivalPos="75.00" arrivalSpeed="11.22" duration="217.00" routeLength="928.07" waitingTime="123.00" waitingCount="5" stopTime="0.00" timeLoss="150.14" rerouteNo="0" devices="tripinfo_f_0_3.2" vType="type1" speedFactor="1.16" vaporized=""/>
    <tripinfo id="f_0_3.3" depart="25.00" departLane="np3_nt3_0" departPos="1.34" departSpeed="0.00" departDelay="0.45" arrival="236.00" arrivalLane="nt14_np11_0" arrivalPos="75.00" arrivalSpeed="10.67" duration="211.00" routeLength="949.75" waitingTime="111.00" waitingCount="4" stopTime="0.00" timeLoss="141.93" rerouteNo="0" devices="tripinfo_f_0_3.3" vType="type1" speedFactor="1.15" vaporized=""/>
    <tripinfo id="f_0_3.4" depart="33.00" departLane="np3_nt3_0" departPos="17.39" departSpeed="0.00" departDelay="0.27" arrival="246.00" arrivalLane="nt14_np11_0" arrivalPos="75.00" arrivalSpeed="11.68" duration="213.00" routeLength="933.70" waitingTime="107.00" waitingCount="6" stopTime="0.00" timeLoss="146.88" rerouteNo="0" devices="tripinfo_f_0_3.4" vType="type1" speedFactor="1.19" vaporized=""/>
    <tripinfo id="f_0_0.3" depart="41.00" departLane="np13_nt13_0" departPos="41.03" departSpeed="0.00" departDelay="0.09" arrival="259.00" arrivalLane="nt4_np5_0" arrivalPos="75.00" arrivalSpeed="15.15" duration="218.00" routeLength="1306.86" waitingTime="78.00" waitingCount="7" stopTime="0.00" timeLoss="113.47" rerouteNo="0" devices="tripinfo_f_0_0.3" vType="type1" speedFactor="0.88" vaporized=""/>
    <tripinfo id="f_0_2.3" depart="25.00" departLane="np2_nt2_0" departPos="11.86" departSpeed="0.00" departDelay="0.45" arrival="315.00" arrivalLane="nt15_np10_0" arrivalPos="75.00" arrivalSpeed="11.33" duration="290.00" routeLength="939.22" waitingTime="180.00" waitingCount="5" stopTime="0.00" timeLoss="222.22" rerouteNo="0" devices="tripinfo_f_0_2.3" vType="type1" speedFactor="1.16" vaporized=""/>
    <tripinfo id="f_0_0.4" depart="55.00" departLane="np13_nt13_0" departPos="41.98" departSpeed="0.00" departDelay="0.46" arrival="318.00" arrivalLane="nt4_np5_0" arrivalPos="75.00" arrivalSpeed="19.92" duration="263.00" routeLength="1305.91" waitingTime="125.00" waitingCount="7" stopTime="0.00" timeLoss="171.43" rerouteNo="0" devices="tripinfo_f_0_0.4" vType="type1" speedFactor="1.00" vaporized=""/>
    <tripinfo id="f_0_3.5" depart="41.00" departLane="np3_nt3_0" departPos="2.18" departSpeed="0.00" departDelay="0.09" arrival="321.00" arrivalLane="nt14_np11_0" arrivalPos="75.00" arrivalSpeed="11.56" duration="280.00" routeLength="948.91" waitingTime="164.00" waitingCount="8" stopTime="0.00" timeLoss="205.55" rerouteNo="0" devices="tripinfo_f_0_3.5" vType="type1" speedFactor="1.07" vaporized=""/>
    <tripinfo id="f_0_2.4" depart="33.00" departLane="np2_nt2_0" departPos="14.81" departSpeed="0.00" departDelay="0.27" arrival="328.00" arrivalLane="nt15_np10_0" arrivalPos="75.00" arrivalSpeed="8.36" duration="295.00" routeLength="936.27" waitingTime="170.00" waitingCount="5" stopTime="0.00" timeLoss="208.78" rerouteNo="0" devices="tripinfo_f_0_2.4" vType="type1" speedFactor="0.92" vaporized=""/>
    <tripinfo id="f_0_2.5" depart="41.00" departLane="np2_nt2_0" departPos="38.94" departSpeed="0.00" departDelay="0.09" arrival="330.00" arrivalLane="nt15_np10_0" arrivalPos="75.00" arrivalSpeed="8.25" duration="289.00" routeLength="912.14" waitingTime="171.00" waitingCount="6" stopTime="0.00" timeLoss="207.48" rerouteNo="0" devices="tripinfo_f_0_2.5" vType="type1" speedFactor="0.94" vaporized=""/>
    <tripinfo id="f_0_2.6" depart="50.00" departLane="np2_nt2_0" departPos="35.36" departSpeed="0.00" departDelay="0.91" arrival="338.00" arrivalLane="nt15_np10_0" arrivalPos="75.00" arrivalSpeed="8.16" duration="288.00" routeLength="915.72" waitingTime="170.00" waitingCount="5" stopTime="0.00" timeLoss="205.01" rerouteNo="0" devices="tripinfo_f_0_2.6" vType="type1" speedFactor="0.92" vaporized=""/>
    <tripinfo id="f_0_1.1" depart="14.00" departLane="np16_nt1_0" departPos="60.35" departSpeed="0.00" departDelay="0.36" arrival="343.00" arrivalLane="nt16_np8_0" arrivalPos="75.00" arrivalSpeed="19.81" duration="329.00" routeLength="1287.53" waitingTime="197.00" waitingCount="7" stopTime="0.00" timeLoss="244.79" rerouteNo="0" devices="tripinfo_f_0_1.1" vType="type1" speedFactor="1.07" vaporized=""/>
    <tripinfo id="f_0_0.5" depart="69.00" departLane="np13_nt13_0" departPos="50.44" departSpeed="0.00" departDelay="0.82" arrival="344.00" arrivalLane="nt4_np5_0" arrivalPos="75.00" arrivalSpeed="19.42" duration="275.00" routeLength="1297.45" waitingTime="145.00" waitingCount="9" stopTime="0.00" timeLoss="189.30" rerouteNo="0" devices="tripinfo_f_0_0.5" vType="type1" speedFactor="1.05" vaporized=""/>
    <tripinfo id="f_0_1.2" depart="28.00" departLane="np16_nt1_0" departPos="24.65" departSpeed="0.00" departDelay="0.73" arrival="345.00" arrivalLane="nt16_np8_0" arrivalPos="75.00" arrivalSpeed="21.30" duration="317.00" routeLength="1323.23" waitingTime="187.00" waitingCount="5" stopTime="0.00" timeLoss="236.13" rerouteNo="0" devices="tripinfo_f_0_1.2" vType="type1" speedFactor="1.14" vaporized=""/>
    <tripinfo id="f_0_3.13" depart="149.00" departLane="np3_nt3_0" departPos="59.67" departSpeed="0.00" departDelay="42.63" arrival="348.00" arrivalLane="nt14_np11_0" arrivalPos="75.00" arrivalSpeed="9.49" duration="199.00" routeLength="891.42" waitingTime="97.00" waitingCount="6" stopTime="0.00" timeLoss="119.63" rerouteNo="0" devices="tripinfo_f_0_3.13" vType="type1" speedFactor="0.94" vaporized=""/>
    <tripinfo id="f_0_3.6" depart="50.00" departLane="np3_nt3_0" departPos="25.00" departSpeed="0.00" departDelay="0.91" arrival="350.00" arrivalLane="nt14_np11_0" arrivalPos="75.00" arrivalSpeed="8.37" duration="300.00" routeLength="926.09" waitingTime="169.00" waitingCount="9" stopTime="0.00" timeLoss="211.02" rerouteNo="0" devices="tripinfo_f_0_3.6" vType="type1" speedFactor="0.87" vaporized=""/>
    <tripinfo id="f_0_2.7" depart="58.00" departLane="np2_nt2_0" departPos="21.94" departSpeed="0.00" departDelay="0.73" arrival="367.00" arrivalLane="nt15_np10_0" arrivalPos="75.00" arrivalSpeed="9.16" duration="309.00" routeLength="929.14" waitingTime="191.00" waitingCount="7" stopTime="0.00" timeLoss="234.35" rerouteNo="0" devices="tripinfo_f_0_2.7" vType="type1" speedFactor="1.05" vaporized=""/>
    <tripinfo id="f_0_3.7" depart="58.00" departLane="np3_nt3_0" departPos="18.44" departSpeed="0.00" departDelay="0.73" arrival="368.00" arrivalLane="nt14_np11_0" arrivalPos="75.00" arrivalSpeed="8.84" duration="310.00" routeLength="932.65" waitingTime="180.00" waitingCount="10" stopTime="0.00" timeLoss="231.22" rerouteNo="0" devices="tripinfo_f_0_3.7" vType="type1" speedFactor="0.99" vaporized=""/>
    <tripinfo id="f_0_2.8" depart="66.00" departLane="np2_nt2_0" departPos="51.76" departSpeed="0.00" departDelay="0.54" arrival="370.00" arrivalLane="nt15_np10_0" arrivalPos="75.00" arrivalSpeed="9.17" duration="304.00" routeLength="899.32" waitingTime="179.00" waitingCount="7" stopTime="0.00" timeLoss="219.27" rerouteNo="0" devices="tripinfo_f_0_2.8" vType="type1" speedFactor="0.89" vaporized=""/>
    <tripinfo id="f_0_2.9" depart="74.00" departLane="np2_nt2_0" departPos="18.07" departSpeed="0.00" departDelay="0.36" arrival="383.00" arrivalLane="nt15_np10_0" arrivalPos="75.00" arrivalSpeed="9.63" duration="309.00" routeLength="933.01" waitingTime="182.00" waitingCount="7" stopTime="0.00" timeLoss="223.81" rerouteNo="0" devices="tripinfo_f_0_2.9" vType="type1" speedFactor="0.92" vaporized=""/>
    <tripinfo id="f_0_2.10" depart="82.00" departLane="np2_nt2_0" departPos="15.06" departSpeed="0.00" departDelay="0.18" arrival="385.00" arrivalLane="nt15_np10_0" arrivalPos="75.00" arrivalSpeed="8.47" duration="303.00" routeLength="936.02" waitingTime="169.00" waitingCount="5" stopTime="0.00" timeLoss="220.97" rerouteNo="0" devices="tripinfo_f_0_2.10" vType="type1" speedFactor="0.96" vaporized=""/>
    <tripinfo id="f_0_3.8" depart="66.00" departLane="np3_nt3_0" departPos="0.00" departSpeed="0.00" departDelay="0.54" arrival="392.00" arrivalLane="nt14_np11_0" arrivalPos="75.00" arrivalSpeed="11.06" duration="326.00" routeLength="951.09" waitingTime="182.00" waitingCount="11" stopTime="0.00" timeLoss="248.39" rerouteNo="0" devices="tripinfo_f_0_3.8" vType="type1" speedFactor="1.04" vaporized=""/>
    <tripinfo id="f_0_2.11" depart="90.00" departLane="np2_nt2_0" departPos="43.48" departSpeed="0.00" departDelay="0.00" arrival="393.00" arrivalLane="nt15_np10_0" arrivalPos="75.00" arrivalSpeed="9.25" duration="303.00" routeLength="907.60" waitingTime="165.00" waitingCount="8" stopTime="0.00" timeLoss="219.49" rerouteNo="0" devices="tripinfo_f_0_2.11" vType="type1" speedFactor="0.91" vaporized=""/>
    <tripinfo id="f_0_3.9" depart="74.00" departLane="np3_nt3_0" departPos="0.65" departSpeed="0.00" departDelay="0.36" arrival="394.00" arrivalLane="nt14_np11_0" arrivalPos="75.00" arrivalSpeed="11.26" duration="320.00" routeLength="950.44" waitingTime="189.00" waitingCount="10" stopTime="0.00" timeLoss="250.00" rerouteNo="0" devices="tripinfo_f_0_3.9" vType="type1" speedFactor="1.14" vaporized=""/>
    <tripinfo id="f_0_2.12" depart="99.00" departLane="np2_nt2_0" departPos="24.67" departSpeed="0.00" departDelay="0.82" arrival="395.00" arrivalLane="nt15_np10_0" arrivalPos="75.00" arrivalSpeed="10.39" duration="296.00" routeLength="926.41" waitingTime="152.00" waitingCount="7" stopTime="0.00" timeLoss="215.65" rerouteNo="0" devices="tripinfo_f_0_2.12" vType="type1" speedFactor="0.97" vaporized=""/>
    <tripinfo id="f_0_0.6" depart="82.00" departLane="np13_nt13_0" departPos="12.69" departSpeed="0.00" departDelay="0.18" arrival="399.00" arrivalLane="nt4_np5_0" arrivalPos="75.00" arrivalSpeed="17.88" duration="317.00" routeLength="1335.20" waitingTime="167.00" waitingCount="8" stopTime="0.00" timeLoss="216.69" rerouteNo="0" devices="tripinfo_f_0_0.6" vType="type1" speedFactor="0.93" vaporized=""/>
    <tripinfo id="f_0_0.7" depart="96.00" departLane="np13_nt13_0" departPos="28.99" departSpeed="0.00" departDelay="0.55" arrival="418.00" arrivalLane="nt4_np5_0" arrivalPos="75.00" arrivalSpeed="17.62" duration="322.00" routeLength="1318.90" waitingTime="167.00" waitingCount="10" stopTime="0.00" timeLoss="223.27" rerouteNo="0" devices="tripinfo_f_0_0.7" vType="type1" speedFactor="0.93" vaporized=""/>
    <tripinfo id="f_0_1.3" depart="41.00" departLane="np16_nt1_0" departPos="48.84" departSpeed="0.00" departDelay="0.09" arrival="419.00" arrivalLane="nt16_np8_0" arrivalPos="75.00" arrivalSpeed="14.54" duration="378.00" routeLength="1299.04" waitingTime="189.00" waitingCount="10" stopTime="0.00" timeLoss="264.11" rerouteNo="0" devices="tripinfo_f_0_1.3" vType="type1" speedFactor="0.80" vaporized=""/>
    <tripinfo id="f_0_0.8" depart="110.00" departLane="np13_nt13_0" departPos="3.49" departSpeed="0.00" departDelay="0.91" arrival="419.00" arrivalLane="nt4_np5_0" arrivalPos="75.00" arrivalSpeed="22.07" duration="309.00" routeLength="1344.40" waitingTime="157.00" waitingCount="11" stopTime="0.00" timeLoss="228.48" rerouteNo="0" devices="tripinfo_f_0_0.8" vType="type1" speedFactor="1.15" vaporized=""/>
    <tripinfo id="f_0_1.4" depart="55.00" departLane="np16_nt1_0" departPos="41.65" departSpeed="0.00" departDelay="0.46" arrival="420.00" arrivalLane="nt16_np8_0" arrivalPos="75.00" arrivalSpeed="16.55" duration="365.00" routeLength="1306.23" waitingTime="172.00" waitingCount="11" stopTime="0.00" timeLoss="262.52" rerouteNo="0" devices="tripinfo_f_0_1.4" vType="type1" speedFactor="0.89" vaporized=""/>
    <tripinfo id="f_0_1.5" depart="69.00" departLane="np16_nt1_0" departPos="58.59" departSpeed="0.00" departDelay="0.82" arrival="422.00" arrivalLane="nt16_np8_0" arrivalPos="75.00" arrivalSpeed="20.09" duration="353.00" routeLength="1289.29" waitingTime="162.00" waitingCount="11" stopTime="0.00" timeLoss="266.26" rerouteNo="0" devices="tripinfo_f_0_1.5" vType="type1" speedFactor="1.05" vaporized=""/>
    <tripinfo id="f_0_0.9" depart="123.00" departLane="np13_nt13_0" departPos="55.69" departSpeed="0.00" departDelay="0.28" arrival="422.00" arrivalLane="nt4_np5_0" arrivalPos="75.00" arrivalSpeed="18.16" duration="299.00" routeLength="1292.20" waitingTime="144.00" waitingCount="12" stopTime="0.00" timeLoss="200.40" rerouteNo="0" devices="tripinfo_f_0_0.9" vType="type1" speedFactor="0.92" vaporized=""/>
    <tripinfo id="f_0_0.10" depart="137.00" departLane="np13_nt13_0" departPos="40.16" departSpeed="0.00" departDelay="0.64" arrival="423.00" arrivalLane="nt4_np5_0" arrivalPos="75.00" arrivalSpeed="18.85" duration="286.00" routeLength="1307.73" waitingTime="140.00" waitingCount="11" stopTime="0.00" timeLoss="200.38" rerouteNo="0" devices="tripinfo_f_0_0.10" vType="type1" speedFactor="1.06" vaporized=""/>
    <tripinfo id="f_0_0.11" depart="150.00" departLane="np13_nt13_0" departPos="14.85" departSpeed="0.00" departDelay="0.00" arrival="425.00" arrivalLane="nt4_np5_0" arrivalPos="75.00" arrivalSpeed="18.70" duration="275.00" routeLength="1333.04" waitingTime="119.00" waitingCount="8" stopTime="0.00" timeLoss="182.32" rerouteNo="0" devices="tripinfo_f_0_0.11" vType="type1" speedFactor="1.01" vaporized=""/>
    <tripinfo id="f_0_0.12" depart="164.00" departLane="np13_nt13_0" departPos="41.92" departSpeed="0.00" departDelay="0.37" arrival="426.00" arrivalLane="nt4_np5_0" arrivalPos="75.00" arrivalSpeed="19.37" duration="262.00" routeLength="1305.97" waitingTime="103.00" waitingCount="9" stopTime="0.00" timeLoss="173.86" rerouteNo="0" devices="tripinfo_f_0_0.12" vType="type1" speedFactor="1.03" vaporized=""/>
    <tripinfo id="f_0_0.13" depart="178.00" departLane="np13_nt13_0" departPos="43.26" departSpeed="0.00" departDelay="0.73" arrival="429.00" arrivalLane="nt4_np5_0" arrivalPos="75.00" arrivalSpeed="15.56" duration="251.00" routeLength="1304.63" waitingTime="79.00" waitingCount="9" stopTime="0.00" timeLoss="144.91" rerouteNo="0" devices="tripinfo_f_0_0.13" vType="type1" speedFactor="0.86" vaporized=""/>
    <tripinfo id="f_0_0.14" depart="191.00" departLane="np13_nt13_0" departPos="29.07" departSpeed="0.00" departDelay="0.10" arrival="438.00" arrivalLane="nt4_np5_0" arrivalPos="75.00" arrivalSpeed="19.72" duration="247.00" routeLength="1318.82" waitingTime="100.00" waitingCount="8" stopTime="0.00" timeLoss="159.79" rerouteNo="0" devices="tripinfo_f_0_0.14" vType="type1" speedFactor="1.05" vaporized=""/>
    <tripinfo id="f_0_0.15" depart="205.00" departLane="np13_nt13_0" departPos="4.49" departSpeed="0.00" departDelay="0.46" arrival="440.00" arrivalLane="nt4_np5_0" arrivalPos="75.00" arrivalSpeed="17.98" duration="235.00" routeLength="1343.40" waitingTime="80.00" waitingCount="8" stopTime="0.00" timeLoss="139.70" rerouteNo="0" devices="tripinfo_f_0_0.15" vType="type1" speedFactor="0.97" vaporized=""/>
    <tripinfo id="f_0_2.13" depart="107.00" departLane="np2_nt2_0" departPos="18.92" departSpeed="0.00" departDelay="0.63" arrival="441.00" arrivalLane="nt15_np10_0" arrivalPos="75.00" arrivalSpeed="9.72" duration="334.00" routeLength="932.16" waitingTime="149.00" waitingCount="11" stopTime="0.00" timeLoss="262.49" rerouteNo="0" devices="tripinfo_f_0_2.13" vType="type1" speedFactor="1.10" vaporized=""/>
    <tripinfo id="f_0_3.10" depart="123.00" departLane="np3_nt3_0" departPos="0.00" departSpeed="0.00" departDelay="41.18" arrival="442.00" arrivalLane="nt14_np11_0" arrivalPos="75.00" arrivalSpeed="11.10" duration="319.00" routeLength="951.09" waitingTime="187.00" waitingCount="10" stopTime="0.00" timeLoss="242.63" rerouteNo="0" devices="tripinfo_f_0_3.10" vType="type1" speedFactor="1.05" vaporized=""/>
    <tripinfo id="f_0_2.14" depart="115.00" departLane="np2_nt2_0" departPos="49.61" departSpeed="0.00" departDelay="0.45" arrival="444.00" arrivalLane="nt15_np10_0" arrivalPos="75.00" arrivalSpeed="11.12" duration="329.00" routeLength="901.47" waitingTime="138.00" waitingCount="11" stopTime="0.00" timeLoss="254.87" rerouteNo="0" devices="tripinfo_f_0_2.14" vType="type1" speedFactor="1.02" vaporized=""/>
    <tripinfo id="f_0_1.6" depart="82.00" departLane="np16_nt1_0" departPos="38.19" departSpeed="0.00" departDelay="0.18" arrival="448.00" arrivalLane="nt16_np8_0" arrivalPos="75.00" arrivalSpeed="18.80" duration="366.00" routeLength="1309.69" waitingTime="165.00" waitingCount="12" stopTime="0.00" timeLoss="277.38" rerouteNo="0" devices="tripinfo_f_0_1.6" vType="type1" speedFactor="1.03" vaporized=""/>
    <tripinfo id="f_0_0.16" depart="219.00" departLane="np13_nt13_0" departPos="59.76" departSpeed="0.00" departDelay="0.82" arrival="448.00" arrivalLane="nt4_np5_0" arrivalPos="75.00" arrivalSpeed="19.36" duration="229.00" routeLength="1288.13" waitingTime="78.00" waitingCount="10" stopTime="0.00" timeLoss="140.62" rerouteNo="0" devices="tripinfo_f_0_0.16" vType="type1" speedFactor="1.02" vaporized=""/>
    <tripinfo id="f_0_0.17" depart="232.00" departLane="np13_nt13_0" departPos="64.11" departSpeed="0.00" departDelay="0.19" arrival="459.00" arrivalLane="nt4_np5_0" arrivalPos="75.00" arrivalSpeed="15.14" duration="227.00" routeLength="1283.78" waitingTime="78.00" waitingCount="8" stopTime="0.00" timeLoss="116.47" rerouteNo="0" devices="tripinfo_f_0_0.17" vType="type1" speedFactor="0.81" vaporized=""/>
    <tripinfo id="f_0_0.18" depart="246.00" departLane="np13_nt13_0" departPos="50.44" departSpeed="0.00" departDelay="0.55" arrival="460.00" arrivalLane="nt4_np5_0" arrivalPos="75.00" arrivalSpeed="21.17" duration="214.00" routeLength="1297.45" waitingTime="64.00" waitingCount="9" stopTime="0.00" timeLoss="130.18" rerouteNo="0" devices="tripinfo_f_0_0.18" vType="type1" speedFactor="1.08" vaporized=""/>
    <tripinfo id="f_0_2.15" depart="123.00" departLane="np2_nt2_0" departPos="11.08" departSpeed="0.00" departDelay="0.27" arrival="467.00" arrivalLane="nt15_np10_0" arrivalPos="75.00" arrivalSpeed="8.94" duration="344.00" routeLength="940.00" waitingTime="151.00" waitingCount="12" stopTime="0.00" timeLoss="263.77" rerouteNo="0" devices="tripinfo_f_0_2.15" vType="type1" speedFactor="0.98" vaporized=""/>
    <tripinfo id="f_0_2.16" depart="131.00" departLane="np2_nt2_0" departPos="11.94" departSpeed="0.00" departDelay="0.09" arrival="469.00" arrivalLane="nt15_np10_0" arrivalPos="75.00" arrivalSpeed="9.91" duration="338.00" routeLength="939.14" waitingTime="160.00" waitingCount="10" stopTime="0.00" timeLoss="266.24" rerouteNo="0" devices="tripinfo_f_0_2.16" vType="type1" speedFactor="1.10" vaporized=""/>
    <tripinfo id="f_0_0.19" depart="260.00" departLane="np13_nt13_0" departPos="1.85" departSpeed="0.00" departDelay="0.92" arrival="472.00" arrivalLane="nt4_np5_0" arrivalPos="75.00" arrivalSpeed="17.75" duration="212.00" routeLength="1346.04" waitingTime="60.00" waitingCount="8" stopTime="0.00" timeLoss="107.35" rerouteNo="0" devices="tripinfo_f_0_0.19" vType="type1" speedFactor="0.89" vaporized=""/>
    <tripinfo id="f_0_0.20" depart="273.00" departLane="np13_nt13_0" departPos="46.94" departSpeed="0.00" departDelay="0.28" arrival="474.00" arrivalLane="nt4_np5_0" arrivalPos="75.00" arrivalSpeed="20.82" duration="201.00" routeLength="1300.95" waitingTime="51.00" waitingCount="7" stopTime="0.00" timeLoss="113.66" rerouteNo="0" devices="tripinfo_f_0_0.20" vType="type1" speedFactor="1.05" vaporized=""/>
    <tripinfo id="f_0_3.11" depart="137.00" departLane="np3_nt3_0" departPos="0.00" departSpeed="0.00" departDelay="47.00" arrival="487.00" arrivalLane="nt14_np11_0" arrivalPos="75.00" arrivalSpeed="10.72" duration="350.00" routeLength="951.09" waitingTime="211.00" waitingCount="11" stopTime="0.00" timeLoss="278.07" rerouteNo="0" devices="tripinfo_f_0_3.11" vType="type1" speedFactor="1.12" vaporized=""/>
    <tripinfo id="f_0_2.17" depart="140.00" departLane="np2_nt2_0" departPos="36.84" departSpeed="0.00" departDelay="0.91" arrival="487.00" arrivalLane="nt15_np10_0" arrivalPos="75.00" arrivalSpeed="9.56" duration="347.00" routeLength="914.24" waitingTime="145.00" waitingCount="11" stopTime="0.00" timeLoss="271.99" rerouteNo="0" devices="tripinfo_f_0_2.17" vType="type1" speedFactor="1.03" vaporized=""/>
    <tripinfo id="f_0_3.12" depart="140.00" departLane="np3_nt3_0" departPos="0.00" departSpeed="0.00" departDelay="41.82" arrival="488.00" arrivalLane="nt14_np11_0" arrivalPos="75.00" arrivalSpeed="10.31" duration="348.00" routeLength="951.09" waitingTime="200.00" waitingCount="9" stopTime="0.00" timeLoss="273.41" rerouteNo="0" devices="tripinfo_f_0_3.12" vType="type1" speedFactor="1.07" vaporized=""/>
    <tripinfo id="f_0_0.21" depart="287.00" departLane="np13_nt13_0" departPos="35.35" departSpeed="0.00" departDelay="0.64" arrival="488.00" arrivalLane="nt4_np5_0" arrivalPos="75.00" arrivalSpeed="17.26" duration="201.00" routeLength="1312.54" waitingTime="59.00" waitingCount="9" stopTime="0.00" timeLoss="106.70" rerouteNo="0" devices="tripinfo_f_0_0.21" vType="type1" speedFactor="0.97" vaporized=""/>
    <tripinfo id="f_0_2.18" depart="148.00" departLane="np2_nt2_0" departPos="35.66" departSpeed="0.00" departDelay="0.72" arrival="490.00" arrivalLane="nt15_np10_0" arrivalPos="75.00" arrivalSpeed="8.61" duration="342.00" routeLength="915.42" waitingTime="130.00" waitingCount="9" stopTime="0.00" timeLoss="256.42" rerouteNo="0" devices="tripinfo_f_0_2.18" vType="type1" speedFactor="0.90" vaporized=""/>
    <tripinfo id="f_0_0.22" depart="300.00" departLane="np13_nt13_0" departPos="64.21" departSpeed="0.00" departDelay="0.01" arrival="490.00" arrivalLane="nt4_np5_0" arrivalPos="75.00" arrivalSpeed="19.13" duration="190.00" routeLength="1283.68" waitingTime="44.00" waitingCount="9" stopTime="0.00" timeLoss="96.37" rerouteNo="0" devices="tripinfo_f_0_0.22" vType="type1" speedFactor="0.96" vaporized=""/>
    <tripinfo id="f_1_0.0" depart="300.00" departLane="np13_nt13_0" departPos="37.89" departSpeed="0.00" departDelay="0.00" arrival="491.00" arrivalLane="nt4_np5_0" arrivalPos="75.00" arrivalSpeed="19.56" duration="191.00" routeLength="1310.00" waitingTime="41.00" waitingCount="8" stopTime="0.00" timeLoss="113.27" rerouteNo="0" devices="tripinfo_f_1_0.0" vType="type1" speedFactor="1.17" vaporized=""/>
    <tripinfo id="f_0_2.19" depart="156.00" departLane="np2_nt2_0" departPos="18.50" departSpeed="0.00" departDelay="0.54" arrival="493.00" arrivalLane="nt15_np10_0" arrivalPos="75.00" arrivalSpeed="10.49" duration="337.00" routeLength="932.58" waitingTime="128.00" waitingCount="9" stopTime="0.00" timeLoss="262.10" rerouteNo="0" devices="tripinfo_f_0_2.19" vType="type1" speedFactor="1.06" vaporized=""/>
    <tripinfo id="f_1_0.1" depart="308.00" departLane="np13_nt13_0" departPos="48.50" departSpeed="0.00" departDelay="0.19" arrival="493.00" arrivalLane="nt4_np5_0" arrivalPos="75.00" arrivalSpeed="21.12" duration="185.00" routeLength="1299.39" waitingTime="25.00" waitingCount="7" stopTime="0.00" timeLoss="100.09" rerouteNo="0" devices="tripinfo_f_1_0.1" vType="type1" speedFactor="1.07" vaporized=""/>
    <tripinfo id="f_1_0.2" depart="316.00" departLane="np13_nt13_0" departPos="60.06" departSpeed="0.00" departDelay="0.38" arrival="495.00" arrivalLane="nt4_np5_0" arrivalPos="75.00" arrivalSpeed="21.64" duration="179.00" routeLength="1287.83" waitingTime="27.00" waitingCount="6" stopTime="0.00" timeLoss="97.14" rerouteNo="0" devices="tripinfo_f_1_0.2" vType="type1" speedFactor="1.11" vaporized=""/>
    <tripinfo id="f_0_3.14" depart="159.00" departLane="np3_nt3_0" departPos="0.00" departSpeed="0.00" departDelay="44.45" arrival="496.00" arrivalLane="nt14_np11_0" arrivalPos="75.00" arrivalSpeed="10.50" duration="337.00" routeLength="951.09" waitingTime="196.00" waitingCount="11" stopTime="0.00" timeLoss="267.73" rerouteNo="0" devices="tripinfo_f_0_3.14" vType="type1" speedFactor="1.16" vaporized=""/>
    <tripinfo id="f_1_0.3" depart="324.00" departLane="np13_nt13_0" departPos="6.12" departSpeed="0.00" departDelay="0.57" arrival="497.00" arrivalLane="nt4_np5_0" arrivalPos="75.00" arrivalSpeed="18.71" duration="173.00" routeLength="1341.77" waitingTime="38.00" waitingCount="5" stopTime="0.00" timeLoss="80.08" rerouteNo="0" devices="tripinfo_f_1_0.3" vType="type1" speedFactor="1.00" vaporized=""/>
    <tripinfo id="f_0_1.7" depart="96.00" departLane="np16_nt1_0" departPos="62.09" departSpeed="0.00" departDelay="0.55" arrival="498.00" arrivalLane="nt16_np8_0" arrivalPos="75.00" arrivalSpeed="21.13" duration="402.00" routeLength="1285.79" waitingTime="189.00" waitingCount="13" stopTime="0.00" timeLoss="321.17" rerouteNo="0" devices="tripinfo_f_0_1.7" vType="type1" speedFactor="1.11" vaporized=""/>
    <tripinfo id="f_1_0.4" depart="332.00" departLane="np13_nt13_0" departPos="22.30" departSpeed="0.00" departDelay="0.76" arrival="498.00" arrivalLane="nt4_np5_0" arrivalPos="75.00" arrivalSpeed="19.33" duration="166.00" routeLength="1325.59" waitingTime="41.00" waitingCount="5" stopTime="0.00" timeLoss="79.89" rerouteNo="0" devices="tripinfo_f_1_0.4" vType="type1" speedFactor="1.06" vaporized=""/>