<?xml version="1.0" encoding="UTF-8"?>

<!-- generated on 2023-08-30 12:19:59 by Eclipse SUMO libsumo Version 1.18.0
<configuration xmlns:xsi="http://www.w3.org/2001/XMLSchema-instance" xsi:noNamespaceSchemaLocation="http://sumo.dlr.de/xsd/libsumoConfiguration.xsd">

    <input>
        <net-file value="/home/stefan/RESCO/./environments/arterial4x4/arterial4x4.net.xml"/>
        <route-files value="/home/stefan/RESCO/./environments/arterial4x4/arterial4x4_5.rou.xml"/>
    </input>

    <output>
        <tripinfo-output value="/home/stefan/results/ITRPO-tr0-arterial4x4-0-drq_norm-wait_norm/tripinfo_5.xml"/>
        <tripinfo-output.write-unfinished value="true"/>
    </output>

    <processing>
        <time-to-teleport value="-1"/>
    </processing>

    <report>
        <no-warnings value="True"/>
        <no-step-log value="True"/>
    </report>

    <random_number>
        <random value="true"/>
    </random_number>

</configuration>
-->

<tripinfos xmlns:xsi="http://www.w3.org/2001/XMLSchema-instance" xsi:noNamespaceSchemaLocation="http://sumo.dlr.de/xsd/tripinfo_file.xsd">
    <tripinfo id="f_0_2.0" depart="0.00" departLane="np2_nt2_0" departPos="25.29" departSpeed="0.00" departDelay="0.00" arrival="132.00" arrivalLane="nt15_np10_0" arrivalPos="75.00" arrivalSpeed="10.38" duration="132.00" routeLength="925.79" waitingTime="32.00" waitingCount="4" stopTime="0.00" timeLoss="54.73" rerouteNo="0" devices="tripinfo_f_0_2.0" vType="type1" speedFactor="1.01" vaporized=""/>
    <tripinfo id="f_0_2.1" depart="9.00" departLane="np2_nt2_0" departPos="33.40" departSpeed="0.00" departDelay="0.82" arrival="135.00" arrivalLane="nt15_np10_0" arrivalPos="75.00" arrivalSpeed="10.77" duration="126.00" routeLength="917.68" waitingTime="22.00" waitingCount="4" stopTime="0.00" timeLoss="51.08" rerouteNo="0" devices="tripinfo_f_0_2.1" vType="type1" speedFactor="1.03" vaporized=""/>
    <tripinfo id="f_0_3.0" depart="0.00" departLane="np3_nt3_0" departPos="44.70" departSpeed="0.00" departDelay="0.00" arrival="142.00" arrivalLane="nt14_np11_0" arrivalPos="75.00" arrivalSpeed="9.61" duration="142.00" routeLength="906.39" waitingTime="40.00" waitingCount="5" stopTime="0.00" timeLoss="70.23" rerouteNo="0" devices="tripinfo_f_0_3.0" vType="type1" speedFactor="1.06" vaporized=""/>
    <tripinfo id="f_0_0.0" depart="0.00" departLane="np13_nt13_0" departPos="26.24" departSpeed="0.00" departDelay="0.00" arrival="213.00" arrivalLane="nt4_np5_0" arrivalPos="75.00" arrivalSpeed="17.77" duration="213.00" routeLength="1321.65" waitingTime="89.00" waitingCount="3" stopTime="0.00" timeLoss="118.94" rerouteNo="0" devices="tripinfo_f_0_0.0" vType="type1" speedFactor="0.98" vaporized=""/>
    <tripinfo id="f_0_3.1" depart="9.00" departLane="np3_nt3_0" departPos="8.84" departSpeed="0.00" departDelay="0.82" arrival="239.00" arrivalLane="nt14_np11_0" arrivalPos="75.00" arrivalSpeed="8.87" duration="230.00" routeLength="942.25" waitingTime="112.00" waitingCount="4" stopTime="0.00" timeLoss="142.49" rerouteNo="0" devices="tripinfo_f_0_3.1" vType="type1" speedFactor="0.91" vaporized=""/>
    <tripinfo id="f_0_3.2" depart="17.00" departLane="np3_nt3_0" departPos="46.78" departSpeed="0.00" departDelay="0.64" arrival="241.00" arrivalLane="nt14_np11_0" arrivalPos="75.00" arrivalSpeed="9.54" duration="224.00" routeLength="904.31" waitingTime="110.00" waitingCount="5" stopTime="0.00" timeLoss="154.02" rerouteNo="0" devices="tripinfo_f_0_3.2" vType="type1" speedFactor="1.09" vaporized=""/>
    <tripinfo id="f_0_3.3" depart="25.00" departLane="np3_nt3_0" departPos="17.59" departSpeed="0.00" departDelay="0.45" arrival="242.00" arrivalLane="nt14_np11_0" arrivalPos="75.00" arrivalSpeed="9.33" duration="217.00" routeLength="933.50" waitingTime="99.00" waitingCount="5" stopTime="0.00" timeLoss="141.38" rerouteNo="0" devices="tripinfo_f_0_3.3" vType="type1" speedFactor="1.04" vaporized=""/>
    <tripinfo id="f_0_3.4" depart="33.00" departLane="np3_nt3_0" departPos="29.39" departSpeed="0.00" departDelay="0.27" arrival="244.00" arrivalLane="nt14_np11_0" arrivalPos="75.00" arrivalSpeed="12.08" duration="211.00" routeLength="921.70" waitingTime="92.00" waitingCount="5" stopTime="0.00" timeLoss="145.29" rerouteNo="0" devices="tripinfo_f_0_3.4" vType="type1" speedFactor="1.18" vaporized=""/>
    <tripinfo id="f_0_0.1" depart="14.00" departLane="np13_nt13_0" departPos="49.77" departSpeed="0.00" departDelay="0.36" arrival="248.00" arrivalLane="nt4_np5_0" arrivalPos="75.00" arrivalSpeed="18.65" duration="234.00" routeLength="1298.12" waitingTime="112.00" waitingCount="5" stopTime="0.00" timeLoss="146.28" rerouteNo="0" devices="tripinfo_f_0_0.1" vType="type1" speedFactor="1.03" vaporized=""/>
    <tripinfo id="f_0_3.5" depart="41.00" departLane="np3_nt3_0" departPos="15.75" departSpeed="0.00" departDelay="0.09" arrival="267.00" arrivalLane="nt14_np11_0" arrivalPos="75.00" arrivalSpeed="10.82" duration="226.00" routeLength="935.34" waitingTime="101.00" waitingCount="6" stopTime="0.00" timeLoss="147.43" rerouteNo="0" devices="tripinfo_f_0_3.5" vType="type1" speedFactor="1.00" vaporized=""/>
    <tripinfo id="f_0_2.2" depart="17.00" departLane="np2_nt2_0" departPos="47.25" departSpeed="0.00" departDelay="0.64" arrival="283.00" arrivalLane="nt15_np10_0" arrivalPos="75.00" arrivalSpeed="10.35" duration="266.00" routeLength="903.83" waitingTime="156.00" waitingCount="5" stopTime="0.00" timeLoss="185.98" rerouteNo="0" devices="tripinfo_f_0_2.2" vType="type1" speedFactor="0.95" vaporized=""/>
    <tripinfo id="f_0_1.0" depart="0.00" departLane="np16_nt1_0" departPos="60.50" departSpeed="0.00" departDelay="0.00" arrival="294.00" arrivalLane="nt16_np8_0" arrivalPos="75.00" arrivalSpeed="15.87" duration="294.00" routeLength="1287.38" waitingTime="158.00" waitingCount="6" stopTime="0.00" timeLoss="194.64" rerouteNo="0" devices="tripinfo_f_0_1.0" vType="type1" speedFactor="0.91" vaporized=""/>
    <tripinfo id="f_0_2.3" depart="25.00" departLane="np2_nt2_0" departPos="20.56" departSpeed="0.00" departDelay="0.45" arrival="299.00" arrivalLane="nt15_np10_0" arrivalPos="75.00" arrivalSpeed="9.00" duration="274.00" routeLength="930.52" waitingTime="145.00" waitingCount="6" stopTime="0.00" timeLoss="183.93" rerouteNo="0" devices="tripinfo_f_0_2.3" vType="type1" speedFactor="0.87" vaporized=""/>
    <tripinfo id="f_0_1.1" depart="14.00" departLane="np16_nt1_0" departPos="55.23" departSpeed="0.00" departDelay="0.36" arrival="303.00" arrivalLane="nt16_np8_0" arrivalPos="75.00" arrivalSpeed="21.68" duration="289.00" routeLength="1292.65" waitingTime="159.00" waitingCount="6" stopTime="0.00" timeLoss="207.59" rerouteNo="0" devices="tripinfo_f_0_1.1" vType="type1" speedFactor="1.12" vaporized=""/>
    <tripinfo id="f_0_3.6" depart="50.00" departLane="np3_nt3_0" departPos="2.87" departSpeed="0.00" departDelay="0.91" arrival="304.00" arrivalLane="nt14_np11_0" arrivalPos="75.00" arrivalSpeed="9.62" duration="254.00" routeLength="948.22" waitingTime="128.00" waitingCount="5" stopTime="0.00" timeLoss="163.31" rerouteNo="0" devices="tripinfo_f_0_3.6" vType="type1" speedFactor="0.88" vaporized=""/>
    <tripinfo id="f_0_0.2" depart="28.00" departLane="np13_nt13_0" departPos="42.28" departSpeed="0.00" departDelay="0.73" arrival="309.00" arrivalLane="nt4_np5_0" arrivalPos="75.00" arrivalSpeed="19.07" duration="281.00" routeLength="1305.61" waitingTime="152.00" waitingCount="6" stopTime="0.00" timeLoss="188.76" rerouteNo="0" devices="tripinfo_f_0_0.2" vType="type1" speedFactor="0.99" vaporized=""/>
    <tripinfo id="f_0_3.7" depart="58.00" departLane="np3_nt3_0" departPos="2.66" departSpeed="0.00" departDelay="0.73" arrival="337.00" arrivalLane="nt14_np11_0" arrivalPos="75.00" arrivalSpeed="11.20" duration="279.00" routeLength="948.43" waitingTime="168.00" waitingCount="5" stopTime="0.00" timeLoss="201.42" rerouteNo="0" devices="tripinfo_f_0_3.7" vType="type1" speedFactor="1.03" vaporized=""/>
    <tripinfo id="f_0_3.8" depart="66.00" departLane="np3_nt3_0" departPos="3.24" departSpeed="0.00" departDelay="0.54" arrival="354.00" arrivalLane="nt14_np11_0" arrivalPos="75.00" arrivalSpeed="8.29" duration="288.00" routeLength="947.85" waitingTime="176.00" waitingCount="6" stopTime="0.00" timeLoss="206.39" rerouteNo="0" devices="tripinfo_f_0_3.8" vType="type1" speedFactor="0.97" vaporized=""/>
    <tripinfo id="f_0_3.9" depart="74.00" departLane="np3_nt3_0" departPos="32.57" departSpeed="0.00" departDelay="0.36" arrival="467.00" arrivalLane="nt14_np11_0" arrivalPos="75.00" arrivalSpeed="11.06" duration="393.00" routeLength="918.52" waitingTime="280.00" waitingCount="7" stopTime="0.00" timeLoss="317.96" rerouteNo="0" devices="tripinfo_f_0_3.9" vType="type1" speedFactor="1.03" vaporized=""/>
    <tripinfo id="f_0_3.10" depart="82.00" departLane="np3_nt3_0" departPos="3.53" departSpeed="0.00" departDelay="0.18" arrival="537.00" arrivalLane="nt14_np11_0" arrivalPos="75.00" arrivalSpeed="9.93" duration="455.00" routeLength="947.56" waitingTime="328.00" waitingCount="8" stopTime="0.00" timeLoss="371.98" rerouteNo="0" devices="tripinfo_f_0_3.10" vType="type1" speedFactor="0.96" vaporized=""/>
    <tripinfo id="f_0_3.11" depart="90.00" departLane="np3_nt3_0" departPos="13.95" departSpeed="0.00" departDelay="0.00" arrival="540.00" arrivalLane="nt14_np11_0" arrivalPos="75.00" arrivalSpeed="9.38" duration="450.00" routeLength="937.14" waitingTime="323.00" waitingCount="9" stopTime="0.00" timeLoss="370.92" rerouteNo="0" devices="tripinfo_f_0_3.11" vType="type1" speedFactor="1.00" vaporized=""/>
    <tripinfo id="f_0_3.12" depart="99.00" departLane="np3_nt3_0" departPos="1.41" departSpeed="0.00" departDelay="0.82" arrival="557.00" arrivalLane="nt14_np11_0" arrivalPos="75.00" arrivalSpeed="10.28" duration="458.00" routeLength="949.68" waitingTime="317.00" waitingCount="11" stopTime="0.00" timeLoss="373.89" rerouteNo="0" devices="tripinfo_f_0_3.12" vType="type1" speedFactor="0.94" vaporized=""/>
    <tripinfo id="f_0_3.13" depart="107.00" departLane="np3_nt3_0" departPos="2.02" departSpeed="0.00" departDelay="0.63" arrival="559.00" arrivalLane="nt14_np11_0" arrivalPos="75.00" arrivalSpeed="9.68" duration="452.00" routeLength="949.07" waitingTime="305.00" waitingCount="12" stopTime="0.00" timeLoss="371.85" rerouteNo="0" devices="tripinfo_f_0_3.13" vType="type1" speedFactor="0.99" vaporized=""/>
    <tripinfo id="f_0_3.14" depart="115.00" departLane="np3_nt3_0" departPos="0.00" departSpeed="0.00" departDelay="0.45" arrival="618.00" arrivalLane="nt14_np11_0" arrivalPos="75.00" arrivalSpeed="9.57" duration="503.00" routeLength="951.09" waitingTime="349.00" waitingCount="12" stopTime="0.00" timeLoss="418.79" rerouteNo="0" devices="tripinfo_f_0_3.14" vType="type1" speedFactor="0.95" vaporized=""/>
    <tripinfo id="f_0_3.15" depart="139.00" departLane="np3_nt3_0" departPos="0.00" departSpeed="0.00" departDelay="16.27" arrival="620.00" arrivalLane="nt14_np11_0" arrivalPos="75.00" arrivalSpeed="8.83" duration="481.00" routeLength="951.09" waitingTime="323.00" waitingCount="10" stopTime="0.00" timeLoss="401.98" rerouteNo="0" devices="tripinfo_f_0_3.15" vType="type1" speedFactor="1.02" vaporized=""/>
    <tripinfo id="f_0_3.16" depart="198.00" departLane="np3_nt3_0" departPos="0.00" departSpeed="0.00" departDelay="67.09" arrival="627.00" arrivalLane="nt14_np11_0" arrivalPos="75.00" arrivalSpeed="8.83" duration="429.00" routeLength="951.09" waitingTime="276.00" waitingCount="11" stopTime="0.00" timeLoss="350.18" rerouteNo="0" devices="tripinfo_f_0_3.16" vType="type1" speedFactor="1.02" vaporized=""/>
    <tripinfo id="f_0_3.17" depart="228.00" departLane="np3_nt3_0" departPos="0.00" departSpeed="0.00" departDelay="88.91" arrival="630.00" arrivalLane="nt14_np11_0" arrivalPos="75.00" arrivalSpeed="7.89" duration="402.00" routeLength="951.09" waitingTime="239.00" waitingCount="11" stopTime="0.00" timeLoss="314.91" rerouteNo="0" devices="tripinfo_f_0_3.17" vType="type1" speedFactor="0.92" vaporized=""/>
    <tripinfo id="f_0_3.18" depart="293.00" departLane="np3_nt3_0" departPos="0.01" departSpeed="0.00" departDelay="145.72" arrival="739.00" arrivalLane="nt14_np11_0" arrivalPos="75.00" arrivalSpeed="8.36" duration="446.00" routeLength="951.08" waitingTime="283.00" waitingCount="12" stopTime="0.00" timeLoss="355.12" rerouteNo="0" devices="tripinfo_f_0_3.18" vType="type1" speedFactor="0.88" vaporized=""/>
    <tripinfo id="f_0_3.19" depart="296.00" departLane="np3_nt3_0" departPos="0.00" departSpeed="0.00" departDelay="140.54" arrival="764.00" arrivalLane="nt14_np11_0" arrivalPos="75.00" arrivalSpeed="8.02" duration="468.00" routeLength="951.09" waitingTime="293.00" waitingCount="12" stopTime="0.00" timeLoss="369.57" rerouteNo="0" devices="tripinfo_f_0_3.19" vType="type1" speedFactor="0.81" vaporized=""/>
    <tripinfo id="f_0_3.20" depart="299.00" departLane="np3_nt3_0" departPos="0.00" departSpeed="0.00" departDelay="135.36" arrival="801.00" arrivalLane="nt14_np11_0" arrivalPos="75.00" arrivalSpeed="12.17" duration="502.00" routeLength="951.09" waitingTime="323.00" waitingCount="13" stopTime="0.00" timeLoss="431.03" rerouteNo="0" devices="tripinfo_f_0_3.20" vType="type1" speedFactor="1.14" vaporized=""/>
    <tripinfo id="f_0_3.21" depart="369.00" departLane="np3_nt3_0" departPos="0.00" departSpeed="0.00" departDelay="197.18" arrival="912.00" arrivalLane="nt14_np11_0" arrivalPos="75.00" arrivalSpeed="8.73" duration="543.00" routeLength="951.09" waitingTime="370.00" waitingCount="11" stopTime="0.00" timeLoss="464.61" rerouteNo="0" devices="tripinfo_f_0_3.21" vType="type1" speedFactor="1.01" vaporized=""/>
    <tripinfo id="f_0_3.22" depart="378.00" departLane="np3_nt3_0" departPos="0.00" departSpeed="0.00" departDelay="198.00" arrival="916.00" arrivalLane="nt14_np11_0" arrivalPos="75.00" arrivalSpeed="9.75" duration="538.00" routeLength="951.09" waitingTime="356.00" waitingCount="11" stopTime="0.00" timeLoss="447.44" rerouteNo="0" devices="tripinfo_f_0_3.22" vType="type1" speedFactor="0.89" vaporized=""/>
    <tripinfo id="f_3_5.0" depart="900.00" departLane="np8_nt16_0" departPos="23.32" departSpeed="0.00" departDelay="0.00" arrival="2359.00" arrivalLane="nt1_np16_0" arrivalPos="67.80" arrivalSpeed="16.58" duration="1459.00" routeLength="1324.56" waitingTime="1315.00" waitingCount="5" stopTime="0.00" timeLoss="1350.88" rerouteNo="0" devices="tripinfo_f_3_5.0" vType="type1" speedFactor="0.86" vaporized=""/>
    <tripinfo id="f_3_5.1" depart="922.00" departLane="np8_nt16_0" departPos="40.64" departSpeed="0.00" departDelay="0.31" arrival="2407.00" arrivalLane="nt1_np16_0" arrivalPos="67.80" arrivalSpeed="21.57" duration="1485.00" routeLength="1307.24" waitingTime="1354.00" waitingCount="7" stopTime="0.00" timeLoss="1402.91" rerouteNo="0" devices="tripinfo_f_3_5.1" vType="type1" speedFactor="1.11" vaporized=""/>
    <tripinfo id="f_3_5.2" depart="944.00" departLane="np8_nt16_0" departPos="17.24" departSpeed="0.00" departDelay="0.63" arrival="2549.00" arrivalLane="nt1_np16_0" arrivalPos="67.80" arrivalSpeed="18.11" duration="1605.00" routeLength="1330.64" waitingTime="1467.00" waitingCount="8" stopTime="0.00" timeLoss="1507.54" rerouteNo="0" devices="tripinfo_f_3_5.2" vType="type1" speedFactor="0.95" vaporized=""/>
    <tripinfo id="f_3_5.3" depart="966.00" departLane="np8_nt16_0" departPos="57.46" departSpeed="0.00" departDelay="0.94" arrival="2588.00" arrivalLane="nt1_np16_0" arrivalPos="67.80" arrivalSpeed="23.12" duration="1622.00" routeLength="1290.42" waitingTime="1494.00" waitingCount="10" stopTime="0.00" timeLoss="1546.30" rerouteNo="0" devices="tripinfo_f_3_5.3" vType="type1" speedFactor="1.18" vaporized=""/>
    <tripinfo id="f_4_5.7" depart="1257.00" departLane="np8_nt16_0" departPos="59.32" departSpeed="0.00" departDelay="0.24" arrival="2594.00" arrivalLane="nt1_np16_0" arrivalPos="67.80" arrivalSpeed="22.23" duration="1337.00" routeLength="1288.56" waitingTime="1105.00" waitingCount="19" stopTime="0.00" timeLoss="1257.29" rerouteNo="0" devices="tripinfo_f_4_5.7" vType="type1" speedFactor="1.14" vaporized=""/>
    <tripinfo id="f_4_5.9" depart="1273.00" departLane="np8_nt16_0" departPos="57.74" departSpeed="0.00" departDelay="0.03" arrival="2823.00" arrivalLane="nt1_np16_0" arrivalPos="67.80" arrivalSpeed="15.73" duration="1550.00" routeLength="1290.14" waitingTime="1308.00" waitingCount="15" stopTime="0.00" timeLoss="1449.92" rerouteNo="0" devices="tripinfo_f_4_5.9" vType="type1" speedFactor="0.90" vaporized=""/>
    <tripinfo id="f_3_5.4" depart="987.00" departLane="np8_nt16_0" departPos="2.59" departSpeed="0.00" departDelay="0.25" arrival="2848.00" arrivalLane="nt1_np16_0" arrivalPos="67.80" arrivalSpeed="18.93" duration="1861.00" routeLength="1345.29" waitingTime="1706.00" waitingCount="8" stopTime="0.00" timeLoss="1768.53" rerouteNo="0" devices="tripinfo_f_3_5.4" vType="type1" speedFactor="1.01" vaporized=""/>
    <tripinfo id="f_3_5.5" depart="1009.00" departLane="np8_nt16_0" departPos="74.27" departSpeed="0.00" departDelay="0.56" arrival="3215.00" arrivalLane="nt1_np16_0" arrivalPos="67.80" arrivalSpeed="14.99" duration="2206.00" routeLength="1273.61" waitingTime="2045.00" waitingCount="10" stopTime="0.00" timeLoss="2100.14" rerouteNo="0" devices="tripinfo_f_3_5.5" vType="type1" speedFactor="0.85" vaporized=""/>
    <tripinfo id="f_0_1.2" depart="28.00" departLane="np16_nt1_0" departPos="58.15" departSpeed="0.00" departDelay="0.73" arrival="-1.00" arrivalLane="" arrivalPos="-1.00" arrivalSpeed="-1.00" duration="3572.00" routeLength="559.69" waitingTime="3491.00" waitingCount="8" stopTime="0.00" timeLoss="3535.53" rerouteNo="0" devices="tripinfo_f_0_1.2" vType="type1" speedFactor="0.97" vaporized="end"/>
    <tripinfo id="f_0_2.4" depart="33.00" departLane="np2_nt2_0" departPos="15.17" departSpeed="0.00" departDelay="0.27" arrival="-1.00" arrivalLane="" arrivalPos="-1.00" arrivalSpeed="-1.00" duration="3567.00" routeLength="439.10" waitingTime="3504.00" waitingCount="6" stopTime="0.00" timeLoss="3531.49" rerouteNo="0" devices="tripinfo_f_0_2.4" vType="type1" speedFactor="0.96" vaporized="end"/>
    <tripinfo id="f_0_0.3" depart="41.00" departLane="np13_nt13_0" departPos="18.83" departSpeed="0.00" departDelay="0.09" arrival="-1.00" arrivalLane="" arrivalPos="-1.00" arrivalSpeed="-1.00" duration="3559.00" routeLength="836.20" waitingTime="3474.00" waitingCount="5" stopTime="0.00" timeLoss="3497.80" rerouteNo="0" devices="tripinfo_f_0_0.3" vType="type1" speedFactor="0.97" vaporized="end"/>
    <tripinfo id="f_0_1.3" depart="41.00" departLane="np16_nt1_0" departPos="57.33" departSpeed="0.00" departDelay="0.09" arrival="-1.00" arrivalLane="" arrivalPos="-1.00" arrivalSpeed="-1.00" duration="3559.00" routeLength="545.51" waitingTime="3467.00" waitingCount="9" stopTime="0.00" timeLoss="3519.48" rerouteNo="0" devices="tripinfo_f_0_1.3" vType="type1" speedFactor="0.86" vaporized="end"/>
    <tripinfo id="f_0_2.5" depart="41.00" departLane="np2_nt2_0" departPos="27.69" departSpeed="0.00" departDelay="0.09" arrival="-1.00" arrivalLane="" arrivalPos="-1.00" arrivalSpeed="-1.00" duration="3559.00" routeLength="419.09" waitingTime="3491.00" waitingCount="7" stopTime="0.00" timeLoss="3524.78" rerouteNo="0" devices="tripinfo_f_0_2.5" vType="type1" speedFactor="0.94" vaporized="end"/>
    <tripinfo id="f_0_2.6" depart="50.00" departLane="np2_nt2_0" departPos="40.70" departSpeed="0.00" departDelay="0.91" arrival="-1.00" arrivalLane="" arrivalPos="-1.00" arrivalSpeed="-1.00" duration="3550.00" routeLength="398.58" waitingTime="3483.00" waitingCount="8" stopTime="0.00" timeLoss="3522.23" rerouteNo="0" devices="tripinfo_f_0_2.6" vType="type1" speedFactor="1.09" vaporized="end"/>
    <tripinfo id="f_0_0.4" depart="55.00" departLane="np13_nt13_0" departPos="8.74" departSpeed="0.00" departDelay="0.46" arrival="-1.00" arrivalLane="" arrivalPos="-1.00" arrivalSpeed="-1.00" duration="3545.00" routeLength="838.78" waitingTime="3467.00" waitingCount="3" stopTime="0.00" timeLoss="3483.53" rerouteNo="0" devices="tripinfo_f_0_0.4" vType="type1" speedFactor="0.96" vaporized="end"/>
    <tripinfo id="f_0_1.4" depart="55.00" departLane="np16_nt1_0" departPos="6.17" departSpeed="0.00" departDelay="0.46" arrival="-1.00" arrivalLane="" arrivalPos="-1.00" arrivalSpeed="-1.00" duration="3545.00" routeLength="581.67" waitingTime="3447.00" waitingCount="6" stopTime="0.00" timeLoss="3509.30" rerouteNo="0" devices="tripinfo_f_0_1.4" vType="type1" speedFactor="1.00" vaporized="end"/>
    <tripinfo id="f_0_2.7" depart="58.00" departLane="np2_nt2_0" departPos="2.24" departSpeed="0.00" departDelay="0.73" arrival="-1.00" arrivalLane="" arrivalPos="-1.00" arrivalSpeed="-1.00" duration="3542.00" routeLength="429.54" waitingTime="3469.00" waitingCount="7" stopTime="0.00" timeLoss="3511.74" rerouteNo="0" devices="tripinfo_f_0_2.7" vType="type1" speedFactor="1.11" vaporized="end"/>
    <tripinfo id="f_0_2.8" depart="66.00" departLane="np2_nt2_0" departPos="5.34" departSpeed="0.00" departDelay="0.54" arrival="-1.00" arrivalLane="" arrivalPos="-1.00" arrivalSpeed="-1.00" duration="3534.00" routeLength="418.93" waitingTime="3463.00" waitingCount="7" stopTime="0.00" timeLoss="3502.43" rerouteNo="0" devices="tripinfo_f_0_2.8" vType="type1" speedFactor="1.03" vaporized="end"/>
    <tripinfo id="f_0_0.5" depart="69.00" departLane="np13_nt13_0" departPos="32.42" departSpeed="0.00" departDelay="0.82" arrival="-1.00" arrivalLane="" arrivalPos="-1.00" arrivalSpeed="-1.00" duration="3531.00" routeLength="807.61" waitingTime="3448.00" waitingCount="5" stopTime="0.00" timeLoss="3472.08" rerouteNo="0" devices="tripinfo_f_0_0.5" vType="type1" speedFactor="0.97" vaporized="end"/>
    <tripinfo id="f_0_1.5" depart="69.00" departLane="np16_nt1_0" departPos="24.62" departSpeed="0.00" departDelay="0.82" arrival="-1.00" arrivalLane="" arrivalPos="-1.00" arrivalSpeed="-1.00" duration="3531.00" routeLength="555.72" waitingTime="3435.00" waitingCount="6" stopTime="0.00" timeLoss="3494.31" rerouteNo="0" devices="tripinfo_f_0_1.5" vType="type1" speedFactor="0.92" vaporized="end"/>
    <tripinfo id="f_0_2.9" depart="74.00" departLane="np2_nt2_0" departPos="46.52" departSpeed="0.00" departDelay="0.36" arrival="-1.00" arrivalLane="" arrivalPos="-1.00" arrivalSpeed="-1.00" duration="3526.00" routeLength="370.25" waitingTime="3455.00" waitingCount="7" stopTime="0.00" timeLoss="3493.75" rerouteNo="0" devices="tripinfo_f_0_2.9" vType="type1" speedFactor="0.86" vaporized="end"/>
    <tripinfo id="f_0_0.6" depart="82.00" departLane="np13_nt13_0" departPos="29.30" departSpeed="0.00" departDelay="0.18" arrival="-1.00" arrivalLane="" arrivalPos="-1.00" arrivalSpeed="-1.00" duration="3518.00" routeLength="803.23" waitingTime="3424.00" waitingCount="4" stopTime="0.00" timeLoss="3450.36" rerouteNo="0" devices="tripinfo_f_0_0.6" vType="type1" speedFactor="0.84" vaporized="end"/>
    <tripinfo id="f_0_1.6" depart="82.00" departLane="np16_nt1_0" departPos="13.10" departSpeed="0.00" departDelay="0.18" arrival="-1.00" arrivalLane="" arrivalPos="-1.00" arrivalSpeed="-1.00" duration="3518.00" routeLength="559.74" waitingTime="3424.00" waitingCount="6" stopTime="0.00" timeLoss="3486.79" rerouteNo="0" devices="tripinfo_f_0_1.6" vType="type1" speedFactor="1.08" vaporized="end"/>
    <tripinfo id="f_0_2.10" depart="82.00" departLane="np2_nt2_0" departPos="34.59" departSpeed="0.00" departDelay="0.18" arrival="-1.00" arrivalLane="" arrivalPos="-1.00" arrivalSpeed="-1.00" duration="3518.00" routeLength="367.19" waitingTime="3444.00" waitingCount="8" stopTime="0.00" timeLoss="3492.77" rerouteNo="0" devices="tripinfo_f_0_2.10" vType="type1" speedFactor="1.08" vaporized="end"/>
    <tripinfo id="f_0_2.11" depart="90.00" departLane="np2_nt2_0" departPos="56.28" departSpeed="0.00" departDelay="0.00" arrival="-1.00" arrivalLane="" arrivalPos="-1.00" arrivalSpeed="-1.00" duration="3510.00" routeLength="330.49" waitingTime="3435.00" waitingCount="7" stopTime="0.00" timeLoss="3485.35" rerouteNo="0" devices="tripinfo_f_0_2.11" vType="type1" speedFactor="0.99" vaporized="end"/>
    <tripinfo id="f_0_0.7" depart="96.00" departLane="np13_nt13_0" departPos="14.95" departSpeed="0.00" departDelay="0.55" arrival="-1.00" arrivalLane="" arrivalPos="-1.00" arrivalSpeed="-1.00" duration="3504.00" routeLength="810.07" waitingTime="3414.00" waitingCount="7" stopTime="0.00" timeLoss="3455.35" rerouteNo="0" devices="tripinfo_f_0_0.7" vType="type1" speedFactor="1.16" vaporized="end"/>
    <tripinfo id="f_0_1.7" depart="96.00" departLane="np16_nt1_0" departPos="54.57" departSpeed="0.00" departDelay="0.55" arrival="-1.00" arrivalLane="" arrivalPos="-1.00" arrivalSpeed="-1.00" duration="3504.00" routeLength="488.26" waitingTime="3416.00" waitingCount="7" stopTime="0.00" timeLoss="3474.03" rerouteNo="0" devices="tripinfo_f_0_1.7" vType="type1" speedFactor="0.96" vaporized="end"/>
    <tripinfo id="f_0_2.12" depart="99.00" departLane="np2_nt2_0" departPos="5.19" departSpeed="0.00" departDelay="0.82" arrival="-1.00" arrivalLane="" arrivalPos="-1.00" arrivalSpeed="-1.00" duration="3501.00" routeLength="351.58" waitingTime="3425.00" waitingCount="6" stopTime="0.00" timeLoss="3474.20" rerouteNo="0" devices="tripinfo_f_0_2.12" vType="type1" speedFactor="0.98" vaporized="end"/>
    <tripinfo id="f_0_2.13" depart="107.00" departLane="np2_nt2_0" departPos="31.43" departSpeed="0.00" departDelay="0.63" arrival="-1.00" arrivalLane="" arrivalPos="-1.00" arrivalSpeed="-1.00" duration="3493.00" routeLength="317.84" waitingTime="3416.00" waitingCount="6" stopTime="0.00" timeLoss="3470.88" rerouteNo="0" devices="tripinfo_f_0_2.13" vType="type1" speedFactor="1.05" vaporized="end"/>
    <tripinfo id="f_0_0.8" depart="110.00" departLane="np13_nt13_0" departPos="26.83" departSpeed="0.00" departDelay="0.91" arrival="-1.00" arrivalLane="" arrivalPos="-1.00" arrivalSpeed="-1.00" duration="3490.00" routeLength="790.69" waitingTime="3396.00" waitingCount="6" stopTime="0.00" timeLoss="3431.27" rerouteNo="0" devices="tripinfo_f_0_0.8" vType="type1" speedFactor="0.94" vaporized="end"/>
    <tripinfo id="f_0_1.8" depart="110.00" departLane="np16_nt1_0" departPos="67.34" departSpeed="0.00" departDelay="0.91" arrival="-1.00" arrivalLane="" arrivalPos="-1.00" arrivalSpeed="-1.00" duration="3490.00" routeLength="452.99" waitingTime="3406.00" waitingCount="8" stopTime="0.00" timeLoss="3462.99" rerouteNo="0" devices="tripinfo_f_0_1.8" vType="type1" speedFactor="0.97" vaporized="end"/>
    <tripinfo id="f_0_2.14" depart="115.00" departLane="np2_nt2_0" departPos="25.70" departSpeed="0.00" departDelay="0.45" arrival="-1.00" arrivalLane="" arrivalPos="-1.00" arrivalSpeed="-1.00" duration="3485.00" routeLength="316.06" waitingTime="3410.00" waitingCount="6" stopTime="0.00" timeLoss="3461.96" rerouteNo="0" devices="tripinfo_f_0_2.14" vType="type1" speedFactor="0.98" vaporized="end"/>
    <tripinfo id="f_0_0.9" depart="123.00" departLane="np13_nt13_0" departPos="25.93" departSpeed="0.00" departDelay="0.28" arrival="-1.00" arrivalLane="" arrivalPos="-1.00" arrivalSpeed="-1.00" duration="3477.00" routeLength="784.09" waitingTime="3383.00" waitingCount="6" stopTime="0.00" timeLoss="3421.75" rerouteNo="0" devices="tripinfo_f_0_0.9" vType="type1" speedFactor="0.99" vaporized="end"/>
    <tripinfo id="f_0_1.9" depart="123.00" departLane="np16_nt1_0" departPos="7.31" departSpeed="0.00" departDelay="0.28" arrival="-1.00" arrivalLane="" arrivalPos="-1.00" arrivalSpeed="-1.00" duration="3477.00" routeLength="505.52" waitingTime="3388.00" waitingCount="7" stopTime="0.00" timeLoss="3450.03" rerouteNo="0" devices="tripinfo_f_0_1.9" vType="type1" speedFactor="1.07" vaporized="end"/>
    <tripinfo id="f_0_2.15" depart="123.00" departLane="np2_nt2_0" departPos="29.04" departSpeed="0.00" departDelay="0.27" arrival="-1.00" arrivalLane="" arrivalPos="-1.00" arrivalSpeed="-1.00" duration="3477.00" routeLength="297.72" waitingTime="3404.00" waitingCount="6" stopTime="0.00" timeLoss="3453.58" rerouteNo="0" devices="tripinfo_f_0_2.15" vType="type1" speedFactor="0.92" vaporized="end"/>
    <tripinfo id="f_0_2.16" depart="131.00" departLane="np2_nt2_0" departPos="59.41" departSpeed="0.00" departDelay="0.09" arrival="-1.00" arrivalLane="" arrivalPos="-1.00" arrivalSpeed="-1.00" duration="3469.00" routeLength="259.85" waitingTime="3401.00" waitingCount="8" stopTime="0.00" timeLoss="3448.67" rerouteNo="0" devices="tripinfo_f_0_2.16" vType="type1" speedFactor="0.87" vaporized="end"/>
    <tripinfo id="f_0_0.10" depart="137.00" departLane="np13_nt13_0" departPos="56.62" departSpeed="0.00" departDelay="0.64" arrival="-1.00" arrivalLane="" arrivalPos="-1.00" arrivalSpeed="-1.00" duration="3463.00" routeLength="745.90" waitingTime="3373.00" waitingCount="5" stopTime="0.00" timeLoss="3411.76" rerouteNo="0" devices="tripinfo_f_0_0.10" vType="type1" speedFactor="1.03" vaporized="end"/>
    <tripinfo id="f_0_1.10" depart="137.00" departLane="np16_nt1_0" departPos="44.28" departSpeed="0.00" departDelay="0.64" arrival="-1.00" arrivalLane="" arrivalPos="-1.00" arrivalSpeed="-1.00" duration="3463.00" routeLength="407.52" waitingTime="3372.00" waitingCount="9" stopTime="0.00" timeLoss="3442.53" rerouteNo="0" devices="tripinfo_f_0_1.10" vType="type1" speedFactor="1.05" vaporized="end"/>
    <tripinfo id="f_0_2.17" depart="140.00" departLane="np2_nt2_0" departPos="53.40" departSpeed="0.00" departDelay="0.91" arrival="-1.00" arrivalLane="" arrivalPos="-1.00" arrivalSpeed="-1.00" duration="3460.00" routeLength="243.36" waitingTime="3381.00" waitingCount="7" stopTime="0.00" timeLoss="3442.42" rerouteNo="0" devices="tripinfo_f_0_2.17" vType="type1" speedFactor="0.92" vaporized="end"/>