<?xml version="1.0" encoding="UTF-8"?>

<!-- generated on 2023-08-30 12:25:36 by Eclipse SUMO libsumo Version 1.18.0
<configuration xmlns:xsi="http://www.w3.org/2001/XMLSchema-instance" xsi:noNamespaceSchemaLocation="http://sumo.dlr.de/xsd/libsumoConfiguration.xsd">

    <input>
        <net-file value="/home/stefan/RESCO/./environments/arterial4x4/arterial4x4.net.xml"/>
        <route-files value="/home/stefan/RESCO/./environments/arterial4x4/arterial4x4_20.rou.xml"/>
    </input>

    <output>
        <tripinfo-output value="/home/stefan/results/ITRPO-tr0-arterial4x4-0-drq_norm-wait_norm/tripinfo_20.xml"/>
        <tripinfo-output.write-unfinished value="true"/>
    </output>

    <processing>
        <time-to-teleport value="-1"/>
    </processing>

    <report>
        <no-warnings value="True"/>
        <no-step-log value="True"/>
    </report>

    <random_number>
        <random value="true"/>
    </random_number>

</configuration>
-->

<tripinfos xmlns:xsi="http://www.w3.org/2001/XMLSchema-instance" xsi:noNamespaceSchemaLocation="http://sumo.dlr.de/xsd/tripinfo_file.xsd">
    <tripinfo id="f_0_2.0" depart="0.00" departLane="np2_nt2_0" departPos="29.97" departSpeed="0.00" departDelay="0.00" arrival="106.00" arrivalLane="nt15_np10_0" arrivalPos="75.00" arrivalSpeed="12.43" duration="106.00" routeLength="921.11" waitingTime="17.00" waitingCount="4" stopTime="0.00" timeLoss="39.00" rerouteNo="0" devices="tripinfo_f_0_2.0" vType="type1" speedFactor="1.15" vaporized=""/>
    <tripinfo id="f_0_3.0" depart="0.00" departLane="np3_nt3_0" departPos="63.81" departSpeed="0.00" departDelay="0.00" arrival="132.00" arrivalLane="nt14_np11_0" arrivalPos="75.00" arrivalSpeed="9.89" duration="132.00" routeLength="887.28" waitingTime="38.00" waitingCount="5" stopTime="0.00" timeLoss="58.01" rerouteNo="0" devices="tripinfo_f_0_3.0" vType="type1" speedFactor="1.00" vaporized=""/>
    <tripinfo id="f_0_0.0" depart="0.00" departLane="np13_nt13_0" departPos="10.49" departSpeed="0.00" departDelay="0.00" arrival="155.00" arrivalLane="nt4_np5_0" arrivalPos="75.00" arrivalSpeed="17.49" duration="155.00" routeLength="1337.40" waitingTime="40.00" waitingCount="3" stopTime="0.00" timeLoss="62.52" rerouteNo="0" devices="tripinfo_f_0_0.0" vType="type1" speedFactor="1.00" vaporized=""/>
    <tripinfo id="f_0_2.1" depart="9.00" departLane="np2_nt2_0" departPos="35.83" departSpeed="0.00" departDelay="0.82" arrival="167.00" arrivalLane="nt15_np10_0" arrivalPos="75.00" arrivalSpeed="9.39" duration="158.00" routeLength="915.25" waitingTime="56.00" waitingCount="5" stopTime="0.00" timeLoss="83.16" rerouteNo="0" devices="tripinfo_f_0_2.1" vType="type1" speedFactor="1.02" vaporized=""/>
    <tripinfo id="f_0_3.1" depart="9.00" departLane="np3_nt3_0" departPos="34.27" departSpeed="0.00" departDelay="0.82" arrival="192.00" arrivalLane="nt14_np11_0" arrivalPos="75.00" arrivalSpeed="9.69" duration="183.00" routeLength="916.82" waitingTime="71.00" waitingCount="6" stopTime="0.00" timeLoss="106.78" rerouteNo="0" devices="tripinfo_f_0_3.1" vType="type1" speedFactor="1.00" vaporized=""/>
    <tripinfo id="f_0_1.0" depart="0.00" departLane="np16_nt1_0" departPos="0.91" departSpeed="0.00" departDelay="0.00" arrival="193.00" arrivalLane="nt16_np8_0" arrivalPos="75.00" arrivalSpeed="23.76" duration="193.00" routeLength="1346.97" waitingTime="78.00" waitingCount="6" stopTime="0.00" timeLoss="117.82" rerouteNo="0" devices="tripinfo_f_0_1.0" vType="type1" speedFactor="1.25" vaporized=""/>
    <tripinfo id="f_0_0.1" depart="14.00" departLane="np13_nt13_0" departPos="52.67" departSpeed="0.00" departDelay="0.36" arrival="195.00" arrivalLane="nt4_np5_0" arrivalPos="75.00" arrivalSpeed="19.34" duration="181.00" routeLength="1295.22" waitingTime="59.00" waitingCount="6" stopTime="0.00" timeLoss="92.62" rerouteNo="0" devices="tripinfo_f_0_0.1" vType="type1" speedFactor="1.02" vaporized=""/>
    <tripinfo id="f_0_2.2" depart="17.00" departLane="np2_nt2_0" departPos="32.88" departSpeed="0.00" departDelay="0.64" arrival="206.00" arrivalLane="nt15_np10_0" arrivalPos="75.00" arrivalSpeed="10.70" duration="189.00" routeLength="918.20" waitingTime="87.00" waitingCount="7" stopTime="0.00" timeLoss="119.50" rerouteNo="0" devices="tripinfo_f_0_2.2" vType="type1" speedFactor="1.11" vaporized=""/>
    <tripinfo id="f_0_2.3" depart="25.00" departLane="np2_nt2_0" departPos="52.54" departSpeed="0.00" departDelay="0.45" arrival="210.00" arrivalLane="nt15_np10_0" arrivalPos="75.00" arrivalSpeed="8.98" duration="185.00" routeLength="898.54" waitingTime="69.00" waitingCount="5" stopTime="0.00" timeLoss="101.38" rerouteNo="0" devices="tripinfo_f_0_2.3" vType="type1" speedFactor="0.90" vaporized=""/>
    <tripinfo id="f_0_3.2" depart="17.00" departLane="np3_nt3_0" departPos="5.51" departSpeed="0.00" departDelay="0.64" arrival="223.00" arrivalLane="nt14_np11_0" arrivalPos="75.00" arrivalSpeed="9.76" duration="206.00" routeLength="945.58" waitingTime="97.00" waitingCount="6" stopTime="0.00" timeLoss="128.30" rerouteNo="0" devices="tripinfo_f_0_3.2" vType="type1" speedFactor="1.03" vaporized=""/>
    <tripinfo id="f_0_2.4" depart="33.00" departLane="np2_nt2_0" departPos="34.50" departSpeed="0.00" departDelay="0.27" arrival="239.00" arrivalLane="nt15_np10_0" arrivalPos="75.00" arrivalSpeed="8.33" duration="206.00" routeLength="916.58" waitingTime="81.00" waitingCount="6" stopTime="0.00" timeLoss="117.42" rerouteNo="0" devices="tripinfo_f_0_2.4" vType="type1" speedFactor="0.87" vaporized=""/>
    <tripinfo id="f_0_2.5" depart="41.00" departLane="np2_nt2_0" departPos="48.77" departSpeed="0.00" departDelay="0.09" arrival="252.00" arrivalLane="nt15_np10_0" arrivalPos="75.00" arrivalSpeed="8.99" duration="211.00" routeLength="902.31" waitingTime="80.00" waitingCount="8" stopTime="0.00" timeLoss="137.98" rerouteNo="0" devices="tripinfo_f_0_2.5" vType="type1" speedFactor="1.03" vaporized=""/>
    <tripinfo id="f_0_1.1" depart="14.00" departLane="np16_nt1_0" departPos="30.57" departSpeed="0.00" departDelay="0.36" arrival="259.00" arrivalLane="nt16_np8_0" arrivalPos="75.00" arrivalSpeed="19.70" duration="245.00" routeLength="1317.31" waitingTime="91.00" waitingCount="7" stopTime="0.00" timeLoss="160.09" rerouteNo="0" devices="tripinfo_f_0_1.1" vType="type1" speedFactor="1.09" vaporized=""/>
    <tripinfo id="f_0_0.2" depart="28.00" departLane="np13_nt13_0" departPos="51.84" departSpeed="0.00" departDelay="0.73" arrival="263.00" arrivalLane="nt4_np5_0" arrivalPos="75.00" arrivalSpeed="21.16" duration="235.00" routeLength="1296.05" waitingTime="108.00" waitingCount="7" stopTime="0.00" timeLoss="149.59" rerouteNo="0" devices="tripinfo_f_0_0.2" vType="type1" speedFactor="1.06" vaporized=""/>
    <tripinfo id="f_0_3.3" depart="25.00" departLane="np3_nt3_0" departPos="1.78" departSpeed="0.00" departDelay="0.45" arrival="274.00" arrivalLane="nt14_np11_0" arrivalPos="75.00" arrivalSpeed="9.66" duration="249.00" routeLength="949.31" waitingTime="129.00" waitingCount="8" stopTime="0.00" timeLoss="167.07" rerouteNo="0" devices="tripinfo_f_0_3.3" vType="type1" speedFactor="0.97" vaporized=""/>
    <tripinfo id="f_0_1.2" depart="28.00" departLane="np16_nt1_0" departPos="6.53" departSpeed="0.00" departDelay="0.73" arrival="279.00" arrivalLane="nt16_np8_0" arrivalPos="75.00" arrivalSpeed="20.64" duration="251.00" routeLength="1341.35" waitingTime="97.00" waitingCount="9" stopTime="0.00" timeLoss="162.20" rerouteNo="0" devices="tripinfo_f_0_1.2" vType="type1" speedFactor="1.05" vaporized=""/>
    <tripinfo id="f_0_1.3" depart="41.00" departLane="np16_nt1_0" departPos="5.47" departSpeed="0.00" departDelay="0.09" arrival="280.00" arrivalLane="nt16_np8_0" arrivalPos="75.00" arrivalSpeed="19.31" duration="239.00" routeLength="1342.41" waitingTime="86.00" waitingCount="9" stopTime="0.00" timeLoss="145.74" rerouteNo="0" devices="tripinfo_f_0_1.3" vType="type1" speedFactor="1.00" vaporized=""/>
    <tripinfo id="f_0_2.6" depart="50.00" departLane="np2_nt2_0" departPos="46.36" departSpeed="0.00" departDelay="0.91" arrival="295.00" arrivalLane="nt15_np10_0" arrivalPos="75.00" arrivalSpeed="12.01" duration="245.00" routeLength="904.72" waitingTime="128.00" waitingCount="8" stopTime="0.00" timeLoss="185.93" rerouteNo="0" devices="tripinfo_f_0_2.6" vType="type1" speedFactor="1.28" vaporized=""/>
    <tripinfo id="f_0_2.7" depart="58.00" departLane="np2_nt2_0" departPos="17.60" departSpeed="0.00" departDelay="0.73" arrival="299.00" arrivalLane="nt15_np10_0" arrivalPos="75.00" arrivalSpeed="8.67" duration="241.00" routeLength="933.48" waitingTime="121.00" waitingCount="9" stopTime="0.00" timeLoss="162.64" rerouteNo="0" devices="tripinfo_f_0_2.7" vType="type1" speedFactor="1.00" vaporized=""/>
    <tripinfo id="f_0_3.4" depart="33.00" departLane="np3_nt3_0" departPos="0.70" departSpeed="0.00" departDelay="0.27" arrival="306.00" arrivalLane="nt14_np11_0" arrivalPos="75.00" arrivalSpeed="10.01" duration="273.00" routeLength="950.39" waitingTime="152.00" waitingCount="9" stopTime="0.00" timeLoss="200.42" rerouteNo="0" devices="tripinfo_f_0_3.4" vType="type1" speedFactor="1.10" vaporized=""/>
    <tripinfo id="f_0_3.5" depart="41.00" departLane="np3_nt3_0" departPos="19.41" departSpeed="0.00" departDelay="0.09" arrival="308.00" arrivalLane="nt14_np11_0" arrivalPos="75.00" arrivalSpeed="10.26" duration="267.00" routeLength="931.68" waitingTime="143.00" waitingCount="7" stopTime="0.00" timeLoss="195.36" rerouteNo="0" devices="tripinfo_f_0_3.5" vType="type1" speedFactor="1.09" vaporized=""/>
    <tripinfo id="f_0_2.8" depart="66.00" departLane="np2_nt2_0" departPos="26.39" departSpeed="0.00" departDelay="0.54" arrival="311.00" arrivalLane="nt15_np10_0" arrivalPos="75.00" arrivalSpeed="10.76" duration="245.00" routeLength="924.69" waitingTime="124.00" waitingCount="9" stopTime="0.00" timeLoss="175.46" rerouteNo="0" devices="tripinfo_f_0_2.8" vType="type1" speedFactor="1.12" vaporized=""/>
    <tripinfo id="f_0_0.3" depart="41.00" departLane="np13_nt13_0" departPos="44.61" departSpeed="0.00" departDelay="0.09" arrival="323.00" arrivalLane="nt4_np5_0" arrivalPos="75.00" arrivalSpeed="21.37" duration="282.00" routeLength="1303.28" waitingTime="152.00" waitingCount="8" stopTime="0.00" timeLoss="196.48" rerouteNo="0" devices="tripinfo_f_0_0.3" vType="type1" speedFactor="1.07" vaporized=""/>
    <tripinfo id="f_0_2.9" depart="74.00" departLane="np2_nt2_0" departPos="19.89" departSpeed="0.00" departDelay="0.36" arrival="347.00" arrivalLane="nt15_np10_0" arrivalPos="75.00" arrivalSpeed="11.78" duration="273.00" routeLength="931.19" waitingTime="137.00" waitingCount="9" stopTime="0.00" timeLoss="199.95" rerouteNo="0" devices="tripinfo_f_0_2.9" vType="type1" speedFactor="1.08" vaporized=""/>
    <tripinfo id="f_0_1.4" depart="55.00" departLane="np16_nt1_0" departPos="39.88" departSpeed="0.00" departDelay="0.46" arrival="348.00" arrivalLane="nt16_np8_0" arrivalPos="75.00" arrivalSpeed="19.17" duration="293.00" routeLength="1308.00" waitingTime="143.00" waitingCount="11" stopTime="0.00" timeLoss="204.24" rerouteNo="0" devices="tripinfo_f_0_1.4" vType="type1" speedFactor="1.03" vaporized=""/>
    <tripinfo id="f_0_0.4" depart="55.00" departLane="np13_nt13_0" departPos="10.12" departSpeed="0.00" departDelay="0.46" arrival="349.00" arrivalLane="nt4_np5_0" arrivalPos="75.00" arrivalSpeed="16.84" duration="294.00" routeLength="1337.77" waitingTime="143.00" waitingCount="9" stopTime="0.00" timeLoss="192.29" rerouteNo="0" devices="tripinfo_f_0_0.4" vType="type1" speedFactor="0.92" vaporized=""/>
    <tripinfo id="f_0_0.5" depart="69.00" departLane="np13_nt13_0" departPos="9.70" departSpeed="0.00" departDelay="0.82" arrival="350.00" arrivalLane="nt4_np5_0" arrivalPos="75.00" arrivalSpeed="19.13" duration="281.00" routeLength="1338.19" waitingTime="148.00" waitingCount="9" stopTime="0.00" timeLoss="191.38" rerouteNo="0" devices="tripinfo_f_0_0.5" vType="type1" speedFactor="1.04" vaporized=""/>
    <tripinfo id="f_0_2.10" depart="82.00" departLane="np2_nt2_0" departPos="31.07" departSpeed="0.00" departDelay="0.18" arrival="350.00" arrivalLane="nt15_np10_0" arrivalPos="75.00" arrivalSpeed="10.31" duration="268.00" routeLength="920.01" waitingTime="142.00" waitingCount="8" stopTime="0.00" timeLoss="188.89" rerouteNo="0" devices="tripinfo_f_0_2.10" vType="type1" speedFactor="0.99" vaporized=""/>
    <tripinfo id="f_0_0.6" depart="82.00" departLane="np13_nt13_0" departPos="38.72" departSpeed="0.00" departDelay="0.18" arrival="352.00" arrivalLane="nt4_np5_0" arrivalPos="75.00" arrivalSpeed="19.78" duration="270.00" routeLength="1309.17" waitingTime="128.00" waitingCount="8" stopTime="0.00" timeLoss="182.01" rerouteNo="0" devices="tripinfo_f_0_0.6" vType="type1" speedFactor="1.04" vaporized=""/>
    <tripinfo id="f_0_0.7" depart="96.00" departLane="np13_nt13_0" departPos="36.20" departSpeed="0.00" departDelay="0.55" arrival="354.00" arrivalLane="nt4_np5_0" arrivalPos="75.00" arrivalSpeed="20.04" duration="258.00" routeLength="1311.69" waitingTime="110.00" waitingCount="9" stopTime="0.00" timeLoss="168.49" rerouteNo="0" devices="tripinfo_f_0_0.7" vType="type1" speedFactor="1.03" vaporized=""/>
    <tripinfo id="f_0_0.8" depart="110.00" departLane="np13_nt13_0" departPos="59.98" departSpeed="0.00" departDelay="0.91" arrival="356.00" arrivalLane="nt4_np5_0" arrivalPos="75.00" arrivalSpeed="15.68" duration="246.00" routeLength="1287.91" waitingTime="90.00" waitingCount="9" stopTime="0.00" timeLoss="145.59" rerouteNo="0" devices="tripinfo_f_0_0.8" vType="type1" speedFactor="0.90" vaporized=""/>
    <tripinfo id="f_0_3.6" depart="50.00" departLane="np3_nt3_0" departPos="25.80" departSpeed="0.00" departDelay="0.91" arrival="386.00" arrivalLane="nt14_np11_0" arrivalPos="75.00" arrivalSpeed="11.98" duration="336.00" routeLength="925.29" waitingTime="214.00" waitingCount="8" stopTime="0.00" timeLoss="266.82" rerouteNo="0" devices="tripinfo_f_0_3.6" vType="type1" speedFactor="1.12" vaporized=""/>
    <tripinfo id="f_0_3.7" depart="58.00" departLane="np3_nt3_0" departPos="12.58" departSpeed="0.00" departDelay="0.73" arrival="390.00" arrivalLane="nt14_np11_0" arrivalPos="75.00" arrivalSpeed="8.71" duration="332.00" routeLength="938.51" waitingTime="191.00" waitingCount="8" stopTime="0.00" timeLoss="245.30" rerouteNo="0" devices="tripinfo_f_0_3.7" vType="type1" speedFactor="0.91" vaporized=""/>
    <tripinfo id="f_0_3.8" depart="66.00" departLane="np3_nt3_0" departPos="24.30" departSpeed="0.00" departDelay="0.54" arrival="410.00" arrivalLane="nt14_np11_0" arrivalPos="75.00" arrivalSpeed="7.59" duration="344.00" routeLength="926.79" waitingTime="197.00" waitingCount="9" stopTime="0.00" timeLoss="253.23" rerouteNo="0" devices="tripinfo_f_0_3.8" vType="type1" speedFactor="0.86" vaporized=""/>
    <tripinfo id="f_0_2.11" depart="90.00" departLane="np2_nt2_0" departPos="59.61" departSpeed="0.00" departDelay="0.00" arrival="410.00" arrivalLane="nt15_np10_0" arrivalPos="75.00" arrivalSpeed="10.85" duration="320.00" routeLength="891.47" waitingTime="196.00" waitingCount="9" stopTime="0.00" timeLoss="249.93" rerouteNo="0" devices="tripinfo_f_0_2.11" vType="type1" speedFactor="1.06" vaporized=""/>
    <tripinfo id="f_0_3.9" depart="74.00" departLane="np3_nt3_0" departPos="10.28" departSpeed="0.00" departDelay="0.36" arrival="428.00" arrivalLane="nt14_np11_0" arrivalPos="75.00" arrivalSpeed="8.36" duration="354.00" routeLength="940.81" waitingTime="202.00" waitingCount="10" stopTime="0.00" timeLoss="270.32" rerouteNo="0" devices="tripinfo_f_0_3.9" vType="type1" speedFactor="0.94" vaporized=""/>
    <tripinfo id="f_0_0.9" depart="123.00" departLane="np13_nt13_0" departPos="59.01" departSpeed="0.00" departDelay="0.28" arrival="428.00" arrivalLane="nt4_np5_0" arrivalPos="75.00" arrivalSpeed="18.48" duration="305.00" routeLength="1288.88" waitingTime="155.00" waitingCount="11" stopTime="0.00" timeLoss="211.24" rerouteNo="0" devices="tripinfo_f_0_0.9" vType="type1" speedFactor="0.96" vaporized=""/>
    <tripinfo id="f_0_0.10" depart="137.00" departLane="np13_nt13_0" departPos="13.03" departSpeed="0.00" departDelay="0.64" arrival="430.00" arrivalLane="nt4_np5_0" arrivalPos="75.00" arrivalSpeed="20.03" duration="293.00" routeLength="1334.86" waitingTime="142.00" waitingCount="9" stopTime="0.00" timeLoss="205.73" rerouteNo="0" devices="tripinfo_f_0_0.10" vType="type1" speedFactor="1.06" vaporized=""/>
    <tripinfo id="f_0_3.10" depart="82.00" departLane="np3_nt3_0" departPos="9.08" departSpeed="0.00" departDelay="0.18" arrival="431.00" arrivalLane="nt14_np11_0" arrivalPos="75.00" arrivalSpeed="8.08" duration="349.00" routeLength="942.01" waitingTime="195.00" waitingCount="10" stopTime="0.00" timeLoss="260.65" rerouteNo="0" devices="tripinfo_f_0_3.10" vType="type1" speedFactor="0.89" vaporized=""/>
    <tripinfo id="f_0_2.12" depart="99.00" departLane="np2_nt2_0" departPos="31.76" departSpeed="0.00" departDelay="0.82" arrival="431.00" arrivalLane="nt15_np10_0" arrivalPos="75.00" arrivalSpeed="12.01" duration="332.00" routeLength="919.32" waitingTime="204.00" waitingCount="11" stopTime="0.00" timeLoss="264.25" rerouteNo="0" devices="tripinfo_f_0_2.12" vType="type1" speedFactor="1.14" vaporized=""/>
    <tripinfo id="f_0_3.11" depart="90.00" departLane="np3_nt3_0" departPos="5.01" departSpeed="0.00" departDelay="0.00" arrival="433.00" arrivalLane="nt14_np11_0" arrivalPos="75.00" arrivalSpeed="9.76" duration="343.00" routeLength="946.08" waitingTime="209.00" waitingCount="9" stopTime="0.00" timeLoss="270.95" rerouteNo="0" devices="tripinfo_f_0_3.11" vType="type1" speedFactor="1.11" vaporized=""/>
    <tripinfo id="f_0_3.12" depart="99.00" departLane="np3_nt3_0" departPos="1.04" departSpeed="0.00" departDelay="0.82" arrival="435.00" arrivalLane="nt14_np11_0" arrivalPos="75.00" arrivalSpeed="8.36" duration="336.00" routeLength="950.05" waitingTime="199.00" waitingCount="9" stopTime="0.00" timeLoss="253.65" rerouteNo="0" devices="tripinfo_f_0_3.12" vType="type1" speedFactor="0.97" vaporized=""/>
    <tripinfo id="f_0_3.13" depart="117.00" departLane="np3_nt3_0" departPos="0.00" departSpeed="0.00" departDelay="10.63" arrival="437.00" arrivalLane="nt14_np11_0" arrivalPos="75.00" arrivalSpeed="12.81" duration="320.00" routeLength="951.09" waitingTime="193.00" waitingCount="8" stopTime="0.00" timeLoss="253.93" rerouteNo="0" devices="tripinfo_f_0_3.13" vType="type1" speedFactor="1.22" vaporized=""/>
    <tripinfo id="f_0_3.14" depart="121.00" departLane="np3_nt3_0" departPos="0.00" departSpeed="0.00" departDelay="6.45" arrival="439.00" arrivalLane="nt14_np11_0" arrivalPos="75.00" arrivalSpeed="8.30" duration="318.00" routeLength="951.09" waitingTime="175.00" waitingCount="10" stopTime="0.00" timeLoss="231.76" rerouteNo="0" devices="tripinfo_f_0_3.14" vType="type1" speedFactor="0.92" vaporized=""/>
    <tripinfo id="f_0_3.15" depart="147.00" departLane="np3_nt3_0" departPos="0.00" departSpeed="0.00" departDelay="24.27" arrival="466.00" arrivalLane="nt14_np11_0" arrivalPos="75.00" arrivalSpeed="10.75" duration="319.00" routeLength="951.09" waitingTime="180.00" waitingCount="11" stopTime="0.00" timeLoss="248.55" rerouteNo="0" devices="tripinfo_f_0_3.15" vType="type1" speedFactor="1.13" vaporized=""/>
    <tripinfo id="f_0_3.17" depart="151.00" departLane="np3_nt3_0" departPos="10.39" departSpeed="0.00" departDelay="11.91" arrival="469.00" arrivalLane="nt14_np11_0" arrivalPos="75.00" arrivalSpeed="10.59" duration="318.00" routeLength="940.70" waitingTime="175.00" waitingCount="9" stopTime="0.00" timeLoss="237.49" rerouteNo="0" devices="tripinfo_f_0_3.17" vType="type1" speedFactor="0.99" vaporized=""/>
    <tripinfo id="f_0_3.16" depart="150.00" departLane="np3_nt3_0" departPos="1.06" departSpeed="0.00" departDelay="19.09" arrival="561.00" arrivalLane="nt14_np11_0" arrivalPos="75.00" arrivalSpeed="10.04" duration="411.00" routeLength="950.03" waitingTime="268.00" waitingCount="10" stopTime="0.00" timeLoss="339.26" rerouteNo="0" devices="tripinfo_f_0_3.16" vType="type1" speedFactor="1.11" vaporized=""/>
    <tripinfo id="f_0_3.18" depart="155.00" departLane="np3_nt3_0" departPos="0.00" departSpeed="0.00" departDelay="7.72" arrival="563.00" arrivalLane="nt14_np11_0" arrivalPos="75.00" arrivalSpeed="9.46" duration="408.00" routeLength="951.09" waitingTime="259.00" waitingCount="12" stopTime="0.00" timeLoss="333.36" rerouteNo="0" devices="tripinfo_f_0_3.18" vType="type1" speedFactor="1.07" vaporized=""/>
    <tripinfo id="f_0_3.19" depart="188.00" departLane="np3_nt3_0" departPos="0.00" departSpeed="0.00" departDelay="32.54" arrival="567.00" arrivalLane="nt14_np11_0" arrivalPos="75.00" arrivalSpeed="9.11" duration="379.00" routeLength="951.09" waitingTime="222.00" waitingCount="10" stopTime="0.00" timeLoss="294.91" rerouteNo="0" devices="tripinfo_f_0_3.19" vType="type1" speedFactor="0.95" vaporized=""/>
    <tripinfo id="f_0_3.20" depart="203.00" departLane="np3_nt3_0" departPos="0.00" departSpeed="0.00" departDelay="39.36" arrival="569.00" arrivalLane="nt14_np11_0" arrivalPos="75.00" arrivalSpeed="11.07" duration="366.00" routeLength="951.09" waitingTime="214.00" waitingCount="10" stopTime="0.00" timeLoss="287.66" rerouteNo="0" devices="tripinfo_f_0_3.20" vType="type1" speedFactor="1.03" vaporized=""/>
    <tripinfo id="f_0_3.21" depart="242.00" departLane="np3_nt3_0" departPos="0.00" departSpeed="0.00" departDelay="70.18" arrival="570.00" arrivalLane="nt14_np11_0" arrivalPos="75.00" arrivalSpeed="10.60" duration="328.00" routeLength="951.09" waitingTime="188.00" waitingCount="9" stopTime="0.00" timeLoss="257.56" rerouteNo="0" devices="tripinfo_f_0_3.21" vType="type1" speedFactor="1.14" vaporized=""/>
    <tripinfo id="f_0_3.22" depart="246.00" departLane="np3_nt3_0" departPos="0.00" departSpeed="0.00" departDelay="66.00" arrival="572.00" arrivalLane="nt14_np11_0" arrivalPos="75.00" arrivalSpeed="11.74" duration="326.00" routeLength="951.09" waitingTime="182.00" waitingCount="7" stopTime="0.00" timeLoss="258.79" rerouteNo="0" devices="tripinfo_f_0_3.22" vType="type1" speedFactor="1.20" vaporized=""/>
    <tripinfo id="f_0_3.23" depart="314.00" departLane="np3_nt3_0" departPos="0.54" departSpeed="0.00" departDelay="125.81" arrival="592.00" arrivalLane="nt14_np11_0" arrivalPos="75.00" arrivalSpeed="9.53" duration="278.00" routeLength="950.55" waitingTime="142.00" waitingCount="9" stopTime="0.00" timeLoss="197.51" rerouteNo="0" devices="tripinfo_f_0_3.23" vType="type1" speedFactor="1.00" vaporized=""/>
    <tripinfo id="f_0_3.25" depart="324.00" departLane="np3_nt3_0" departPos="15.74" departSpeed="0.00" departDelay="119.45" arrival="594.00" arrivalLane="nt14_np11_0" arrivalPos="75.00" arrivalSpeed="9.80" duration="270.00" routeLength="935.35" waitingTime="137.00" waitingCount="11" stopTime="0.00" timeLoss="197.58" rerouteNo="0" devices="tripinfo_f_0_3.25" vType="type1" speedFactor="1.09" vaporized=""/>
    <tripinfo id="f_0_3.24" depart="322.00" departLane="np3_nt3_0" departPos="0.00" departSpeed="0.00" departDelay="125.63" arrival="644.00" arrivalLane="nt14_np11_0" arrivalPos="75.00" arrivalSpeed="8.43" duration="322.00" routeLength="951.09" waitingTime="164.00" waitingCount="10" stopTime="0.00" timeLoss="234.53" rerouteNo="0" devices="tripinfo_f_0_3.24" vType="type1" speedFactor="0.91" vaporized=""/>
    <tripinfo id="f_0_3.26" depart="325.00" departLane="np3_nt3_0" departPos="0.00" departSpeed="0.00" departDelay="112.27" arrival="657.00" arrivalLane="nt14_np11_0" arrivalPos="75.00" arrivalSpeed="11.51" duration="332.00" routeLength="951.09" waitingTime="168.00" waitingCount="10" stopTime="0.00" timeLoss="258.25" rerouteNo="0" devices="tripinfo_f_0_3.26" vType="type1" speedFactor="1.09" vaporized=""/>
    <tripinfo id="f_0_3.27" depart="330.00" departLane="np3_nt3_0" departPos="3.92" departSpeed="0.00" departDelay="109.09" arrival="681.00" arrivalLane="nt14_np11_0" arrivalPos="75.00" arrivalSpeed="11.53" duration="351.00" routeLength="947.17" waitingTime="184.00" waitingCount="12" stopTime="0.00" timeLoss="279.91" rerouteNo="0" devices="tripinfo_f_0_3.27" vType="type1" speedFactor="1.12" vaporized=""/>
    <tripinfo id="f_0_3.28" depart="332.00" departLane="np3_nt3_0" departPos="0.00" departSpeed="0.00" departDelay="102.90" arrival="684.00" arrivalLane="nt14_np11_0" arrivalPos="75.00" arrivalSpeed="11.52" duration="352.00" routeLength="951.09" waitingTime="182.00" waitingCount="14" stopTime="0.00" timeLoss="279.15" rerouteNo="0" devices="tripinfo_f_0_3.28" vType="type1" speedFactor="1.10" vaporized=""/>
    <tripinfo id="f_0_3.29" depart="336.00" departLane="np3_nt3_0" departPos="0.00" departSpeed="0.00" departDelay="98.72" arrival="691.00" arrivalLane="nt14_np11_0" arrivalPos="75.00" arrivalSpeed="10.37" duration="355.00" routeLength="951.09" waitingTime="184.00" waitingCount="15" stopTime="0.00" timeLoss="279.54" rerouteNo="0" devices="tripinfo_f_0_3.29" vType="type1" speedFactor="1.06" vaporized=""/>
    <tripinfo id="f_0_3.30" depart="341.00" departLane="np3_nt3_0" departPos="0.00" departSpeed="0.00" departDelay="95.54" arrival="694.00" arrivalLane="nt14_np11_0" arrivalPos="75.00" arrivalSpeed="10.84" duration="353.00" routeLength="951.09" waitingTime="169.00" waitingCount="15" stopTime="0.00" timeLoss="278.09" rerouteNo="0" devices="tripinfo_f_0_3.30" vType="type1" speedFactor="1.07" vaporized=""/>
    <tripinfo id="f_0_3.31" depart="346.00" departLane="np3_nt3_0" departPos="0.00" departSpeed="0.00" departDelay="92.36" arrival="727.00" arrivalLane="nt14_np11_0" arrivalPos="75.00" arrivalSpeed="10.49" duration="381.00" routeLength="951.09" waitingTime="186.00" waitingCount="18" stopTime="0.00" timeLoss="305.11" rerouteNo="0" devices="tripinfo_f_0_3.31" vType="type1" speedFactor="1.06" vaporized=""/>
    <tripinfo id="f_0_3.32" depart="363.00" departLane="np3_nt3_0" departPos="0.00" departSpeed="0.00" departDelay="101.18" arrival="729.00" arrivalLane="nt14_np11_0" arrivalPos="75.00" arrivalSpeed="9.68" duration="366.00" routeLength="951.09" waitingTime="171.00" waitingCount="17" stopTime="0.00" timeLoss="292.09" rerouteNo="0" devices="tripinfo_f_0_3.32" vType="type1" speedFactor="1.08" vaporized=""/>
    <tripinfo id="f_0_3.33" depart="372.00" departLane="np3_nt3_0" departPos="1.09" departSpeed="0.00" departDelay="101.99" arrival="732.00" arrivalLane="nt14_np11_0" arrivalPos="75.00" arrivalSpeed="8.56" duration="360.00" routeLength="950.00" waitingTime="165.00" waitingCount="16" stopTime="0.00" timeLoss="279.67" rerouteNo="0" devices="tripinfo_f_0_3.33" vType="type1" speedFactor="1.00" vaporized=""/>
    <tripinfo id="f_0_3.34" depart="375.00" departLane="np3_nt3_0" departPos="2.68" departSpeed="0.00" departDelay="96.81" arrival="734.00" arrivalLane="nt14_np11_0" arrivalPos="75.00" arrivalSpeed="11.20" duration="359.00" routeLength="948.41" waitingTime="169.00" waitingCount="15" stopTime="0.00" timeLoss="283.17" rerouteNo="0" devices="tripinfo_f_0_3.34" vType="type1" speedFactor="1.05" vaporized=""/>
    <tripinfo id="f_1_3.0" depart="406.00" departLane="np3_nt3_0" departPos="29.35" departSpeed="0.00" departDelay="106.00" arrival="747.00" arrivalLane="nt14_np11_0" arrivalPos="75.00" arrivalSpeed="9.73" duration="341.00" routeLength="921.74" waitingTime="159.00" waitingCount="14" stopTime="0.00" timeLoss="268.13" rerouteNo="0" devices="tripinfo_f_1_3.0" vType="type1" speedFactor="1.07" vaporized=""/>
    <tripinfo id="f_0_3.35" depart="377.00" departLane="np3_nt3_0" departPos="0.00" departSpeed="0.00" departDelay="90.63" arrival="750.00" arrivalLane="nt14_np11_0" arrivalPos="75.00" arrivalSpeed="9.64" duration="373.00" routeLength="951.09" waitingTime="170.00" waitingCount="15" stopTime="0.00" timeLoss="291.53" rerouteNo="0" devices="tripinfo_f_0_3.35" vType="type1" speedFactor="0.99" vaporized=""/>
    <tripinfo id="f_0_3.36" depart="382.00" departLane="np3_nt3_0" departPos="0.00" departSpeed="0.00" departDelay="87.45" arrival="756.00" arrivalLane="nt14_np11_0" arrivalPos="75.00" arrivalSpeed="12.71" duration="374.00" routeLength="951.09" waitingTime="204.00" waitingCount="15" stopTime="0.00" timeLoss="306.27" rerouteNo="0" devices="tripinfo_f_0_3.36" vType="type1" speedFactor="1.19" vaporized=""/>
    <tripinfo id="f_1_3.1" depart="407.00" departLane="np3_nt3_0" departPos="0.00" departSpeed="0.00" departDelay="102.32" arrival="761.00" arrivalLane="nt14_np11_0" arrivalPos="75.00" arrivalSpeed="6.93" duration="354.00" routeLength="951.09" waitingTime="164.00" waitingCount="13" stopTime="0.00" timeLoss="259.25" rerouteNo="0" devices="tripinfo_f_1_3.1" vType="type1" speedFactor="0.84" vaporized=""/>
    <tripinfo id="f_1_3.2" depart="411.00" departLane="np3_nt3_0" departPos="0.00" departSpeed="0.00" departDelay="101.65" arrival="823.00" arrivalLane="nt14_np11_0" arrivalPos="75.00" arrivalSpeed="8.46" duration="412.00" routeLength="951.09" waitingTime="214.00" waitingCount="15" stopTime="0.00" timeLoss="325.53" rerouteNo="0" devices="tripinfo_f_1_3.2" vType="type1" speedFactor="0.92" vaporized=""/>
    <tripinfo id="f_1_3.3" depart="416.00" departLane="np3_nt3_0" departPos="0.00" departSpeed="0.00" departDelay="101.97" arrival="825.00" arrivalLane="nt14_np11_0" arrivalPos="75.00" arrivalSpeed="9.98" duration="409.00" routeLength="951.09" waitingTime="202.00" waitingCount="16" stopTime="0.00" timeLoss="333.59" rerouteNo="0" devices="tripinfo_f_1_3.3" vType="type1" speedFactor="1.07" vaporized=""/>
    <tripinfo id="f_1_3.4" depart="422.00" departLane="np3_nt3_0" departPos="3.00" departSpeed="0.00" departDelay="103.30" arrival="861.00" arrivalLane="nt14_np11_0" arrivalPos="75.00" arrivalSpeed="10.64" duration="439.00" routeLength="948.09" waitingTime="235.00" waitingCount="19" stopTime="0.00" timeLoss="368.33" rerouteNo="0" devices="tripinfo_f_1_3.4" vType="type1" speedFactor="1.14" vaporized=""/>