<?xml version="1.0" encoding="UTF-8"?>

<!-- generated on 2023-08-30 12:27:57 by Eclipse SUMO libsumo Version 1.18.0
<configuration xmlns:xsi="http://www.w3.org/2001/XMLSchema-instance" xsi:noNamespaceSchemaLocation="http://sumo.dlr.de/xsd/libsumoConfiguration.xsd">

    <input>
        <net-file value="/home/stefan/RESCO/./environments/arterial4x4/arterial4x4.net.xml"/>
        <route-files value="/home/stefan/RESCO/./environments/arterial4x4/arterial4x4_26.rou.xml"/>
    </input>

    <output>
        <tripinfo-output value="/home/stefan/results/ITRPO-tr0-arterial4x4-0-drq_norm-wait_norm/tripinfo_26.xml"/>
        <tripinfo-output.write-unfinished value="true"/>
    </output>

    <processing>
        <time-to-teleport value="-1"/>
    </processing>

    <report>
        <no-warnings value="True"/>
        <no-step-log value="True"/>
    </report>

    <random_number>
        <random value="true"/>
    </random_number>

</configuration>
-->

<tripinfos xmlns:xsi="http://www.w3.org/2001/XMLSchema-instance" xsi:noNamespaceSchemaLocation="http://sumo.dlr.de/xsd/tripinfo_file.xsd">
    <tripinfo id="f_0_2.0" depart="0.00" departLane="np2_nt2_0" departPos="39.11" departSpeed="0.00" departDelay="0.00" arrival="122.00" arrivalLane="nt15_np10_0" arrivalPos="75.00" arrivalSpeed="11.20" duration="122.00" routeLength="911.97" waitingTime="33.00" waitingCount="2" stopTime="0.00" timeLoss="49.43" rerouteNo="0" devices="tripinfo_f_0_2.0" vType="type1" speedFactor="1.06" vaporized=""/>
    <tripinfo id="f_0_0.0" depart="0.00" departLane="np13_nt13_0" departPos="63.04" departSpeed="0.00" departDelay="0.00" arrival="164.00" arrivalLane="nt4_np5_0" arrivalPos="75.00" arrivalSpeed="20.52" duration="164.00" routeLength="1284.85" waitingTime="50.00" waitingCount="5" stopTime="0.00" timeLoss="76.02" rerouteNo="0" devices="tripinfo_f_0_0.0" vType="type1" speedFactor="1.03" vaporized=""/>
    <tripinfo id="f_0_0.1" depart="14.00" departLane="np13_nt13_0" departPos="49.56" departSpeed="0.00" departDelay="0.36" arrival="183.00" arrivalLane="nt4_np5_0" arrivalPos="75.00" arrivalSpeed="17.73" duration="169.00" routeLength="1298.33" waitingTime="38.00" waitingCount="5" stopTime="0.00" timeLoss="69.13" rerouteNo="0" devices="tripinfo_f_0_0.1" vType="type1" speedFactor="0.91" vaporized=""/>
    <tripinfo id="f_0_3.0" depart="0.00" departLane="np3_nt3_0" departPos="29.83" departSpeed="0.00" departDelay="0.00" arrival="193.00" arrivalLane="nt14_np11_0" arrivalPos="75.00" arrivalSpeed="9.42" duration="193.00" routeLength="921.26" waitingTime="81.00" waitingCount="5" stopTime="0.00" timeLoss="107.52" rerouteNo="0" devices="tripinfo_f_0_3.0" vType="type1" speedFactor="0.90" vaporized=""/>
    <tripinfo id="f_0_0.2" depart="28.00" departLane="np13_nt13_0" departPos="13.06" departSpeed="0.00" departDelay="0.73" arrival="198.00" arrivalLane="nt4_np5_0" arrivalPos="75.00" arrivalSpeed="16.04" duration="170.00" routeLength="1334.83" waitingTime="35.00" waitingCount="4" stopTime="0.00" timeLoss="63.67" rerouteNo="0" devices="tripinfo_f_0_0.2" vType="type1" speedFactor="0.87" vaporized=""/>
    <tripinfo id="f_0_0.3" depart="41.00" departLane="np13_nt13_0" departPos="19.84" departSpeed="0.00" departDelay="0.09" arrival="199.00" arrivalLane="nt4_np5_0" arrivalPos="75.00" arrivalSpeed="18.63" duration="158.00" routeLength="1328.05" waitingTime="30.00" waitingCount="4" stopTime="0.00" timeLoss="62.87" rerouteNo="0" devices="tripinfo_f_0_0.3" vType="type1" speedFactor="0.97" vaporized=""/>
    <tripinfo id="f_0_3.1" depart="9.00" departLane="np3_nt3_0" departPos="21.33" departSpeed="0.00" departDelay="0.82" arrival="218.00" arrivalLane="nt14_np11_0" arrivalPos="75.00" arrivalSpeed="8.73" duration="209.00" routeLength="929.76" waitingTime="90.00" waitingCount="5" stopTime="0.00" timeLoss="118.04" rerouteNo="0" devices="tripinfo_f_0_3.1" vType="type1" speedFactor="0.86" vaporized=""/>
    <tripinfo id="f_0_3.2" depart="17.00" departLane="np3_nt3_0" departPos="23.15" departSpeed="0.00" departDelay="0.64" arrival="220.00" arrivalLane="nt14_np11_0" arrivalPos="75.00" arrivalSpeed="8.72" duration="203.00" routeLength="927.94" waitingTime="84.00" waitingCount="5" stopTime="0.00" timeLoss="124.93" rerouteNo="0" devices="tripinfo_f_0_3.2" vType="type1" speedFactor="1.00" vaporized=""/>
    <tripinfo id="f_0_2.1" depart="9.00" departLane="np2_nt2_0" departPos="1.44" departSpeed="0.00" departDelay="0.82" arrival="258.00" arrivalLane="nt15_np10_0" arrivalPos="75.00" arrivalSpeed="7.98" duration="249.00" routeLength="949.64" waitingTime="134.00" waitingCount="5" stopTime="0.00" timeLoss="164.13" rerouteNo="0" devices="tripinfo_f_0_2.1" vType="type1" speedFactor="0.94" vaporized=""/>
    <tripinfo id="f_0_0.4" depart="55.00" departLane="np13_nt13_0" departPos="40.42" departSpeed="0.00" departDelay="0.46" arrival="273.00" arrivalLane="nt4_np5_0" arrivalPos="75.00" arrivalSpeed="20.69" duration="218.00" routeLength="1307.47" waitingTime="100.00" waitingCount="5" stopTime="0.00" timeLoss="133.33" rerouteNo="0" devices="tripinfo_f_0_0.4" vType="type1" speedFactor="1.07" vaporized=""/>
    <tripinfo id="f_0_3.3" depart="25.00" departLane="np3_nt3_0" departPos="35.35" departSpeed="0.00" departDelay="0.45" arrival="278.00" arrivalLane="nt14_np11_0" arrivalPos="75.00" arrivalSpeed="9.25" duration="253.00" routeLength="915.74" waitingTime="137.00" waitingCount="6" stopTime="0.00" timeLoss="169.64" rerouteNo="0" devices="tripinfo_f_0_3.3" vType="type1" speedFactor="0.92" vaporized=""/>
    <tripinfo id="f_0_1.0" depart="0.00" departLane="np16_nt1_0" departPos="18.38" departSpeed="0.00" departDelay="0.00" arrival="283.00" arrivalLane="nt16_np8_0" arrivalPos="75.00" arrivalSpeed="24.22" duration="283.00" routeLength="1329.50" waitingTime="155.00" waitingCount="7" stopTime="0.00" timeLoss="207.26" rerouteNo="0" devices="tripinfo_f_0_1.0" vType="type1" speedFactor="1.23" vaporized=""/>
    <tripinfo id="f_0_0.5" depart="69.00" departLane="np13_nt13_0" departPos="43.67" departSpeed="0.00" departDelay="0.82" arrival="283.00" arrivalLane="nt4_np5_0" arrivalPos="75.00" arrivalSpeed="21.09" duration="214.00" routeLength="1304.22" waitingTime="90.00" waitingCount="6" stopTime="0.00" timeLoss="134.19" rerouteNo="0" devices="tripinfo_f_0_0.5" vType="type1" speedFactor="1.14" vaporized=""/>
    <tripinfo id="f_0_3.4" depart="33.00" departLane="np3_nt3_0" departPos="13.49" departSpeed="0.00" departDelay="0.27" arrival="291.00" arrivalLane="nt14_np11_0" arrivalPos="75.00" arrivalSpeed="10.64" duration="258.00" routeLength="937.60" waitingTime="146.00" waitingCount="7" stopTime="0.00" timeLoss="187.22" rerouteNo="0" devices="tripinfo_f_0_3.4" vType="type1" speedFactor="1.11" vaporized=""/>
    <tripinfo id="f_0_1.1" depart="14.00" departLane="np16_nt1_0" departPos="13.12" departSpeed="0.00" departDelay="0.36" arrival="293.00" arrivalLane="nt16_np8_0" arrivalPos="75.00" arrivalSpeed="18.90" duration="279.00" routeLength="1334.76" waitingTime="145.00" waitingCount="7" stopTime="0.00" timeLoss="183.43" rerouteNo="0" devices="tripinfo_f_0_1.1" vType="type1" speedFactor="0.97" vaporized=""/>
    <tripinfo id="f_0_3.5" depart="41.00" departLane="np3_nt3_0" departPos="19.24" departSpeed="0.00" departDelay="0.09" arrival="293.00" arrivalLane="nt14_np11_0" arrivalPos="75.00" arrivalSpeed="10.29" duration="252.00" routeLength="931.85" waitingTime="133.00" waitingCount="8" stopTime="0.00" timeLoss="179.36" rerouteNo="0" devices="tripinfo_f_0_3.5" vType="type1" speedFactor="1.07" vaporized=""/>
    <tripinfo id="f_0_0.6" depart="82.00" departLane="np13_nt13_0" departPos="1.32" departSpeed="0.00" departDelay="0.18" arrival="308.00" arrivalLane="nt4_np5_0" arrivalPos="75.00" arrivalSpeed="19.36" duration="226.00" routeLength="1346.57" waitingTime="106.00" waitingCount="5" stopTime="0.00" timeLoss="139.90" rerouteNo="0" devices="tripinfo_f_0_0.6" vType="type1" speedFactor="1.08" vaporized=""/>
    <tripinfo id="f_0_0.7" depart="96.00" departLane="np13_nt13_0" departPos="3.26" departSpeed="0.00" departDelay="0.55" arrival="309.00" arrivalLane="nt4_np5_0" arrivalPos="75.00" arrivalSpeed="22.46" duration="213.00" routeLength="1344.63" waitingTime="86.00" waitingCount="4" stopTime="0.00" timeLoss="132.81" rerouteNo="0" devices="tripinfo_f_0_0.7" vType="type1" speedFactor="1.16" vaporized=""/>
    <tripinfo id="f_0_3.6" depart="50.00" departLane="np3_nt3_0" departPos="3.06" departSpeed="0.00" departDelay="0.91" arrival="333.00" arrivalLane="nt14_np11_0" arrivalPos="75.00" arrivalSpeed="9.05" duration="283.00" routeLength="948.03" waitingTime="152.00" waitingCount="9" stopTime="0.00" timeLoss="202.52" rerouteNo="0" devices="tripinfo_f_0_3.6" vType="type1" speedFactor="0.99" vaporized=""/>
    <tripinfo id="f_0_3.7" depart="58.00" departLane="np3_nt3_0" departPos="0.45" departSpeed="0.00" departDelay="0.73" arrival="341.00" arrivalLane="nt14_np11_0" arrivalPos="75.00" arrivalSpeed="11.64" duration="283.00" routeLength="950.64" waitingTime="151.00" waitingCount="11" stopTime="0.00" timeLoss="212.86" rerouteNo="0" devices="tripinfo_f_0_3.7" vType="type1" speedFactor="1.14" vaporized=""/>
    <tripinfo id="f_0_2.2" depart="17.00" departLane="np2_nt2_0" departPos="9.89" departSpeed="0.00" departDelay="0.64" arrival="367.00" arrivalLane="nt15_np10_0" arrivalPos="75.00" arrivalSpeed="10.49" duration="350.00" routeLength="941.19" waitingTime="227.00" waitingCount="8" stopTime="0.00" timeLoss="267.79" rerouteNo="0" devices="tripinfo_f_0_2.2" vType="type1" speedFactor="0.96" vaporized=""/>
    <tripinfo id="f_0_2.3" depart="25.00" departLane="np2_nt2_0" departPos="2.70" departSpeed="0.00" departDelay="0.45" arrival="369.00" arrivalLane="nt15_np10_0" arrivalPos="75.00" arrivalSpeed="9.50" duration="344.00" routeLength="948.38" waitingTime="213.00" waitingCount="9" stopTime="0.00" timeLoss="266.19" rerouteNo="0" devices="tripinfo_f_0_2.3" vType="type1" speedFactor="1.02" vaporized=""/>
    <tripinfo id="f_0_3.8" depart="66.00" departLane="np3_nt3_0" departPos="8.67" departSpeed="0.00" departDelay="0.54" arrival="374.00" arrivalLane="nt14_np11_0" arrivalPos="75.00" arrivalSpeed="6.83" duration="308.00" routeLength="942.42" waitingTime="156.00" waitingCount="10" stopTime="0.00" timeLoss="214.84" rerouteNo="0" devices="tripinfo_f_0_3.8" vType="type1" speedFactor="0.85" vaporized=""/>
    <tripinfo id="f_0_3.9" depart="74.00" departLane="np3_nt3_0" departPos="0.00" departSpeed="0.00" departDelay="0.36" arrival="376.00" arrivalLane="nt14_np11_0" arrivalPos="75.00" arrivalSpeed="10.29" duration="302.00" routeLength="951.09" waitingTime="164.00" waitingCount="10" stopTime="0.00" timeLoss="227.35" rerouteNo="0" devices="tripinfo_f_0_3.9" vType="type1" speedFactor="1.07" vaporized=""/>
    <tripinfo id="f_0_0.8" depart="110.00" departLane="np13_nt13_0" departPos="13.60" departSpeed="0.00" departDelay="0.91" arrival="378.00" arrivalLane="nt4_np5_0" arrivalPos="75.00" arrivalSpeed="19.65" duration="268.00" routeLength="1334.29" waitingTime="143.00" waitingCount="7" stopTime="0.00" timeLoss="182.55" rerouteNo="0" devices="tripinfo_f_0_0.8" vType="type1" speedFactor="1.08" vaporized=""/>
    <tripinfo id="f_0_3.10" depart="82.00" departLane="np3_nt3_0" departPos="0.00" departSpeed="0.00" departDelay="0.18" arrival="387.00" arrivalLane="nt14_np11_0" arrivalPos="75.00" arrivalSpeed="10.11" duration="305.00" routeLength="951.09" waitingTime="158.00" waitingCount="12" stopTime="0.00" timeLoss="230.21" rerouteNo="0" devices="tripinfo_f_0_3.10" vType="type1" speedFactor="1.07" vaporized=""/>
    <tripinfo id="f_0_1.2" depart="28.00" departLane="np16_nt1_0" departPos="65.51" departSpeed="0.00" departDelay="0.73" arrival="398.00" arrivalLane="nt16_np8_0" arrivalPos="75.00" arrivalSpeed="18.11" duration="370.00" routeLength="1282.37" waitingTime="222.00" waitingCount="10" stopTime="0.00" timeLoss="272.76" rerouteNo="0" devices="tripinfo_f_0_1.2" vType="type1" speedFactor="0.93" vaporized=""/>
    <tripinfo id="f_0_2.4" depart="33.00" departLane="np2_nt2_0" departPos="12.80" departSpeed="0.00" departDelay="0.27" arrival="402.00" arrivalLane="nt15_np10_0" arrivalPos="75.00" arrivalSpeed="8.68" duration="369.00" routeLength="938.28" waitingTime="228.00" waitingCount="9" stopTime="0.00" timeLoss="287.60" rerouteNo="0" devices="tripinfo_f_0_2.4" vType="type1" speedFactor="0.97" vaporized=""/>
    <tripinfo id="f_0_2.5" depart="41.00" departLane="np2_nt2_0" departPos="40.16" departSpeed="0.00" departDelay="0.09" arrival="406.00" arrivalLane="nt15_np10_0" arrivalPos="75.00" arrivalSpeed="9.94" duration="365.00" routeLength="910.92" waitingTime="232.00" waitingCount="12" stopTime="0.00" timeLoss="292.68" rerouteNo="0" devices="tripinfo_f_0_2.5" vType="type1" speedFactor="1.05" vaporized=""/>
    <tripinfo id="f_0_3.11" depart="98.00" departLane="np3_nt3_0" departPos="0.00" departSpeed="0.00" departDelay="8.00" arrival="464.00" arrivalLane="nt14_np11_0" arrivalPos="75.00" arrivalSpeed="8.59" duration="366.00" routeLength="951.09" waitingTime="202.00" waitingCount="13" stopTime="0.00" timeLoss="277.72" rerouteNo="0" devices="tripinfo_f_0_3.11" vType="type1" speedFactor="0.91" vaporized=""/>
    <tripinfo id="f_0_3.12" depart="128.00" departLane="np3_nt3_0" departPos="2.51" departSpeed="0.00" departDelay="29.82" arrival="466.00" arrivalLane="nt14_np11_0" arrivalPos="75.00" arrivalSpeed="10.41" duration="338.00" routeLength="948.58" waitingTime="176.00" waitingCount="12" stopTime="0.00" timeLoss="259.76" rerouteNo="0" devices="tripinfo_f_0_3.12" vType="type1" speedFactor="1.02" vaporized=""/>
    <tripinfo id="f_0_0.9" depart="123.00" departLane="np13_nt13_0" departPos="16.43" departSpeed="0.00" departDelay="0.28" arrival="483.00" arrivalLane="nt4_np5_0" arrivalPos="75.00" arrivalSpeed="20.79" duration="360.00" routeLength="1331.46" waitingTime="231.00" waitingCount="10" stopTime="0.00" timeLoss="277.89" rerouteNo="0" devices="tripinfo_f_0_0.9" vType="type1" speedFactor="1.12" vaporized=""/>
    <tripinfo id="f_0_0.10" depart="137.00" departLane="np13_nt13_0" departPos="39.34" departSpeed="0.00" departDelay="0.64" arrival="485.00" arrivalLane="nt4_np5_0" arrivalPos="75.00" arrivalSpeed="19.11" duration="348.00" routeLength="1308.55" waitingTime="210.00" waitingCount="9" stopTime="0.00" timeLoss="259.61" rerouteNo="0" devices="tripinfo_f_0_0.10" vType="type1" speedFactor="1.04" vaporized=""/>
    <tripinfo id="f_0_3.13" depart="131.00" departLane="np3_nt3_0" departPos="0.92" departSpeed="0.00" departDelay="24.63" arrival="488.00" arrivalLane="nt14_np11_0" arrivalPos="75.00" arrivalSpeed="9.17" duration="357.00" routeLength="950.17" waitingTime="188.00" waitingCount="14" stopTime="0.00" timeLoss="273.65" rerouteNo="0" devices="tripinfo_f_0_3.13" vType="type1" speedFactor="0.96" vaporized=""/>
    <tripinfo id="f_0_3.14" depart="134.00" departLane="np3_nt3_0" departPos="0.00" departSpeed="0.00" departDelay="19.45" arrival="489.00" arrivalLane="nt14_np11_0" arrivalPos="75.00" arrivalSpeed="12.69" duration="355.00" routeLength="951.09" waitingTime="188.00" waitingCount="14" stopTime="0.00" timeLoss="285.96" rerouteNo="0" devices="tripinfo_f_0_3.14" vType="type1" speedFactor="1.16" vaporized=""/>
    <tripinfo id="f_0_0.11" depart="150.00" departLane="np13_nt13_0" departPos="48.42" departSpeed="0.00" departDelay="0.00" arrival="498.00" arrivalLane="nt4_np5_0" arrivalPos="75.00" arrivalSpeed="17.61" duration="348.00" routeLength="1299.47" waitingTime="192.00" waitingCount="9" stopTime="0.00" timeLoss="248.96" rerouteNo="0" devices="tripinfo_f_0_0.11" vType="type1" speedFactor="0.92" vaporized=""/>
    <tripinfo id="f_0_0.12" depart="164.00" departLane="np13_nt13_0" departPos="55.51" departSpeed="0.00" departDelay="0.37" arrival="500.00" arrivalLane="nt4_np5_0" arrivalPos="75.00" arrivalSpeed="21.92" duration="336.00" routeLength="1292.38" waitingTime="176.00" waitingCount="11" stopTime="0.00" timeLoss="256.70" rerouteNo="0" devices="tripinfo_f_0_0.12" vType="type1" speedFactor="1.14" vaporized=""/>
    <tripinfo id="f_0_3.15" depart="148.00" departLane="np3_nt3_0" departPos="0.00" departSpeed="0.00" departDelay="25.27" arrival="504.00" arrivalLane="nt14_np11_0" arrivalPos="75.00" arrivalSpeed="9.04" duration="356.00" routeLength="951.09" waitingTime="173.00" waitingCount="15" stopTime="0.00" timeLoss="260.31" rerouteNo="0" devices="tripinfo_f_0_3.15" vType="type1" speedFactor="0.83" vaporized=""/>
    <tripinfo id="f_0_3.16" depart="163.00" departLane="np3_nt3_0" departPos="0.00" departSpeed="0.00" departDelay="32.09" arrival="506.00" arrivalLane="nt14_np11_0" arrivalPos="75.00" arrivalSpeed="8.94" duration="343.00" routeLength="951.09" waitingTime="165.00" waitingCount="15" stopTime="0.00" timeLoss="259.57" rerouteNo="0" devices="tripinfo_f_0_3.16" vType="type1" speedFactor="0.95" vaporized=""/>
    <tripinfo id="f_0_3.17" depart="172.00" departLane="np3_nt3_0" departPos="0.00" departSpeed="0.00" departDelay="32.91" arrival="508.00" arrivalLane="nt14_np11_0" arrivalPos="75.00" arrivalSpeed="9.75" duration="336.00" routeLength="951.09" waitingTime="163.00" waitingCount="14" stopTime="0.00" timeLoss="257.12" rerouteNo="0" devices="tripinfo_f_0_3.17" vType="type1" speedFactor="1.01" vaporized=""/>
    <tripinfo id="f_0_3.18" depart="187.00" departLane="np3_nt3_0" departPos="0.00" departSpeed="0.00" departDelay="39.72" arrival="510.00" arrivalLane="nt14_np11_0" arrivalPos="75.00" arrivalSpeed="10.91" duration="323.00" routeLength="951.09" waitingTime="149.00" waitingCount="12" stopTime="0.00" timeLoss="244.49" rerouteNo="0" devices="tripinfo_f_0_3.18" vType="type1" speedFactor="1.03" vaporized=""/>
    <tripinfo id="f_0_2.6" depart="50.00" departLane="np2_nt2_0" departPos="11.76" departSpeed="0.00" departDelay="0.91" arrival="521.00" arrivalLane="nt15_np10_0" arrivalPos="75.00" arrivalSpeed="11.53" duration="471.00" routeLength="939.32" waitingTime="333.00" waitingCount="11" stopTime="0.00" timeLoss="401.58" rerouteNo="0" devices="tripinfo_f_0_2.6" vType="type1" speedFactor="1.13" vaporized=""/>
    <tripinfo id="f_0_3.19" depart="191.00" departLane="np3_nt3_0" departPos="0.00" departSpeed="0.00" departDelay="35.54" arrival="527.00" arrivalLane="nt14_np11_0" arrivalPos="75.00" arrivalSpeed="9.88" duration="336.00" routeLength="951.09" waitingTime="161.00" waitingCount="13" stopTime="0.00" timeLoss="259.65" rerouteNo="0" devices="tripinfo_f_0_3.19" vType="type1" speedFactor="1.05" vaporized=""/>
    <tripinfo id="f_0_3.20" depart="194.00" departLane="np3_nt3_0" departPos="0.98" departSpeed="0.00" departDelay="30.36" arrival="552.00" arrivalLane="nt14_np11_0" arrivalPos="75.00" arrivalSpeed="9.78" duration="358.00" routeLength="950.11" waitingTime="166.00" waitingCount="11" stopTime="0.00" timeLoss="279.25" rerouteNo="0" devices="tripinfo_f_0_3.20" vType="type1" speedFactor="1.02" vaporized=""/>
    <tripinfo id="f_0_3.25" depart="258.00" departLane="np3_nt3_0" departPos="49.20" departSpeed="0.00" departDelay="53.45" arrival="568.00" arrivalLane="nt14_np11_0" arrivalPos="75.00" arrivalSpeed="9.70" duration="310.00" routeLength="901.89" waitingTime="150.00" waitingCount="9" stopTime="0.00" timeLoss="233.30" rerouteNo="0" devices="tripinfo_f_0_3.25" vType="type1" speedFactor="0.99" vaporized=""/>
    <tripinfo id="f_0_0.13" depart="178.00" departLane="np13_nt13_0" departPos="6.50" departSpeed="0.00" departDelay="0.73" arrival="573.00" arrivalLane="nt4_np5_0" arrivalPos="75.00" arrivalSpeed="20.16" duration="395.00" routeLength="1341.39" waitingTime="251.00" waitingCount="8" stopTime="0.00" timeLoss="308.59" rerouteNo="0" devices="tripinfo_f_0_0.13" vType="type1" speedFactor="1.07" vaporized=""/>
    <tripinfo id="f_0_0.14" depart="191.00" departLane="np13_nt13_0" departPos="29.17" departSpeed="0.00" departDelay="0.10" arrival="576.00" arrivalLane="nt4_np5_0" arrivalPos="75.00" arrivalSpeed="17.76" duration="385.00" routeLength="1318.72" waitingTime="238.00" waitingCount="8" stopTime="0.00" timeLoss="286.55" rerouteNo="0" devices="tripinfo_f_0_0.14" vType="type1" speedFactor="0.94" vaporized=""/>
    <tripinfo id="f_0_3.21" depart="213.00" departLane="np3_nt3_0" departPos="0.00" departSpeed="0.00" departDelay="41.18" arrival="592.00" arrivalLane="nt14_np11_0" arrivalPos="75.00" arrivalSpeed="8.88" duration="379.00" routeLength="951.09" waitingTime="202.00" waitingCount="11" stopTime="0.00" timeLoss="299.35" rerouteNo="0" devices="tripinfo_f_0_3.21" vType="type1" speedFactor="1.00" vaporized=""/>
    <tripinfo id="f_0_3.22" depart="223.00" departLane="np3_nt3_0" departPos="0.00" departSpeed="0.00" departDelay="43.00" arrival="607.00" arrivalLane="nt14_np11_0" arrivalPos="75.00" arrivalSpeed="9.87" duration="384.00" routeLength="951.09" waitingTime="204.00" waitingCount="12" stopTime="0.00" timeLoss="308.03" rerouteNo="0" devices="tripinfo_f_0_3.22" vType="type1" speedFactor="1.06" vaporized=""/>
    <tripinfo id="f_0_3.23" depart="233.00" departLane="np3_nt3_0" departPos="0.00" departSpeed="0.00" departDelay="44.81" arrival="617.00" arrivalLane="nt14_np11_0" arrivalPos="75.00" arrivalSpeed="9.93" duration="384.00" routeLength="951.09" waitingTime="203.00" waitingCount="14" stopTime="0.00" timeLoss="308.17" rerouteNo="0" devices="tripinfo_f_0_3.23" vType="type1" speedFactor="1.06" vaporized=""/>
    <tripinfo id="f_0_3.24" depart="257.00" departLane="np3_nt3_0" departPos="0.63" departSpeed="0.00" departDelay="60.63" arrival="627.00" arrivalLane="nt14_np11_0" arrivalPos="75.00" arrivalSpeed="9.77" duration="370.00" routeLength="950.46" waitingTime="179.00" waitingCount="16" stopTime="0.00" timeLoss="289.11" rerouteNo="0" devices="tripinfo_f_0_3.24" vType="type1" speedFactor="0.98" vaporized=""/>
    <tripinfo id="f_0_3.26" depart="259.00" departLane="np3_nt3_0" departPos="0.00" departSpeed="0.00" departDelay="46.27" arrival="667.00" arrivalLane="nt14_np11_0" arrivalPos="75.00" arrivalSpeed="10.83" duration="408.00" routeLength="951.09" waitingTime="206.00" waitingCount="14" stopTime="0.00" timeLoss="329.63" rerouteNo="0" devices="tripinfo_f_0_3.26" vType="type1" speedFactor="1.02" vaporized=""/>
    <tripinfo id="f_0_3.27" depart="263.00" departLane="np3_nt3_0" departPos="0.00" departSpeed="0.00" departDelay="42.09" arrival="687.00" arrivalLane="nt14_np11_0" arrivalPos="75.00" arrivalSpeed="8.90" duration="424.00" routeLength="951.09" waitingTime="223.00" waitingCount="17" stopTime="0.00" timeLoss="344.05" rerouteNo="0" devices="tripinfo_f_0_3.27" vType="type1" speedFactor="1.00" vaporized=""/>
    <tripinfo id="f_0_3.28" depart="267.00" departLane="np3_nt3_0" departPos="0.00" departSpeed="0.00" departDelay="37.90" arrival="688.00" arrivalLane="nt14_np11_0" arrivalPos="75.00" arrivalSpeed="12.72" duration="421.00" routeLength="951.09" waitingTime="210.00" waitingCount="18" stopTime="0.00" timeLoss="356.06" rerouteNo="0" devices="tripinfo_f_0_3.28" vType="type1" speedFactor="1.23" vaporized=""/>
    <tripinfo id="f_0_3.31" depart="297.00" departLane="np3_nt3_0" departPos="29.79" departSpeed="0.00" departDelay="43.36" arrival="698.00" arrivalLane="nt14_np11_0" arrivalPos="75.00" arrivalSpeed="10.49" duration="401.00" routeLength="921.30" waitingTime="184.00" waitingCount="18" stopTime="0.00" timeLoss="319.90" rerouteNo="0" devices="tripinfo_f_0_3.31" vType="type1" speedFactor="0.96" vaporized=""/>
    <tripinfo id="f_0_3.29" depart="270.00" departLane="np3_nt3_0" departPos="0.00" departSpeed="0.00" departDelay="32.72" arrival="700.00" arrivalLane="nt14_np11_0" arrivalPos="75.00" arrivalSpeed="10.69" duration="430.00" routeLength="951.09" waitingTime="190.00" waitingCount="19" stopTime="0.00" timeLoss="353.01" rerouteNo="0" devices="tripinfo_f_0_3.29" vType="type1" speedFactor="1.04" vaporized=""/>
    <tripinfo id="f_0_3.30" depart="274.00" departLane="np3_nt3_0" departPos="0.00" departSpeed="0.00" departDelay="28.54" arrival="738.00" arrivalLane="nt14_np11_0" arrivalPos="75.00" arrivalSpeed="8.95" duration="464.00" routeLength="951.09" waitingTime="216.00" waitingCount="19" stopTime="0.00" timeLoss="381.59" rerouteNo="0" devices="tripinfo_f_0_3.30" vType="type1" speedFactor="0.97" vaporized=""/>
    <tripinfo id="f_0_3.32" depart="298.00" departLane="np3_nt3_0" departPos="3.39" departSpeed="0.00" departDelay="36.18" arrival="740.00" arrivalLane="nt14_np11_0" arrivalPos="75.00" arrivalSpeed="11.40" duration="442.00" routeLength="947.70" waitingTime="187.00" waitingCount="17" stopTime="0.00" timeLoss="365.77" rerouteNo="0" devices="tripinfo_f_0_3.32" vType="type1" speedFactor="1.05" vaporized=""/>
    <tripinfo id="f_0_3.33" depart="302.00" departLane="np3_nt3_0" departPos="0.00" departSpeed="0.00" departDelay="31.99" arrival="747.00" arrivalLane="nt14_np11_0" arrivalPos="75.00" arrivalSpeed="8.50" duration="445.00" routeLength="951.09" waitingTime="209.00" waitingCount="19" stopTime="0.00" timeLoss="362.03" rerouteNo="0" devices="tripinfo_f_0_3.33" vType="type1" speedFactor="0.96" vaporized=""/>
    <tripinfo id="f_0_3.34" depart="312.00" departLane="np3_nt3_0" departPos="1.95" departSpeed="0.00" departDelay="33.81" arrival="749.00" arrivalLane="nt14_np11_0" arrivalPos="75.00" arrivalSpeed="11.56" duration="437.00" routeLength="949.14" waitingTime="196.00" waitingCount="18" stopTime="0.00" timeLoss="368.71" rerouteNo="0" devices="tripinfo_f_0_3.34" vType="type1" speedFactor="1.18" vaporized=""/>
    <tripinfo id="f_0_3.35" depart="315.00" departLane="np3_nt3_0" departPos="0.00" departSpeed="0.00" departDelay="28.63" arrival="803.00" arrivalLane="nt14_np11_0" arrivalPos="75.00" arrivalSpeed="8.10" duration="488.00" routeLength="951.09" waitingTime="232.00" waitingCount="18" stopTime="0.00" timeLoss="398.26" rerouteNo="0" devices="tripinfo_f_0_3.35" vType="type1" speedFactor="0.89" vaporized=""/>
    <tripinfo id="f_0_3.36" depart="322.00" departLane="np3_nt3_0" departPos="0.00" departSpeed="0.00" departDelay="27.45" arrival="805.00" arrivalLane="nt14_np11_0" arrivalPos="75.00" arrivalSpeed="9.75" duration="483.00" routeLength="951.09" waitingTime="221.00" waitingCount="21" stopTime="0.00" timeLoss="403.24" rerouteNo="0" devices="tripinfo_f_0_3.36" vType="type1" speedFactor="1.00" vaporized=""/>
    <tripinfo id="f_1_3.0" depart="325.00" departLane="np3_nt3_0" departPos="0.00" departSpeed="0.00" departDelay="25.00" arrival="862.00" arrivalLane="nt14_np11_0" arrivalPos="75.00" arrivalSpeed="9.60" duration="537.00" routeLength="951.09" waitingTime="266.00" waitingCount="22" stopTime="0.00" timeLoss="459.51" rerouteNo="0" devices="tripinfo_f_1_3.0" vType="type1" speedFactor="1.03" vaporized=""/>
    <tripinfo id="f_3_5.0" depart="900.00" departLane="np8_nt16_0" departPos="4.88" departSpeed="0.00" departDelay="0.00" arrival="1107.00" arrivalLane="nt1_np16_0" arrivalPos="67.80" arrivalSpeed="18.67" duration="207.00" routeLength="1343.00" waitingTime="94.00" waitingCount="4" stopTime="0.00" timeLoss="119.00" rerouteNo="0" devices="tripinfo_f_3_5.0" vType="type1" speedFactor="1.06" vaporized=""/>
    <tripinfo id="f_3_5.1" depart="922.00" departLane="np8_nt16_0" departPos="62.73" departSpeed="0.00" departDelay="0.31" arrival="1110.00" arrivalLane="nt1_np16_0" arrivalPos="67.80" arrivalSpeed="17.78" duration="188.00" routeLength="1285.15" waitingTime="68.00" waitingCount="3" stopTime="0.00" timeLoss="91.69" rerouteNo="0" devices="tripinfo_f_3_5.1" vType="type1" speedFactor="0.94" vaporized=""/>
    <tripinfo id="f_3_5.2" depart="944.00" departLane="np8_nt16_0" departPos="45.06" departSpeed="0.00" departDelay="0.63" arrival="2077.00" arrivalLane="nt1_np16_0" arrivalPos="67.80" arrivalSpeed="19.16" duration="1133.00" routeLength="1302.82" waitingTime="1020.00" waitingCount="4" stopTime="0.00" timeLoss="1047.73" rerouteNo="0" devices="tripinfo_f_3_5.2" vType="type1" speedFactor="1.07" vaporized=""/>
    <tripinfo id="f_3_5.3" depart="966.00" departLane="np8_nt16_0" departPos="59.67" departSpeed="0.00" departDelay="0.94" arrival="2094.00" arrivalLane="nt1_np16_0" arrivalPos="67.80" arrivalSpeed="18.26" duration="1128.00" routeLength="1288.21" waitingTime="999.00" waitingCount="6" stopTime="0.00" timeLoss="1035.98" rerouteNo="0" devices="tripinfo_f_3_5.3" vType="type1" speedFactor="0.99" vaporized=""/>
    <tripinfo id="f_0_1.3" depart="41.00" departLane="np16_nt1_0" departPos="1.89" departSpeed="0.00" departDelay="0.09" arrival="-1.00" arrivalLane="" arrivalPos="-1.00" arrivalSpeed="-1.00" duration="3559.00" routeLength="860.96" waitingTime="3433.00" waitingCount="11" stopTime="0.00" timeLoss="3508.98" rerouteNo="0" devices="tripinfo_f_0_1.3" vType="type1" speedFactor="1.22" vaporized="end"/>
    <tripinfo id="f_0_1.4" depart="55.00" departLane="np16_nt1_0" departPos="62.67" departSpeed="0.00" departDelay="0.46" arrival="-1.00" arrivalLane="" arrivalPos="-1.00" arrivalSpeed="-1.00" duration="3545.00" routeLength="792.68" waitingTime="3431.00" waitingCount="11" stopTime="0.00" timeLoss="3497.60" rerouteNo="0" devices="tripinfo_f_0_1.4" vType="type1" speedFactor="1.20" vaporized="end"/>
    <tripinfo id="f_0_2.7" depart="58.00" departLane="np2_nt2_0" departPos="23.91" departSpeed="0.00" departDelay="0.73" arrival="-1.00" arrivalLane="" arrivalPos="-1.00" arrivalSpeed="-1.00" duration="3542.00" routeLength="615.37" waitingTime="3426.00" waitingCount="13" stopTime="0.00" timeLoss="3495.93" rerouteNo="0" devices="tripinfo_f_0_2.7" vType="type1" speedFactor="1.08" vaporized="end"/>
    <tripinfo id="f_0_2.8" depart="66.00" departLane="np2_nt2_0" departPos="12.99" departSpeed="0.00" departDelay="0.54" arrival="-1.00" arrivalLane="" arrivalPos="-1.00" arrivalSpeed="-1.00" duration="3534.00" routeLength="618.78" waitingTime="3413.00" waitingCount="13" stopTime="0.00" timeLoss="3477.98" rerouteNo="0" devices="tripinfo_f_0_2.8" vType="type1" speedFactor="0.90" vaporized="end"/>