<?xml version="1.0" encoding="UTF-8"?>

<!-- generated on 2023-08-30 12:48:38 by Eclipse SUMO libsumo Version 1.18.0
<configuration xmlns:xsi="http://www.w3.org/2001/XMLSchema-instance" xsi:noNamespaceSchemaLocation="http://sumo.dlr.de/xsd/libsumoConfiguration.xsd">

    <input>
        <net-file value="/home/stefan/RESCO/./environments/arterial4x4/arterial4x4.net.xml"/>
        <route-files value="/home/stefan/RESCO/./environments/arterial4x4/arterial4x4_83.rou.xml"/>
    </input>

    <output>
        <tripinfo-output value="/home/stefan/results/ITRPO-tr0-arterial4x4-0-drq_norm-wait_norm/tripinfo_83.xml"/>
        <tripinfo-output.write-unfinished value="true"/>
    </output>

    <processing>
        <time-to-teleport value="-1"/>
    </processing>

    <report>
        <no-warnings value="True"/>
        <no-step-log value="True"/>
    </report>

    <random_number>
        <random value="true"/>
    </random_number>

</configuration>
-->

<tripinfos xmlns:xsi="http://www.w3.org/2001/XMLSchema-instance" xsi:noNamespaceSchemaLocation="http://sumo.dlr.de/xsd/tripinfo_file.xsd">
    <tripinfo id="f_0_2.0" depart="0.00" departLane="np2_nt2_0" departPos="0.82" departSpeed="0.00" departDelay="0.00" arrival="122.00" arrivalLane="nt15_np10_0" arrivalPos="75.00" arrivalSpeed="9.19" duration="122.00" routeLength="950.26" waitingTime="25.00" waitingCount="3" stopTime="0.00" timeLoss="46.15" rerouteNo="0" devices="tripinfo_f_0_2.0" vType="type1" speedFactor="1.06" vaporized=""/>
    <tripinfo id="f_0_3.0" depart="0.00" departLane="np3_nt3_0" departPos="29.74" departSpeed="0.00" departDelay="0.00" arrival="128.00" arrivalLane="nt14_np11_0" arrivalPos="75.00" arrivalSpeed="8.56" duration="128.00" routeLength="921.35" waitingTime="18.00" waitingCount="4" stopTime="0.00" timeLoss="47.18" rerouteNo="0" devices="tripinfo_f_0_3.0" vType="type1" speedFactor="0.96" vaporized=""/>
    <tripinfo id="f_0_0.0" depart="0.00" departLane="np13_nt13_0" departPos="54.14" departSpeed="0.00" departDelay="0.00" arrival="173.00" arrivalLane="nt4_np5_0" arrivalPos="75.00" arrivalSpeed="20.92" duration="173.00" routeLength="1293.75" waitingTime="62.00" waitingCount="3" stopTime="0.00" timeLoss="91.35" rerouteNo="0" devices="tripinfo_f_0_0.0" vType="type1" speedFactor="1.10" vaporized=""/>
    <tripinfo id="f_0_3.1" depart="9.00" departLane="np3_nt3_0" departPos="62.24" departSpeed="0.00" departDelay="0.82" arrival="174.00" arrivalLane="nt14_np11_0" arrivalPos="75.00" arrivalSpeed="8.45" duration="165.00" routeLength="888.85" waitingTime="56.00" waitingCount="2" stopTime="0.00" timeLoss="76.64" rerouteNo="0" devices="tripinfo_f_0_3.1" vType="type1" speedFactor="0.84" vaporized=""/>
    <tripinfo id="f_0_3.2" depart="17.00" departLane="np3_nt3_0" departPos="9.03" departSpeed="0.00" departDelay="0.64" arrival="176.00" arrivalLane="nt14_np11_0" arrivalPos="75.00" arrivalSpeed="9.52" duration="159.00" routeLength="942.06" waitingTime="44.00" waitingCount="2" stopTime="0.00" timeLoss="71.65" rerouteNo="0" devices="tripinfo_f_0_3.2" vType="type1" speedFactor="0.91" vaporized=""/>
    <tripinfo id="f_0_2.1" depart="9.00" departLane="np2_nt2_0" departPos="16.59" departSpeed="0.00" departDelay="0.82" arrival="182.00" arrivalLane="nt15_np10_0" arrivalPos="75.00" arrivalSpeed="10.39" duration="173.00" routeLength="934.49" waitingTime="69.00" waitingCount="4" stopTime="0.00" timeLoss="94.40" rerouteNo="0" devices="tripinfo_f_0_2.1" vType="type1" speedFactor="1.00" vaporized=""/>
    <tripinfo id="f_0_2.2" depart="17.00" departLane="np2_nt2_0" departPos="15.11" departSpeed="0.00" departDelay="0.64" arrival="203.00" arrivalLane="nt15_np10_0" arrivalPos="75.00" arrivalSpeed="10.13" duration="186.00" routeLength="935.97" waitingTime="72.00" waitingCount="6" stopTime="0.00" timeLoss="102.58" rerouteNo="0" devices="tripinfo_f_0_2.2" vType="type1" speedFactor="0.94" vaporized=""/>
    <tripinfo id="f_0_2.3" depart="25.00" departLane="np2_nt2_0" departPos="5.17" departSpeed="0.00" departDelay="0.45" arrival="205.00" arrivalLane="nt15_np10_0" arrivalPos="75.00" arrivalSpeed="9.88" duration="180.00" routeLength="945.91" waitingTime="62.00" waitingCount="6" stopTime="0.00" timeLoss="98.88" rerouteNo="0" devices="tripinfo_f_0_2.3" vType="type1" speedFactor="0.98" vaporized=""/>
    <tripinfo id="f_0_0.1" depart="14.00" departLane="np13_nt13_0" departPos="53.84" departSpeed="0.00" departDelay="0.36" arrival="219.00" arrivalLane="nt4_np5_0" arrivalPos="75.00" arrivalSpeed="14.12" duration="205.00" routeLength="1294.05" waitingTime="61.00" waitingCount="6" stopTime="0.00" timeLoss="95.28" rerouteNo="0" devices="tripinfo_f_0_0.1" vType="type1" speedFactor="0.83" vaporized=""/>
    <tripinfo id="f_0_0.2" depart="28.00" departLane="np13_nt13_0" departPos="43.41" departSpeed="0.00" departDelay="0.73" arrival="220.00" arrivalLane="nt4_np5_0" arrivalPos="75.00" arrivalSpeed="18.40" duration="192.00" routeLength="1304.48" waitingTime="53.00" waitingCount="6" stopTime="0.00" timeLoss="105.64" rerouteNo="0" devices="tripinfo_f_0_0.2" vType="type1" speedFactor="1.05" vaporized=""/>
    <tripinfo id="f_0_2.4" depart="33.00" departLane="np2_nt2_0" departPos="15.43" departSpeed="0.00" departDelay="0.27" arrival="228.00" arrivalLane="nt15_np10_0" arrivalPos="75.00" arrivalSpeed="9.42" duration="195.00" routeLength="935.65" waitingTime="69.00" waitingCount="7" stopTime="0.00" timeLoss="108.22" rerouteNo="0" devices="tripinfo_f_0_2.4" vType="type1" speedFactor="0.91" vaporized=""/>
    <tripinfo id="f_0_3.3" depart="25.00" departLane="np3_nt3_0" departPos="2.82" departSpeed="0.00" departDelay="0.45" arrival="238.00" arrivalLane="nt14_np11_0" arrivalPos="75.00" arrivalSpeed="9.74" duration="213.00" routeLength="948.27" waitingTime="95.00" waitingCount="4" stopTime="0.00" timeLoss="124.86" rerouteNo="0" devices="tripinfo_f_0_3.3" vType="type1" speedFactor="0.91" vaporized=""/>
    <tripinfo id="f_0_1.0" depart="0.00" departLane="np16_nt1_0" departPos="45.99" departSpeed="0.00" departDelay="0.00" arrival="239.00" arrivalLane="nt16_np8_0" arrivalPos="75.00" arrivalSpeed="17.80" duration="239.00" routeLength="1301.89" waitingTime="104.00" waitingCount="7" stopTime="0.00" timeLoss="144.98" rerouteNo="0" devices="tripinfo_f_0_1.0" vType="type1" speedFactor="0.97" vaporized=""/>
    <tripinfo id="f_0_3.4" depart="33.00" departLane="np3_nt3_0" departPos="34.37" departSpeed="0.00" departDelay="0.27" arrival="240.00" arrivalLane="nt14_np11_0" arrivalPos="75.00" arrivalSpeed="11.43" duration="207.00" routeLength="916.72" waitingTime="103.00" waitingCount="6" stopTime="0.00" timeLoss="139.07" rerouteNo="0" devices="tripinfo_f_0_3.4" vType="type1" speedFactor="1.13" vaporized=""/>
    <tripinfo id="f_0_3.5" depart="41.00" departLane="np3_nt3_0" departPos="12.42" departSpeed="0.00" departDelay="0.09" arrival="242.00" arrivalLane="nt14_np11_0" arrivalPos="75.00" arrivalSpeed="7.62" duration="201.00" routeLength="938.67" waitingTime="72.00" waitingCount="8" stopTime="0.00" timeLoss="111.76" rerouteNo="0" devices="tripinfo_f_0_3.5" vType="type1" speedFactor="0.88" vaporized=""/>
    <tripinfo id="f_0_3.6" depart="50.00" departLane="np3_nt3_0" departPos="16.05" departSpeed="0.00" departDelay="0.91" arrival="244.00" arrivalLane="nt14_np11_0" arrivalPos="75.00" arrivalSpeed="10.90" duration="194.00" routeLength="935.04" waitingTime="65.00" waitingCount="7" stopTime="0.00" timeLoss="121.35" rerouteNo="0" devices="tripinfo_f_0_3.6" vType="type1" speedFactor="1.08" vaporized=""/>
    <tripinfo id="f_0_2.5" depart="41.00" departLane="np2_nt2_0" departPos="35.66" departSpeed="0.00" departDelay="0.09" arrival="262.00" arrivalLane="nt15_np10_0" arrivalPos="75.00" arrivalSpeed="9.75" duration="221.00" routeLength="915.42" waitingTime="100.00" waitingCount="8" stopTime="0.00" timeLoss="146.20" rerouteNo="0" devices="tripinfo_f_0_2.5" vType="type1" speedFactor="1.03" vaporized=""/>
    <tripinfo id="f_0_0.3" depart="41.00" departLane="np13_nt13_0" departPos="21.85" departSpeed="0.00" departDelay="0.09" arrival="270.00" arrivalLane="nt4_np5_0" arrivalPos="75.00" arrivalSpeed="15.02" duration="229.00" routeLength="1326.04" waitingTime="75.00" waitingCount="5" stopTime="0.00" timeLoss="115.86" rerouteNo="0" devices="tripinfo_f_0_0.3" vType="type1" speedFactor="0.82" vaporized=""/>
    <tripinfo id="f_0_0.4" depart="55.00" departLane="np13_nt13_0" departPos="6.97" departSpeed="0.00" departDelay="0.46" arrival="271.00" arrivalLane="nt4_np5_0" arrivalPos="75.00" arrivalSpeed="18.54" duration="216.00" routeLength="1340.92" waitingTime="72.00" waitingCount="6" stopTime="0.00" timeLoss="122.38" rerouteNo="0" devices="tripinfo_f_0_0.4" vType="type1" speedFactor="1.00" vaporized=""/>
    <tripinfo id="f_0_0.5" depart="69.00" departLane="np13_nt13_0" departPos="35.18" departSpeed="0.00" departDelay="0.82" arrival="273.00" arrivalLane="nt4_np5_0" arrivalPos="75.00" arrivalSpeed="19.31" duration="204.00" routeLength="1312.71" waitingTime="63.00" waitingCount="7" stopTime="0.00" timeLoss="111.71" rerouteNo="0" devices="tripinfo_f_0_0.5" vType="type1" speedFactor="1.00" vaporized=""/>
    <tripinfo id="f_0_3.7" depart="58.00" departLane="np3_nt3_0" departPos="2.40" departSpeed="0.00" departDelay="0.73" arrival="274.00" arrivalLane="nt14_np11_0" arrivalPos="75.00" arrivalSpeed="8.72" duration="216.00" routeLength="948.69" waitingTime="89.00" waitingCount="5" stopTime="0.00" timeLoss="121.00" rerouteNo="0" devices="tripinfo_f_0_3.7" vType="type1" speedFactor="0.84" vaporized=""/>
    <tripinfo id="f_0_1.1" depart="14.00" departLane="np16_nt1_0" departPos="57.39" departSpeed="0.00" departDelay="0.36" arrival="283.00" arrivalLane="nt16_np8_0" arrivalPos="75.00" arrivalSpeed="19.84" duration="269.00" routeLength="1290.49" waitingTime="128.00" waitingCount="9" stopTime="0.00" timeLoss="180.25" rerouteNo="0" devices="tripinfo_f_0_1.1" vType="type1" speedFactor="1.02" vaporized=""/>
    <tripinfo id="f_0_2.6" depart="50.00" departLane="np2_nt2_0" departPos="8.59" departSpeed="0.00" departDelay="0.91" arrival="285.00" arrivalLane="nt15_np10_0" arrivalPos="75.00" arrivalSpeed="8.53" duration="235.00" routeLength="942.49" waitingTime="91.00" waitingCount="8" stopTime="0.00" timeLoss="138.09" rerouteNo="0" devices="tripinfo_f_0_2.6" vType="type1" speedFactor="0.82" vaporized=""/>
    <tripinfo id="f_0_1.2" depart="28.00" departLane="np16_nt1_0" departPos="34.08" departSpeed="0.00" departDelay="0.73" arrival="303.00" arrivalLane="nt16_np8_0" arrivalPos="75.00" arrivalSpeed="17.92" duration="275.00" routeLength="1313.80" waitingTime="111.00" waitingCount="10" stopTime="0.00" timeLoss="182.12" rerouteNo="0" devices="tripinfo_f_0_1.2" vType="type1" speedFactor="0.98" vaporized=""/>
    <tripinfo id="f_0_0.6" depart="82.00" departLane="np13_nt13_0" departPos="63.25" departSpeed="0.00" departDelay="0.18" arrival="308.00" arrivalLane="nt4_np5_0" arrivalPos="75.00" arrivalSpeed="18.06" duration="226.00" routeLength="1284.64" waitingTime="98.00" waitingCount="6" stopTime="0.00" timeLoss="135.12" rerouteNo="0" devices="tripinfo_f_0_0.6" vType="type1" speedFactor="0.99" vaporized=""/>
    <tripinfo id="f_0_2.7" depart="58.00" departLane="np2_nt2_0" departPos="2.94" departSpeed="0.00" departDelay="0.73" arrival="319.00" arrivalLane="nt15_np10_0" arrivalPos="75.00" arrivalSpeed="8.10" duration="261.00" routeLength="948.14" waitingTime="98.00" waitingCount="8" stopTime="0.00" timeLoss="168.29" rerouteNo="0" devices="tripinfo_f_0_2.7" vType="type1" speedFactor="0.86" vaporized=""/>
    <tripinfo id="f_0_2.8" depart="66.00" departLane="np2_nt2_0" departPos="53.91" departSpeed="0.00" departDelay="0.54" arrival="320.00" arrivalLane="nt15_np10_0" arrivalPos="75.00" arrivalSpeed="11.31" duration="254.00" routeLength="897.17" waitingTime="92.00" waitingCount="9" stopTime="0.00" timeLoss="183.38" rerouteNo="0" devices="tripinfo_f_0_2.8" vType="type1" speedFactor="1.06" vaporized=""/>
    <tripinfo id="f_0_3.8" depart="66.00" departLane="np3_nt3_0" departPos="6.17" departSpeed="0.00" departDelay="0.54" arrival="322.00" arrivalLane="nt14_np11_0" arrivalPos="75.00" arrivalSpeed="9.98" duration="256.00" routeLength="944.92" waitingTime="138.00" waitingCount="7" stopTime="0.00" timeLoss="176.44" rerouteNo="0" devices="tripinfo_f_0_3.8" vType="type1" speedFactor="1.00" vaporized=""/>
    <tripinfo id="f_0_2.9" depart="74.00" departLane="np2_nt2_0" departPos="11.88" departSpeed="0.00" departDelay="0.36" arrival="322.00" arrivalLane="nt15_np10_0" arrivalPos="75.00" arrivalSpeed="9.54" duration="248.00" routeLength="939.20" waitingTime="92.00" waitingCount="10" stopTime="0.00" timeLoss="169.08" rerouteNo="0" devices="tripinfo_f_0_2.9" vType="type1" speedFactor="0.99" vaporized=""/>
    <tripinfo id="f_0_1.3" depart="41.00" departLane="np16_nt1_0" departPos="27.84" departSpeed="0.00" departDelay="0.09" arrival="324.00" arrivalLane="nt16_np8_0" arrivalPos="75.00" arrivalSpeed="15.47" duration="283.00" routeLength="1320.04" waitingTime="108.00" waitingCount="9" stopTime="0.00" timeLoss="171.54" rerouteNo="0" devices="tripinfo_f_0_1.3" vType="type1" speedFactor="0.82" vaporized=""/>
    <tripinfo id="f_0_3.9" depart="74.00" departLane="np3_nt3_0" departPos="25.31" departSpeed="0.00" departDelay="0.36" arrival="324.00" arrivalLane="nt14_np11_0" arrivalPos="75.00" arrivalSpeed="10.50" duration="250.00" routeLength="925.78" waitingTime="127.00" waitingCount="5" stopTime="0.00" timeLoss="178.89" rerouteNo="0" devices="tripinfo_f_0_3.9" vType="type1" speedFactor="1.10" vaporized=""/>
    <tripinfo id="f_0_2.10" depart="82.00" departLane="np2_nt2_0" departPos="30.89" departSpeed="0.00" departDelay="0.18" arrival="324.00" arrivalLane="nt15_np10_0" arrivalPos="75.00" arrivalSpeed="9.66" duration="242.00" routeLength="920.19" waitingTime="87.00" waitingCount="10" stopTime="0.00" timeLoss="167.10" rerouteNo="0" devices="tripinfo_f_0_2.10" vType="type1" speedFactor="1.03" vaporized=""/>
    <tripinfo id="f_0_0.7" depart="96.00" departLane="np13_nt13_0" departPos="23.45" departSpeed="0.00" departDelay="0.55" arrival="324.00" arrivalLane="nt4_np5_0" arrivalPos="75.00" arrivalSpeed="16.55" duration="228.00" routeLength="1324.44" waitingTime="91.00" waitingCount="7" stopTime="0.00" timeLoss="130.23" rerouteNo="0" devices="tripinfo_f_0_0.7" vType="type1" speedFactor="0.95" vaporized=""/>
    <tripinfo id="f_0_0.8" depart="110.00" departLane="np13_nt13_0" departPos="35.89" departSpeed="0.00" departDelay="0.91" arrival="325.00" arrivalLane="nt4_np5_0" arrivalPos="75.00" arrivalSpeed="19.15" duration="215.00" routeLength="1312.00" waitingTime="79.00" waitingCount="7" stopTime="0.00" timeLoss="124.43" rerouteNo="0" devices="tripinfo_f_0_0.8" vType="type1" speedFactor="1.01" vaporized=""/>
    <tripinfo id="f_0_1.4" depart="55.00" departLane="np16_nt1_0" departPos="28.83" departSpeed="0.00" departDelay="0.46" arrival="326.00" arrivalLane="nt16_np8_0" arrivalPos="75.00" arrivalSpeed="18.21" duration="271.00" routeLength="1319.05" waitingTime="98.00" waitingCount="8" stopTime="0.00" timeLoss="180.44" rerouteNo="0" devices="tripinfo_f_0_1.4" vType="type1" speedFactor="1.02" vaporized=""/>
    <tripinfo id="f_0_2.11" depart="90.00" departLane="np2_nt2_0" departPos="3.48" departSpeed="0.00" departDelay="0.00" arrival="332.00" arrivalLane="nt15_np10_0" arrivalPos="75.00" arrivalSpeed="9.73" duration="242.00" routeLength="947.60" waitingTime="72.00" waitingCount="9" stopTime="0.00" timeLoss="161.72" rerouteNo="0" devices="tripinfo_f_0_2.11" vType="type1" speedFactor="0.99" vaporized=""/>
    <tripinfo id="f_0_3.10" depart="82.00" departLane="np3_nt3_0" departPos="16.64" departSpeed="0.00" departDelay="0.18" arrival="337.00" arrivalLane="nt14_np11_0" arrivalPos="75.00" arrivalSpeed="9.37" duration="255.00" routeLength="934.45" waitingTime="141.00" waitingCount="7" stopTime="0.00" timeLoss="181.12" rerouteNo="0" devices="tripinfo_f_0_3.10" vType="type1" speedFactor="1.07" vaporized=""/>
    <tripinfo id="f_0_2.12" depart="99.00" departLane="np2_nt2_0" departPos="21.56" departSpeed="0.00" departDelay="0.82" arrival="341.00" arrivalLane="nt15_np10_0" arrivalPos="75.00" arrivalSpeed="11.62" duration="242.00" routeLength="929.52" waitingTime="75.00" waitingCount="10" stopTime="0.00" timeLoss="177.44" rerouteNo="0" devices="tripinfo_f_0_2.12" vType="type1" speedFactor="1.21" vaporized=""/>
    <tripinfo id="f_0_1.5" depart="69.00" departLane="np16_nt1_0" departPos="52.83" departSpeed="0.00" departDelay="0.82" arrival="343.00" arrivalLane="nt16_np8_0" arrivalPos="75.00" arrivalSpeed="18.39" duration="274.00" routeLength="1295.05" waitingTime="83.00" waitingCount="12" stopTime="0.00" timeLoss="182.76" rerouteNo="0" devices="tripinfo_f_0_1.5" vType="type1" speedFactor="0.99" vaporized=""/>
    <tripinfo id="f_0_1.10" depart="137.00" departLane="np16_nt1_0" departPos="47.40" departSpeed="0.00" departDelay="0.64" arrival="345.00" arrivalLane="nt16_np8_0" arrivalPos="75.00" arrivalSpeed="22.09" duration="208.00" routeLength="1300.48" waitingTime="58.00" waitingCount="7" stopTime="0.00" timeLoss="126.29" rerouteNo="0" devices="tripinfo_f_0_1.10" vType="type1" speedFactor="1.12" vaporized=""/>
    <tripinfo id="f_0_0.9" depart="123.00" departLane="np13_nt13_0" departPos="47.75" departSpeed="0.00" departDelay="0.28" arrival="348.00" arrivalLane="nt4_np5_0" arrivalPos="75.00" arrivalSpeed="19.82" duration="225.00" routeLength="1300.14" waitingTime="82.00" waitingCount="9" stopTime="0.00" timeLoss="134.31" rerouteNo="0" devices="tripinfo_f_0_0.9" vType="type1" speedFactor="1.00" vaporized=""/>
    <tripinfo id="f_0_0.10" depart="137.00" departLane="np13_nt13_0" departPos="44.07" departSpeed="0.00" departDelay="0.64" arrival="350.00" arrivalLane="nt4_np5_0" arrivalPos="75.00" arrivalSpeed="18.98" duration="213.00" routeLength="1303.82" waitingTime="75.00" waitingCount="9" stopTime="0.00" timeLoss="121.92" rerouteNo="0" devices="tripinfo_f_0_0.10" vType="type1" speedFactor="1.00" vaporized=""/>
    <tripinfo id="f_0_0.11" depart="150.00" departLane="np13_nt13_0" departPos="37.20" departSpeed="0.00" departDelay="0.00" arrival="352.00" arrivalLane="nt4_np5_0" arrivalPos="75.00" arrivalSpeed="21.24" duration="202.00" routeLength="1310.69" waitingTime="72.00" waitingCount="8" stopTime="0.00" timeLoss="116.87" rerouteNo="0" devices="tripinfo_f_0_0.11" vType="type1" speedFactor="1.08" vaporized=""/>
    <tripinfo id="f_0_0.12" depart="164.00" departLane="np13_nt13_0" departPos="43.81" departSpeed="0.00" departDelay="0.37" arrival="354.00" arrivalLane="nt4_np5_0" arrivalPos="75.00" arrivalSpeed="18.41" duration="190.00" routeLength="1304.08" waitingTime="49.00" waitingCount="7" stopTime="0.00" timeLoss="96.74" rerouteNo="0" devices="tripinfo_f_0_0.12" vType="type1" speedFactor="0.98" vaporized=""/>
    <tripinfo id="f_0_2.13" depart="107.00" departLane="np2_nt2_0" departPos="52.79" departSpeed="0.00" departDelay="0.63" arrival="367.00" arrivalLane="nt15_np10_0" arrivalPos="75.00" arrivalSpeed="9.26" duration="260.00" routeLength="898.29" waitingTime="92.00" waitingCount="12" stopTime="0.00" timeLoss="182.47" rerouteNo="0" devices="tripinfo_f_0_2.13" vType="type1" speedFactor="0.96" vaporized=""/>
    <tripinfo id="f_0_3.11" depart="90.00" departLane="np3_nt3_0" departPos="24.68" departSpeed="0.00" departDelay="0.00" arrival="371.00" arrivalLane="nt14_np11_0" arrivalPos="75.00" arrivalSpeed="10.13" duration="281.00" routeLength="926.41" waitingTime="171.00" waitingCount="6" stopTime="0.00" timeLoss="210.69" rerouteNo="0" devices="tripinfo_f_0_3.11" vType="type1" speedFactor="1.11" vaporized=""/>
    <tripinfo id="f_0_3.12" depart="99.00" departLane="np3_nt3_0" departPos="9.71" departSpeed="0.00" departDelay="0.82" arrival="374.00" arrivalLane="nt14_np11_0" arrivalPos="75.00" arrivalSpeed="10.16" duration="275.00" routeLength="941.38" waitingTime="161.00" waitingCount="6" stopTime="0.00" timeLoss="197.53" rerouteNo="0" devices="tripinfo_f_0_3.12" vType="type1" speedFactor="1.03" vaporized=""/>
    <tripinfo id="f_0_0.13" depart="178.00" departLane="np13_nt13_0" departPos="26.00" departSpeed="0.00" departDelay="0.73" arrival="379.00" arrivalLane="nt4_np5_0" arrivalPos="75.00" arrivalSpeed="15.84" duration="201.00" routeLength="1321.89" waitingTime="42.00" waitingCount="7" stopTime="0.00" timeLoss="90.20" rerouteNo="0" devices="tripinfo_f_0_0.13" vType="type1" speedFactor="0.83" vaporized=""/>
    <tripinfo id="f_0_0.14" depart="191.00" departLane="np13_nt13_0" departPos="30.83" departSpeed="0.00" departDelay="0.10" arrival="388.00" arrivalLane="nt4_np5_0" arrivalPos="75.00" arrivalSpeed="17.79" duration="197.00" routeLength="1317.06" waitingTime="39.00" waitingCount="4" stopTime="0.00" timeLoss="95.23" rerouteNo="0" devices="tripinfo_f_0_0.14" vType="type1" speedFactor="0.90" vaporized=""/>
    <tripinfo id="f_0_1.6" depart="82.00" departLane="np16_nt1_0" departPos="6.70" departSpeed="0.00" departDelay="0.18" arrival="389.00" arrivalLane="nt16_np8_0" arrivalPos="75.00" arrivalSpeed="14.99" duration="307.00" routeLength="1341.18" waitingTime="120.00" waitingCount="13" stopTime="0.00" timeLoss="199.03" rerouteNo="0" devices="tripinfo_f_0_1.6" vType="type1" speedFactor="0.87" vaporized=""/>
    <tripinfo id="f_0_1.11" depart="150.00" departLane="np16_nt1_0" departPos="42.23" departSpeed="0.00" departDelay="0.00" arrival="390.00" arrivalLane="nt16_np8_0" arrivalPos="75.00" arrivalSpeed="18.20" duration="240.00" routeLength="1305.65" waitingTime="84.00" waitingCount="9" stopTime="0.00" timeLoss="147.22" rerouteNo="0" devices="tripinfo_f_0_1.11" vType="type1" speedFactor="0.98" vaporized=""/>
    <tripinfo id="f_0_3.13" depart="107.00" departLane="np3_nt3_0" departPos="18.45" departSpeed="0.00" departDelay="0.63" arrival="392.00" arrivalLane="nt14_np11_0" arrivalPos="75.00" arrivalSpeed="10.17" duration="285.00" routeLength="932.64" waitingTime="159.00" waitingCount="8" stopTime="0.00" timeLoss="201.95" rerouteNo="0" devices="tripinfo_f_0_3.13" vType="type1" speedFactor="0.94" vaporized=""/>
    <tripinfo id="f_0_3.20" depart="252.00" departLane="np3_nt3_0" departPos="64.48" departSpeed="0.00" departDelay="88.36" arrival="396.00" arrivalLane="nt14_np11_0" arrivalPos="75.00" arrivalSpeed="9.06" duration="144.00" routeLength="886.61" waitingTime="31.00" waitingCount="4" stopTime="0.00" timeLoss="57.58" rerouteNo="0" devices="tripinfo_f_0_3.20" vType="type1" speedFactor="0.87" vaporized=""/>
    <tripinfo id="f_0_3.14" depart="115.00" departLane="np3_nt3_0" departPos="5.61" departSpeed="0.00" departDelay="0.45" arrival="413.00" arrivalLane="nt14_np11_0" arrivalPos="75.00" arrivalSpeed="10.91" duration="298.00" routeLength="945.48" waitingTime="160.00" waitingCount="9" stopTime="0.00" timeLoss="217.81" rerouteNo="0" devices="tripinfo_f_0_3.14" vType="type1" speedFactor="0.99" vaporized=""/>
    <tripinfo id="f_0_3.15" depart="123.00" departLane="np3_nt3_0" departPos="0.00" departSpeed="0.00" departDelay="0.27" arrival="415.00" arrivalLane="nt14_np11_0" arrivalPos="75.00" arrivalSpeed="11.09" duration="292.00" routeLength="951.09" waitingTime="148.00" waitingCount="9" stopTime="0.00" timeLoss="213.90" rerouteNo="0" devices="tripinfo_f_0_3.15" vType="type1" speedFactor="1.03" vaporized=""/>
    <tripinfo id="f_0_3.16" depart="143.00" departLane="np3_nt3_0" departPos="0.00" departSpeed="0.00" departDelay="12.09" arrival="417.00" arrivalLane="nt14_np11_0" arrivalPos="75.00" arrivalSpeed="9.35" duration="274.00" routeLength="951.09" waitingTime="134.00" waitingCount="8" stopTime="0.00" timeLoss="196.24" rerouteNo="0" devices="tripinfo_f_0_3.16" vType="type1" speedFactor="1.02" vaporized=""/>
    <tripinfo id="f_0_0.15" depart="205.00" departLane="np13_nt13_0" departPos="62.53" departSpeed="0.00" departDelay="0.46" arrival="428.00" arrivalLane="nt4_np5_0" arrivalPos="75.00" arrivalSpeed="16.59" duration="223.00" routeLength="1285.36" waitingTime="95.00" waitingCount="4" stopTime="0.00" timeLoss="128.60" rerouteNo="0" devices="tripinfo_f_0_0.15" vType="type1" speedFactor="0.95" vaporized=""/>
    <tripinfo id="f_0_1.12" depart="164.00" departLane="np16_nt1_0" departPos="29.75" departSpeed="0.00" departDelay="0.37" arrival="429.00" arrivalLane="nt16_np8_0" arrivalPos="75.00" arrivalSpeed="17.99" duration="265.00" routeLength="1318.13" waitingTime="100.00" waitingCount="10" stopTime="0.00" timeLoss="167.62" rerouteNo="0" devices="tripinfo_f_0_1.12" vType="type1" speedFactor="0.95" vaporized=""/>
    <tripinfo id="f_0_0.16" depart="219.00" departLane="np13_nt13_0" departPos="5.85" departSpeed="0.00" departDelay="0.82" arrival="430.00" arrivalLane="nt4_np5_0" arrivalPos="75.00" arrivalSpeed="19.98" duration="211.00" routeLength="1342.04" waitingTime="69.00" waitingCount="4" stopTime="0.00" timeLoss="124.08" rerouteNo="0" devices="tripinfo_f_0_0.16" vType="type1" speedFactor="1.08" vaporized=""/>
    <tripinfo id="f_0_0.17" depart="232.00" departLane="np13_nt13_0" departPos="33.02" departSpeed="0.00" departDelay="0.19" arrival="439.00" arrivalLane="nt4_np5_0" arrivalPos="75.00" arrivalSpeed="16.36" duration="207.00" routeLength="1314.87" waitingTime="62.00" waitingCount="6" stopTime="0.00" timeLoss="102.35" rerouteNo="0" devices="tripinfo_f_0_0.17" vType="type1" speedFactor="0.88" vaporized=""/>
    <tripinfo id="f_0_0.18" depart="246.00" departLane="np13_nt13_0" departPos="51.89" departSpeed="0.00" departDelay="0.55" arrival="448.00" arrivalLane="nt4_np5_0" arrivalPos="75.00" arrivalSpeed="21.83" duration="202.00" routeLength="1296.00" waitingTime="59.00" waitingCount="8" stopTime="0.00" timeLoss="121.46" rerouteNo="0" devices="tripinfo_f_0_0.18" vType="type1" speedFactor="1.13" vaporized=""/>
    <tripinfo id="f_0_0.19" depart="260.00" departLane="np13_nt13_0" departPos="23.47" departSpeed="0.00" departDelay="0.92" arrival="450.00" arrivalLane="nt4_np5_0" arrivalPos="75.00" arrivalSpeed="20.81" duration="190.00" routeLength="1324.42" waitingTime="57.00" waitingCount="6" stopTime="0.00" timeLoss="107.49" rerouteNo="0" devices="tripinfo_f_0_0.19" vType="type1" speedFactor="1.11" vaporized=""/>
    <tripinfo id="f_0_0.20" depart="273.00" departLane="np13_nt13_0" departPos="65.55" departSpeed="0.00" departDelay="0.28" arrival="452.00" arrivalLane="nt4_np5_0" arrivalPos="75.00" arrivalSpeed="16.76" duration="179.00" routeLength="1282.34" waitingTime="44.00" waitingCount="5" stopTime="0.00" timeLoss="85.96" rerouteNo="0" devices="tripinfo_f_0_0.20" vType="type1" speedFactor="0.96" vaporized=""/>
    <tripinfo id="f_0_0.21" depart="287.00" departLane="np13_nt13_0" departPos="32.97" departSpeed="0.00" departDelay="0.64" arrival="455.00" arrivalLane="nt4_np5_0" arrivalPos="75.00" arrivalSpeed="13.83" duration="168.00" routeLength="1314.92" waitingTime="25.00" waitingCount="5" stopTime="0.00" timeLoss="53.91" rerouteNo="0" devices="tripinfo_f_0_0.21" vType="type1" speedFactor="0.80" vaporized=""/>
    <tripinfo id="f_0_2.14" depart="115.00" departLane="np2_nt2_0" departPos="20.62" departSpeed="0.00" departDelay="0.45" arrival="462.00" arrivalLane="nt15_np10_0" arrivalPos="75.00" arrivalSpeed="9.02" duration="347.00" routeLength="930.46" waitingTime="183.00" waitingCount="12" stopTime="0.00" timeLoss="265.94" rerouteNo="0" devices="tripinfo_f_0_2.14" vType="type1" speedFactor="0.96" vaporized=""/>
    <tripinfo id="f_0_0.22" depart="300.00" departLane="np13_nt13_0" departPos="55.86" departSpeed="0.00" departDelay="0.01" arrival="464.00" arrivalLane="nt4_np5_0" arrivalPos="75.00" arrivalSpeed="15.14" duration="164.00" routeLength="1292.03" waitingTime="23.00" waitingCount="2" stopTime="0.00" timeLoss="49.23" rerouteNo="0" devices="tripinfo_f_0_0.22" vType="type1" speedFactor="0.79" vaporized=""/>
    <tripinfo id="f_1_0.0" depart="300.00" departLane="np13_nt13_0" departPos="14.85" departSpeed="0.00" departDelay="0.00" arrival="473.00" arrivalLane="nt4_np5_0" arrivalPos="75.00" arrivalSpeed="20.94" duration="173.00" routeLength="1333.04" waitingTime="30.00" waitingCount="5" stopTime="0.00" timeLoss="89.18" rerouteNo="0" devices="tripinfo_f_1_0.0" vType="type1" speedFactor="1.10" vaporized=""/>
    <tripinfo id="f_1_0.1" depart="308.00" departLane="np13_nt13_0" departPos="31.74" departSpeed="0.00" departDelay="0.19" arrival="475.00" arrivalLane="nt4_np5_0" arrivalPos="75.00" arrivalSpeed="17.83" duration="167.00" routeLength="1316.15" waitingTime="19.00" waitingCount="6" stopTime="0.00" timeLoss="71.78" rerouteNo="0" devices="tripinfo_f_1_0.1" vType="type1" speedFactor="0.96" vaporized=""/>
    <tripinfo id="f_0_2.15" depart="123.00" departLane="np2_nt2_0" departPos="14.18" departSpeed="0.00" departDelay="0.27" arrival="477.00" arrivalLane="nt15_np10_0" arrivalPos="75.00" arrivalSpeed="11.14" duration="354.00" routeLength="936.90" waitingTime="161.00" waitingCount="14" stopTime="0.00" timeLoss="281.35" rerouteNo="0" devices="tripinfo_f_0_2.15" vType="type1" speedFactor="1.09" vaporized=""/>
    <tripinfo id="f_0_2.16" depart="131.00" departLane="np2_nt2_0" departPos="6.79" departSpeed="0.00" departDelay="0.09" arrival="479.00" arrivalLane="nt15_np10_0" arrivalPos="75.00" arrivalSpeed="12.12" duration="348.00" routeLength="944.29" waitingTime="148.00" waitingCount="13" stopTime="0.00" timeLoss="277.77" rerouteNo="0" devices="tripinfo_f_0_2.16" vType="type1" speedFactor="1.14" vaporized=""/>
    <tripinfo id="f_1_0.2" depart="316.00" departLane="np13_nt13_0" departPos="49.92" departSpeed="0.00" departDelay="0.38" arrival="479.00" arrivalLane="nt4_np5_0" arrivalPos="75.00" arrivalSpeed="17.60" duration="163.00" routeLength="1297.97" waitingTime="16.00" waitingCount="4" stopTime="0.00" timeLoss="62.82" rerouteNo="0" devices="tripinfo_f_1_0.2" vType="type1" speedFactor="0.91" vaporized=""/>