<?xml version="1.0" encoding="UTF-8"?>

<!-- generated on 2023-08-30 12:36:52 by Eclipse SUMO libsumo Version 1.18.0
<configuration xmlns:xsi="http://www.w3.org/2001/XMLSchema-instance" xsi:noNamespaceSchemaLocation="http://sumo.dlr.de/xsd/libsumoConfiguration.xsd">

    <input>
        <net-file value="/home/stefan/RESCO/./environments/arterial4x4/arterial4x4.net.xml"/>
        <route-files value="/home/stefan/RESCO/./environments/arterial4x4/arterial4x4_50.rou.xml"/>
    </input>

    <output>
        <tripinfo-output value="/home/stefan/results/ITRPO-tr0-arterial4x4-0-drq_norm-wait_norm/tripinfo_50.xml"/>
        <tripinfo-output.write-unfinished value="true"/>
    </output>

    <processing>
        <time-to-teleport value="-1"/>
    </processing>

    <report>
        <no-warnings value="True"/>
        <no-step-log value="True"/>
    </report>

    <random_number>
        <random value="true"/>
    </random_number>

</configuration>
-->

<tripinfos xmlns:xsi="http://www.w3.org/2001/XMLSchema-instance" xsi:noNamespaceSchemaLocation="http://sumo.dlr.de/xsd/tripinfo_file.xsd">
    <tripinfo id="f_0_2.0" depart="0.00" departLane="np2_nt2_0" departPos="59.02" departSpeed="0.00" departDelay="0.00" arrival="107.00" arrivalLane="nt15_np10_0" arrivalPos="75.00" arrivalSpeed="9.01" duration="107.00" routeLength="892.06" waitingTime="15.00" waitingCount="3" stopTime="0.00" timeLoss="31.01" rerouteNo="0" devices="tripinfo_f_0_2.0" vType="type1" speedFactor="0.98" vaporized=""/>
    <tripinfo id="f_0_3.0" depart="0.00" departLane="np3_nt3_0" departPos="50.87" departSpeed="0.00" departDelay="0.00" arrival="133.00" arrivalLane="nt14_np11_0" arrivalPos="75.00" arrivalSpeed="7.79" duration="133.00" routeLength="900.22" waitingTime="27.00" waitingCount="3" stopTime="0.00" timeLoss="48.16" rerouteNo="0" devices="tripinfo_f_0_3.0" vType="type1" speedFactor="0.89" vaporized=""/>
    <tripinfo id="f_0_3.1" depart="9.00" departLane="np3_nt3_0" departPos="4.32" departSpeed="0.00" departDelay="0.82" arrival="135.00" arrivalLane="nt14_np11_0" arrivalPos="75.00" arrivalSpeed="10.90" duration="126.00" routeLength="946.77" waitingTime="25.00" waitingCount="2" stopTime="0.00" timeLoss="54.41" rerouteNo="0" devices="tripinfo_f_0_3.1" vType="type1" speedFactor="1.11" vaporized=""/>
    <tripinfo id="f_0_3.2" depart="17.00" departLane="np3_nt3_0" departPos="12.72" departSpeed="0.00" departDelay="0.64" arrival="156.00" arrivalLane="nt14_np11_0" arrivalPos="75.00" arrivalSpeed="11.06" duration="139.00" routeLength="938.37" waitingTime="40.00" waitingCount="3" stopTime="0.00" timeLoss="72.79" rerouteNo="0" devices="tripinfo_f_0_3.2" vType="type1" speedFactor="1.19" vaporized=""/>
    <tripinfo id="f_0_3.3" depart="25.00" departLane="np3_nt3_0" departPos="46.53" departSpeed="0.00" departDelay="0.45" arrival="159.00" arrivalLane="nt14_np11_0" arrivalPos="75.00" arrivalSpeed="11.00" duration="134.00" routeLength="904.56" waitingTime="35.00" waitingCount="3" stopTime="0.00" timeLoss="59.81" rerouteNo="0" devices="tripinfo_f_0_3.3" vType="type1" speedFactor="1.03" vaporized=""/>
    <tripinfo id="f_0_2.1" depart="9.00" departLane="np2_nt2_0" departPos="16.59" departSpeed="0.00" departDelay="0.82" arrival="166.00" arrivalLane="nt15_np10_0" arrivalPos="75.00" arrivalSpeed="10.08" duration="157.00" routeLength="934.49" waitingTime="59.00" waitingCount="4" stopTime="0.00" timeLoss="82.88" rerouteNo="0" devices="tripinfo_f_0_2.1" vType="type1" speedFactor="1.05" vaporized=""/>
    <tripinfo id="f_0_0.0" depart="0.00" departLane="np13_nt13_0" departPos="20.77" departSpeed="0.00" departDelay="0.00" arrival="167.00" arrivalLane="nt4_np5_0" arrivalPos="75.00" arrivalSpeed="17.65" duration="167.00" routeLength="1327.12" waitingTime="53.00" waitingCount="2" stopTime="0.00" timeLoss="72.82" rerouteNo="0" devices="tripinfo_f_0_0.0" vType="type1" speedFactor="0.98" vaporized=""/>
    <tripinfo id="f_0_2.2" depart="17.00" departLane="np2_nt2_0" departPos="6.12" departSpeed="0.00" departDelay="0.64" arrival="182.00" arrivalLane="nt15_np10_0" arrivalPos="75.00" arrivalSpeed="9.68" duration="165.00" routeLength="944.96" waitingTime="58.00" waitingCount="4" stopTime="0.00" timeLoss="83.60" rerouteNo="0" devices="tripinfo_f_0_2.2" vType="type1" speedFactor="0.97" vaporized=""/>
    <tripinfo id="f_0_2.3" depart="25.00" departLane="np2_nt2_0" departPos="41.60" departSpeed="0.00" departDelay="0.45" arrival="185.00" arrivalLane="nt15_np10_0" arrivalPos="75.00" arrivalSpeed="8.55" duration="160.00" routeLength="909.48" waitingTime="54.00" waitingCount="4" stopTime="0.00" timeLoss="78.09" rerouteNo="0" devices="tripinfo_f_0_2.3" vType="type1" speedFactor="0.93" vaporized=""/>
    <tripinfo id="f_0_2.4" depart="33.00" departLane="np2_nt2_0" departPos="39.68" departSpeed="0.00" departDelay="0.27" arrival="202.00" arrivalLane="nt15_np10_0" arrivalPos="75.00" arrivalSpeed="9.34" duration="169.00" routeLength="911.40" waitingTime="55.00" waitingCount="6" stopTime="0.00" timeLoss="94.40" rerouteNo="0" devices="tripinfo_f_0_2.4" vType="type1" speedFactor="1.03" vaporized=""/>
    <tripinfo id="f_0_3.4" depart="33.00" departLane="np3_nt3_0" departPos="35.06" departSpeed="0.00" departDelay="0.27" arrival="211.00" arrivalLane="nt14_np11_0" arrivalPos="75.00" arrivalSpeed="10.25" duration="178.00" routeLength="916.03" waitingTime="77.00" waitingCount="5" stopTime="0.00" timeLoss="108.69" rerouteNo="0" devices="tripinfo_f_0_3.4" vType="type1" speedFactor="1.10" vaporized=""/>
    <tripinfo id="f_0_0.1" depart="14.00" departLane="np13_nt13_0" departPos="11.55" departSpeed="0.00" departDelay="0.36" arrival="215.00" arrivalLane="nt4_np5_0" arrivalPos="75.00" arrivalSpeed="22.17" duration="201.00" routeLength="1336.34" waitingTime="95.00" waitingCount="4" stopTime="0.00" timeLoss="124.63" rerouteNo="0" devices="tripinfo_f_0_0.1" vType="type1" speedFactor="1.22" vaporized=""/>
    <tripinfo id="f_0_2.5" depart="41.00" departLane="np2_nt2_0" departPos="23.65" departSpeed="0.00" departDelay="0.09" arrival="217.00" arrivalLane="nt15_np10_0" arrivalPos="75.00" arrivalSpeed="9.68" duration="176.00" routeLength="927.43" waitingTime="65.00" waitingCount="7" stopTime="0.00" timeLoss="103.83" rerouteNo="0" devices="tripinfo_f_0_2.5" vType="type1" speedFactor="1.08" vaporized=""/>
    <tripinfo id="f_0_2.6" depart="50.00" departLane="np2_nt2_0" departPos="39.27" departSpeed="0.00" departDelay="0.91" arrival="218.00" arrivalLane="nt15_np10_0" arrivalPos="75.00" arrivalSpeed="12.32" duration="168.00" routeLength="911.81" waitingTime="61.00" waitingCount="7" stopTime="0.00" timeLoss="106.25" rerouteNo="0" devices="tripinfo_f_0_2.6" vType="type1" speedFactor="1.23" vaporized=""/>
    <tripinfo id="f_0_0.2" depart="28.00" departLane="np13_nt13_0" departPos="11.77" departSpeed="0.00" departDelay="0.73" arrival="221.00" arrivalLane="nt4_np5_0" arrivalPos="75.00" arrivalSpeed="20.74" duration="193.00" routeLength="1336.12" waitingTime="78.00" waitingCount="3" stopTime="0.00" timeLoss="104.96" rerouteNo="0" devices="tripinfo_f_0_0.2" vType="type1" speedFactor="1.06" vaporized=""/>
    <tripinfo id="f_0_3.5" depart="41.00" departLane="np3_nt3_0" departPos="12.18" departSpeed="0.00" departDelay="0.09" arrival="222.00" arrivalLane="nt14_np11_0" arrivalPos="75.00" arrivalSpeed="9.13" duration="181.00" routeLength="938.91" waitingTime="65.00" waitingCount="5" stopTime="0.00" timeLoss="99.59" rerouteNo="0" devices="tripinfo_f_0_3.5" vType="type1" speedFactor="0.97" vaporized=""/>
    <tripinfo id="f_0_3.6" depart="50.00" departLane="np3_nt3_0" departPos="27.73" departSpeed="0.00" departDelay="0.91" arrival="224.00" arrivalLane="nt14_np11_0" arrivalPos="75.00" arrivalSpeed="10.81" duration="174.00" routeLength="923.36" waitingTime="66.00" waitingCount="6" stopTime="0.00" timeLoss="100.24" rerouteNo="0" devices="tripinfo_f_0_3.6" vType="type1" speedFactor="1.05" vaporized=""/>
    <tripinfo id="f_0_0.3" depart="41.00" departLane="np13_nt13_0" departPos="10.91" departSpeed="0.00" departDelay="0.09" arrival="253.00" arrivalLane="nt4_np5_0" arrivalPos="75.00" arrivalSpeed="16.78" duration="212.00" routeLength="1336.98" waitingTime="81.00" waitingCount="6" stopTime="0.00" timeLoss="113.29" rerouteNo="0" devices="tripinfo_f_0_0.3" vType="type1" speedFactor="0.94" vaporized=""/>
    <tripinfo id="f_0_3.7" depart="58.00" departLane="np3_nt3_0" departPos="7.33" departSpeed="0.00" departDelay="0.73" arrival="253.00" arrivalLane="nt14_np11_0" arrivalPos="75.00" arrivalSpeed="8.68" duration="195.00" routeLength="943.76" waitingTime="73.00" waitingCount="8" stopTime="0.00" timeLoss="110.11" rerouteNo="0" devices="tripinfo_f_0_3.7" vType="type1" speedFactor="0.93" vaporized=""/>
    <tripinfo id="f_0_3.8" depart="66.00" departLane="np3_nt3_0" departPos="20.21" departSpeed="0.00" departDelay="0.54" arrival="255.00" arrivalLane="nt14_np11_0" arrivalPos="75.00" arrivalSpeed="7.68" duration="189.00" routeLength="930.88" waitingTime="60.00" waitingCount="6" stopTime="0.00" timeLoss="102.04" rerouteNo="0" devices="tripinfo_f_0_3.8" vType="type1" speedFactor="0.90" vaporized=""/>
    <tripinfo id="f_0_3.9" depart="74.00" departLane="np3_nt3_0" departPos="9.88" departSpeed="0.00" departDelay="0.36" arrival="257.00" arrivalLane="nt14_np11_0" arrivalPos="75.00" arrivalSpeed="10.84" duration="183.00" routeLength="941.21" waitingTime="72.00" waitingCount="5" stopTime="0.00" timeLoss="112.21" rerouteNo="0" devices="tripinfo_f_0_3.9" vType="type1" speedFactor="1.12" vaporized=""/>
    <tripinfo id="f_0_1.0" depart="0.00" departLane="np16_nt1_0" departPos="4.57" departSpeed="0.00" departDelay="0.00" arrival="258.00" arrivalLane="nt16_np8_0" arrivalPos="75.00" arrivalSpeed="19.14" duration="258.00" routeLength="1343.31" waitingTime="113.00" waitingCount="8" stopTime="0.00" timeLoss="164.47" rerouteNo="0" devices="tripinfo_f_0_1.0" vType="type1" speedFactor="0.99" vaporized=""/>
    <tripinfo id="f_0_1.1" depart="14.00" departLane="np16_nt1_0" departPos="28.24" departSpeed="0.00" departDelay="0.36" arrival="260.00" arrivalLane="nt16_np8_0" arrivalPos="75.00" arrivalSpeed="17.97" duration="246.00" routeLength="1319.64" waitingTime="96.00" waitingCount="8" stopTime="0.00" timeLoss="146.15" rerouteNo="0" devices="tripinfo_f_0_1.1" vType="type1" speedFactor="0.92" vaporized=""/>
    <tripinfo id="f_0_3.10" depart="82.00" departLane="np3_nt3_0" departPos="30.28" departSpeed="0.00" departDelay="0.18" arrival="280.00" arrivalLane="nt14_np11_0" arrivalPos="75.00" arrivalSpeed="9.04" duration="198.00" routeLength="920.81" waitingTime="71.00" waitingCount="5" stopTime="0.00" timeLoss="104.26" rerouteNo="0" devices="tripinfo_f_0_3.10" vType="type1" speedFactor="0.83" vaporized=""/>
    <tripinfo id="f_0_2.7" depart="58.00" departLane="np2_nt2_0" departPos="14.34" departSpeed="0.00" departDelay="0.73" arrival="282.00" arrivalLane="nt15_np10_0" arrivalPos="75.00" arrivalSpeed="11.07" duration="224.00" routeLength="936.74" waitingTime="107.00" waitingCount="8" stopTime="0.00" timeLoss="148.97" rerouteNo="0" devices="tripinfo_f_0_2.7" vType="type1" speedFactor="1.04" vaporized=""/>
    <tripinfo id="f_0_0.4" depart="55.00" departLane="np13_nt13_0" departPos="1.68" departSpeed="0.00" departDelay="0.46" arrival="293.00" arrivalLane="nt4_np5_0" arrivalPos="75.00" arrivalSpeed="18.02" duration="238.00" routeLength="1346.21" waitingTime="97.00" waitingCount="6" stopTime="0.00" timeLoss="137.08" rerouteNo="0" devices="tripinfo_f_0_0.4" vType="type1" speedFactor="0.92" vaporized=""/>
    <tripinfo id="f_0_3.11" depart="90.00" departLane="np3_nt3_0" departPos="2.29" departSpeed="0.00" departDelay="0.00" arrival="306.00" arrivalLane="nt14_np11_0" arrivalPos="75.00" arrivalSpeed="11.55" duration="216.00" routeLength="948.80" waitingTime="89.00" waitingCount="6" stopTime="0.00" timeLoss="148.98" rerouteNo="0" devices="tripinfo_f_0_3.11" vType="type1" speedFactor="1.19" vaporized=""/>
    <tripinfo id="f_0_3.12" depart="99.00" departLane="np3_nt3_0" departPos="15.95" departSpeed="0.00" departDelay="0.82" arrival="310.00" arrivalLane="nt14_np11_0" arrivalPos="75.00" arrivalSpeed="8.06" duration="211.00" routeLength="935.14" waitingTime="81.00" waitingCount="6" stopTime="0.00" timeLoss="124.93" rerouteNo="0" devices="tripinfo_f_0_3.12" vType="type1" speedFactor="0.91" vaporized=""/>
    <tripinfo id="f_0_0.5" depart="69.00" departLane="np13_nt13_0" departPos="4.96" departSpeed="0.00" departDelay="0.82" arrival="318.00" arrivalLane="nt4_np5_0" arrivalPos="75.00" arrivalSpeed="21.88" duration="249.00" routeLength="1342.93" waitingTime="134.00" waitingCount="7" stopTime="0.00" timeLoss="171.67" rerouteNo="0" devices="tripinfo_f_0_0.5" vType="type1" speedFactor="1.20" vaporized=""/>
    <tripinfo id="f_0_2.8" depart="66.00" departLane="np2_nt2_0" departPos="36.39" departSpeed="0.00" departDelay="0.54" arrival="328.00" arrivalLane="nt15_np10_0" arrivalPos="75.00" arrivalSpeed="9.46" duration="262.00" routeLength="914.69" waitingTime="130.00" waitingCount="9" stopTime="0.00" timeLoss="184.02" rerouteNo="0" devices="tripinfo_f_0_2.8" vType="type1" speedFactor="0.99" vaporized=""/>
    <tripinfo id="f_0_2.9" depart="74.00" departLane="np2_nt2_0" departPos="37.47" departSpeed="0.00" departDelay="0.36" arrival="331.00" arrivalLane="nt15_np10_0" arrivalPos="75.00" arrivalSpeed="8.77" duration="257.00" routeLength="913.61" waitingTime="118.00" waitingCount="11" stopTime="0.00" timeLoss="170.74" rerouteNo="0" devices="tripinfo_f_0_2.9" vType="type1" speedFactor="0.89" vaporized=""/>
    <tripinfo id="f_0_3.13" depart="107.00" departLane="np3_nt3_0" departPos="11.83" departSpeed="0.00" departDelay="0.63" arrival="352.00" arrivalLane="nt14_np11_0" arrivalPos="75.00" arrivalSpeed="10.50" duration="245.00" routeLength="939.26" waitingTime="111.00" waitingCount="6" stopTime="0.00" timeLoss="169.27" rerouteNo="0" devices="tripinfo_f_0_3.13" vType="type1" speedFactor="1.05" vaporized=""/>
    <tripinfo id="f_0_0.6" depart="82.00" departLane="np13_nt13_0" departPos="4.23" departSpeed="0.00" departDelay="0.18" arrival="354.00" arrivalLane="nt4_np5_0" arrivalPos="75.00" arrivalSpeed="19.35" duration="272.00" routeLength="1343.66" waitingTime="133.00" waitingCount="10" stopTime="0.00" timeLoss="183.39" rerouteNo="0" devices="tripinfo_f_0_0.6" vType="type1" speedFactor="1.04" vaporized=""/>
    <tripinfo id="f_0_3.14" depart="115.00" departLane="np3_nt3_0" departPos="0.00" departSpeed="0.00" departDelay="0.45" arrival="354.00" arrivalLane="nt14_np11_0" arrivalPos="75.00" arrivalSpeed="9.79" duration="239.00" routeLength="951.09" waitingTime="104.00" waitingCount="6" stopTime="0.00" timeLoss="161.06" rerouteNo="0" devices="tripinfo_f_0_3.14" vType="type1" speedFactor="1.03" vaporized=""/>
    <tripinfo id="f_0_0.7" depart="96.00" departLane="np13_nt13_0" departPos="36.65" departSpeed="0.00" departDelay="0.55" arrival="357.00" arrivalLane="nt4_np5_0" arrivalPos="75.00" arrivalSpeed="19.89" duration="261.00" routeLength="1311.24" waitingTime="110.00" waitingCount="12" stopTime="0.00" timeLoss="172.48" rerouteNo="0" devices="tripinfo_f_0_0.7" vType="type1" speedFactor="1.04" vaporized=""/>
    <tripinfo id="f_0_3.15" depart="123.00" departLane="np3_nt3_0" departPos="17.38" departSpeed="0.00" departDelay="0.27" arrival="358.00" arrivalLane="nt14_np11_0" arrivalPos="75.00" arrivalSpeed="9.37" duration="235.00" routeLength="933.71" waitingTime="100.00" waitingCount="6" stopTime="0.00" timeLoss="146.97" rerouteNo="0" devices="tripinfo_f_0_3.15" vType="type1" speedFactor="0.89" vaporized=""/>
    <tripinfo id="f_0_3.16" depart="131.00" departLane="np3_nt3_0" departPos="1.20" departSpeed="0.00" departDelay="0.09" arrival="360.00" arrivalLane="nt14_np11_0" arrivalPos="75.00" arrivalSpeed="9.88" duration="229.00" routeLength="949.89" waitingTime="97.00" waitingCount="7" stopTime="0.00" timeLoss="152.49" rerouteNo="0" devices="tripinfo_f_0_3.16" vType="type1" speedFactor="1.04" vaporized=""/>
    <tripinfo id="f_0_3.17" depart="140.00" departLane="np3_nt3_0" departPos="0.00" departSpeed="0.00" departDelay="0.91" arrival="362.00" arrivalLane="nt14_np11_0" arrivalPos="75.00" arrivalSpeed="8.90" duration="222.00" routeLength="951.09" waitingTime="81.00" waitingCount="7" stopTime="0.00" timeLoss="138.05" rerouteNo="0" devices="tripinfo_f_0_3.17" vType="type1" speedFactor="0.95" vaporized=""/>
    <tripinfo id="f_0_3.18" depart="158.00" departLane="np3_nt3_0" departPos="0.00" departSpeed="0.00" departDelay="10.72" arrival="364.00" arrivalLane="nt14_np11_0" arrivalPos="75.00" arrivalSpeed="11.26" duration="206.00" routeLength="951.09" waitingTime="73.00" waitingCount="6" stopTime="0.00" timeLoss="128.00" rerouteNo="0" devices="tripinfo_f_0_3.18" vType="type1" speedFactor="1.03" vaporized=""/>
    <tripinfo id="f_0_3.19" depart="160.00" departLane="np3_nt3_0" departPos="0.00" departSpeed="0.00" departDelay="4.54" arrival="366.00" arrivalLane="nt14_np11_0" arrivalPos="75.00" arrivalSpeed="11.39" duration="206.00" routeLength="951.09" waitingTime="72.00" waitingCount="7" stopTime="0.00" timeLoss="130.25" rerouteNo="0" devices="tripinfo_f_0_3.19" vType="type1" speedFactor="1.05" vaporized=""/>
    <tripinfo id="f_0_3.20" depart="164.00" departLane="np3_nt3_0" departPos="0.00" departSpeed="0.00" departDelay="0.36" arrival="369.00" arrivalLane="nt14_np11_0" arrivalPos="75.00" arrivalSpeed="10.11" duration="205.00" routeLength="951.09" waitingTime="66.00" waitingCount="8" stopTime="0.00" timeLoss="117.84" rerouteNo="0" devices="tripinfo_f_0_3.20" vType="type1" speedFactor="0.92" vaporized=""/>
    <tripinfo id="f_0_2.10" depart="82.00" departLane="np2_nt2_0" departPos="11.97" departSpeed="0.00" departDelay="0.18" arrival="376.00" arrivalLane="nt15_np10_0" arrivalPos="75.00" arrivalSpeed="10.96" duration="294.00" routeLength="939.11" waitingTime="152.00" waitingCount="10" stopTime="0.00" timeLoss="225.01" rerouteNo="0" devices="tripinfo_f_0_2.10" vType="type1" speedFactor="1.16" vaporized=""/>
    <tripinfo id="f_0_3.21" depart="172.00" departLane="np3_nt3_0" departPos="0.00" departSpeed="0.00" departDelay="0.18" arrival="380.00" arrivalLane="nt14_np11_0" arrivalPos="75.00" arrivalSpeed="6.90" duration="208.00" routeLength="951.09" waitingTime="63.00" waitingCount="7" stopTime="0.00" timeLoss="109.69" rerouteNo="0" devices="tripinfo_f_0_3.21" vType="type1" speedFactor="0.82" vaporized=""/>
    <tripinfo id="f_0_3.22" depart="180.00" departLane="np3_nt3_0" departPos="7.45" departSpeed="0.00" departDelay="0.00" arrival="382.00" arrivalLane="nt14_np11_0" arrivalPos="75.00" arrivalSpeed="8.92" duration="202.00" routeLength="943.64" waitingTime="70.00" waitingCount="8" stopTime="0.00" timeLoss="122.04" rerouteNo="0" devices="tripinfo_f_0_3.22" vType="type1" speedFactor="0.99" vaporized=""/>
    <tripinfo id="f_0_0.8" depart="110.00" departLane="np13_nt13_0" departPos="20.95" departSpeed="0.00" departDelay="0.91" arrival="385.00" arrivalLane="nt4_np5_0" arrivalPos="75.00" arrivalSpeed="15.67" duration="275.00" routeLength="1326.94" waitingTime="121.00" waitingCount="6" stopTime="0.00" timeLoss="162.73" rerouteNo="0" devices="tripinfo_f_0_0.8" vType="type1" speedFactor="0.82" vaporized=""/>
    <tripinfo id="f_0_0.9" depart="123.00" departLane="np13_nt13_0" departPos="32.81" departSpeed="0.00" departDelay="0.28" arrival="389.00" arrivalLane="nt4_np5_0" arrivalPos="75.00" arrivalSpeed="21.93" duration="266.00" routeLength="1315.08" waitingTime="119.00" waitingCount="6" stopTime="0.00" timeLoss="183.74" rerouteNo="0" devices="tripinfo_f_0_0.9" vType="type1" speedFactor="1.12" vaporized=""/>
    <tripinfo id="f_0_1.2" depart="28.00" departLane="np16_nt1_0" departPos="22.89" departSpeed="0.00" departDelay="0.73" arrival="393.00" arrivalLane="nt16_np8_0" arrivalPos="75.00" arrivalSpeed="17.25" duration="365.00" routeLength="1324.99" waitingTime="188.00" waitingCount="11" stopTime="0.00" timeLoss="266.43" rerouteNo="0" devices="tripinfo_f_0_1.2" vType="type1" speedFactor="0.94" vaporized=""/>
    <tripinfo id="f_0_1.3" depart="41.00" departLane="np16_nt1_0" departPos="19.10" departSpeed="0.00" departDelay="0.09" arrival="408.00" arrivalLane="nt16_np8_0" arrivalPos="75.00" arrivalSpeed="17.09" duration="367.00" routeLength="1328.78" waitingTime="183.00" waitingCount="10" stopTime="0.00" timeLoss="261.97" rerouteNo="0" devices="tripinfo_f_0_1.3" vType="type1" speedFactor="0.88" vaporized=""/>
    <tripinfo id="f_0_1.4" depart="55.00" departLane="np16_nt1_0" departPos="22.73" departSpeed="0.00" departDelay="0.46" arrival="409.00" arrivalLane="nt16_np8_0" arrivalPos="75.00" arrivalSpeed="20.12" duration="354.00" routeLength="1325.15" waitingTime="167.00" waitingCount="12" stopTime="0.00" timeLoss="274.63" rerouteNo="0" devices="tripinfo_f_0_1.4" vType="type1" speedFactor="1.15" vaporized=""/>
    <tripinfo id="f_0_3.23" depart="189.00" departLane="np3_nt3_0" departPos="3.34" departSpeed="0.00" departDelay="0.81" arrival="416.00" arrivalLane="nt14_np11_0" arrivalPos="75.00" arrivalSpeed="10.90" duration="227.00" routeLength="947.75" waitingTime="99.00" waitingCount="9" stopTime="0.00" timeLoss="157.06" rerouteNo="0" devices="tripinfo_f_0_3.23" vType="type1" speedFactor="1.13" vaporized=""/>
    <tripinfo id="f_0_3.24" depart="197.00" departLane="np3_nt3_0" departPos="4.68" departSpeed="0.00" departDelay="0.63" arrival="418.00" arrivalLane="nt14_np11_0" arrivalPos="75.00" arrivalSpeed="11.60" duration="221.00" routeLength="946.41" waitingTime="86.00" waitingCount="7" stopTime="0.00" timeLoss="156.81" rerouteNo="0" devices="tripinfo_f_0_3.24" vType="type1" speedFactor="1.24" vaporized=""/>
    <tripinfo id="f_0_3.25" depart="205.00" departLane="np3_nt3_0" departPos="9.32" departSpeed="0.00" departDelay="0.45" arrival="421.00" arrivalLane="nt14_np11_0" arrivalPos="75.00" arrivalSpeed="10.93" duration="216.00" routeLength="941.77" waitingTime="73.00" waitingCount="7" stopTime="0.00" timeLoss="139.37" rerouteNo="0" devices="tripinfo_f_0_3.25" vType="type1" speedFactor="1.04" vaporized=""/>
    <tripinfo id="f_0_3.26" depart="213.00" departLane="np3_nt3_0" departPos="27.00" departSpeed="0.00" departDelay="0.27" arrival="424.00" arrivalLane="nt14_np11_0" arrivalPos="75.00" arrivalSpeed="9.50" duration="211.00" routeLength="924.09" waitingTime="64.00" waitingCount="7" stopTime="0.00" timeLoss="129.27" rerouteNo="0" devices="tripinfo_f_0_3.26" vType="type1" speedFactor="0.95" vaporized=""/>
    <tripinfo id="f_0_2.11" depart="90.00" departLane="np2_nt2_0" departPos="20.60" departSpeed="0.00" departDelay="0.00" arrival="426.00" arrivalLane="nt15_np10_0" arrivalPos="75.00" arrivalSpeed="11.64" duration="336.00" routeLength="930.48" waitingTime="180.00" waitingCount="11" stopTime="0.00" timeLoss="265.15" rerouteNo="0" devices="tripinfo_f_0_2.11" vType="type1" speedFactor="1.10" vaporized=""/>
    <tripinfo id="f_0_2.12" depart="99.00" departLane="np2_nt2_0" departPos="26.80" departSpeed="0.00" departDelay="0.82" arrival="433.00" arrivalLane="nt15_np10_0" arrivalPos="75.00" arrivalSpeed="9.96" duration="334.00" routeLength="924.28" waitingTime="172.00" waitingCount="8" stopTime="0.00" timeLoss="249.04" rerouteNo="0" devices="tripinfo_f_0_2.12" vType="type1" speedFactor="0.92" vaporized=""/>
    <tripinfo id="f_0_3.27" depart="221.00" departLane="np3_nt3_0" departPos="11.32" departSpeed="0.00" departDelay="0.09" arrival="436.00" arrivalLane="nt14_np11_0" arrivalPos="75.00" arrivalSpeed="10.70" duration="215.00" routeLength="939.77" waitingTime="67.00" waitingCount="8" stopTime="0.00" timeLoss="143.90" rerouteNo="0" devices="tripinfo_f_0_3.27" vType="type1" speedFactor="1.11" vaporized=""/>
    <tripinfo id="f_0_0.10" depart="137.00" departLane="np13_nt13_0" departPos="32.84" departSpeed="0.00" departDelay="0.64" arrival="448.00" arrivalLane="nt4_np5_0" arrivalPos="75.00" arrivalSpeed="19.94" duration="311.00" routeLength="1315.05" waitingTime="162.00" waitingCount="8" stopTime="0.00" timeLoss="221.48" rerouteNo="0" devices="tripinfo_f_0_0.10" vType="type1" speedFactor="1.02" vaporized=""/>
    <tripinfo id="f_0_0.11" depart="150.00" departLane="np13_nt13_0" departPos="0.44" departSpeed="0.00" departDelay="0.00" arrival="450.00" arrivalLane="nt4_np5_0" arrivalPos="75.00" arrivalSpeed="16.75" duration="300.00" routeLength="1347.45" waitingTime="140.00" waitingCount="7" stopTime="0.00" timeLoss="199.15" rerouteNo="0" devices="tripinfo_f_0_0.11" vType="type1" speedFactor="0.92" vaporized=""/>
    <tripinfo id="f_0_2.13" depart="107.00" departLane="np2_nt2_0" departPos="3.60" departSpeed="0.00" departDelay="0.63" arrival="451.00" arrivalLane="nt15_np10_0" arrivalPos="75.00" arrivalSpeed="10.31" duration="344.00" routeLength="947.48" waitingTime="198.00" waitingCount="12" stopTime="0.00" timeLoss="274.09" rerouteNo="0" devices="tripinfo_f_0_2.13" vType="type1" speedFactor="1.13" vaporized=""/>
    <tripinfo id="f_0_3.28" depart="230.00" departLane="np3_nt3_0" departPos="7.28" departSpeed="0.00" departDelay="0.90" arrival="457.00" arrivalLane="nt14_np11_0" arrivalPos="75.00" arrivalSpeed="11.98" duration="227.00" routeLength="943.81" waitingTime="81.00" waitingCount="9" stopTime="0.00" timeLoss="155.12" rerouteNo="0" devices="tripinfo_f_0_3.28" vType="type1" speedFactor="1.11" vaporized=""/>
    <tripinfo id="f_0_3.29" depart="238.00" departLane="np3_nt3_0" departPos="26.92" departSpeed="0.00" departDelay="0.72" arrival="461.00" arrivalLane="nt14_np11_0" arrivalPos="75.00" arrivalSpeed="9.26" duration="223.00" routeLength="924.17" waitingTime="74.00" waitingCount="11" stopTime="0.00" timeLoss="132.65" rerouteNo="0" devices="tripinfo_f_0_3.29" vType="type1" speedFactor="0.85" vaporized=""/>
    <tripinfo id="f_0_0.12" depart="164.00" departLane="np13_nt13_0" departPos="54.78" departSpeed="0.00" departDelay="0.37" arrival="463.00" arrivalLane="nt4_np5_0" arrivalPos="75.00" arrivalSpeed="22.01" duration="299.00" routeLength="1293.11" waitingTime="162.00" waitingCount="11" stopTime="0.00" timeLoss="222.10" rerouteNo="0" devices="tripinfo_f_0_0.12" vType="type1" speedFactor="1.18" vaporized=""/>
    <tripinfo id="f_0_3.30" depart="246.00" departLane="np3_nt3_0" departPos="22.32" departSpeed="0.00" departDelay="0.54" arrival="463.00" arrivalLane="nt14_np11_0" arrivalPos="75.00" arrivalSpeed="9.54" duration="217.00" routeLength="928.77" waitingTime="66.00" waitingCount="10" stopTime="0.00" timeLoss="136.08" rerouteNo="0" devices="tripinfo_f_0_3.30" vType="type1" speedFactor="0.96" vaporized=""/>
    <tripinfo id="f_0_0.13" depart="178.00" departLane="np13_nt13_0" departPos="7.62" departSpeed="0.00" departDelay="0.73" arrival="465.00" arrivalLane="nt4_np5_0" arrivalPos="75.00" arrivalSpeed="16.78" duration="287.00" routeLength="1340.27" waitingTime="129.00" waitingCount="10" stopTime="0.00" timeLoss="181.10" rerouteNo="0" devices="tripinfo_f_0_0.13" vType="type1" speedFactor="0.88" vaporized=""/>
    <tripinfo id="f_0_3.31" depart="254.00" departLane="np3_nt3_0" departPos="24.35" departSpeed="0.00" departDelay="0.36" arrival="465.00" arrivalLane="nt14_np11_0" arrivalPos="75.00" arrivalSpeed="9.93" duration="211.00" routeLength="926.74" waitingTime="68.00" waitingCount="8" stopTime="0.00" timeLoss="131.28" rerouteNo="0" devices="tripinfo_f_0_3.31" vType="type1" speedFactor="0.97" vaporized=""/>
    <tripinfo id="f_0_2.14" depart="115.00" departLane="np2_nt2_0" departPos="42.65" departSpeed="0.00" departDelay="0.45" arrival="476.00" arrivalLane="nt15_np10_0" arrivalPos="75.00" arrivalSpeed="9.26" duration="361.00" routeLength="908.43" waitingTime="210.00" waitingCount="11" stopTime="0.00" timeLoss="289.37" rerouteNo="0" devices="tripinfo_f_0_2.14" vType="type1" speedFactor="1.06" vaporized=""/>
    <tripinfo id="f_0_3.32" depart="262.00" departLane="np3_nt3_0" departPos="49.63" departSpeed="0.00" departDelay="0.18" arrival="496.00" arrivalLane="nt14_np11_0" arrivalPos="75.00" arrivalSpeed="11.83" duration="234.00" routeLength="901.46" waitingTime="113.00" waitingCount="8" stopTime="0.00" timeLoss="166.78" rerouteNo="0" devices="tripinfo_f_0_3.32" vType="type1" speedFactor="1.12" vaporized=""/>
    <tripinfo id="f_0_3.33" depart="271.00" departLane="np3_nt3_0" departPos="27.21" departSpeed="0.00" departDelay="0.99" arrival="501.00" arrivalLane="nt14_np11_0" arrivalPos="75.00" arrivalSpeed="9.19" duration="230.00" routeLength="923.88" waitingTime="107.00" waitingCount="6" stopTime="0.00" timeLoss="140.53" rerouteNo="0" devices="tripinfo_f_0_3.33" vType="type1" speedFactor="0.86" vaporized=""/>
    <tripinfo id="f_0_0.14" depart="191.00" departLane="np13_nt13_0" departPos="13.71" departSpeed="0.00" departDelay="0.10" arrival="509.00" arrivalLane="nt4_np5_0" arrivalPos="75.00" arrivalSpeed="15.55" duration="318.00" routeLength="1334.18" waitingTime="138.00" waitingCount="11" stopTime="0.00" timeLoss="199.30" rerouteNo="0" devices="tripinfo_f_0_0.14" vType="type1" speedFactor="0.78" vaporized=""/>
    <tripinfo id="f_0_0.15" depart="205.00" departLane="np13_nt13_0" departPos="11.71" departSpeed="0.00" departDelay="0.46" arrival="511.00" arrivalLane="nt4_np5_0" arrivalPos="75.00" arrivalSpeed="16.94" duration="306.00" routeLength="1336.18" waitingTime="139.00" waitingCount="11" stopTime="0.00" timeLoss="199.28" rerouteNo="0" devices="tripinfo_f_0_0.15" vType="type1" speedFactor="0.87" vaporized=""/>
    <tripinfo id="f_0_2.15" depart="123.00" departLane="np2_nt2_0" departPos="46.89" departSpeed="0.00" departDelay="0.27" arrival="513.00" arrivalLane="nt15_np10_0" arrivalPos="75.00" arrivalSpeed="9.77" duration="390.00" routeLength="904.19" waitingTime="239.00" waitingCount="13" stopTime="0.00" timeLoss="311.53" rerouteNo="0" devices="tripinfo_f_0_2.15" vType="type1" speedFactor="0.96" vaporized=""/>