<?xml version="1.0" encoding="UTF-8"?>

<!-- generated on 2023-08-30 12:45:46 by Eclipse SUMO libsumo Version 1.18.0
<configuration xmlns:xsi="http://www.w3.org/2001/XMLSchema-instance" xsi:noNamespaceSchemaLocation="http://sumo.dlr.de/xsd/libsumoConfiguration.xsd">

    <input>
        <net-file value="/home/stefan/RESCO/./environments/arterial4x4/arterial4x4.net.xml"/>
        <route-files value="/home/stefan/RESCO/./environments/arterial4x4/arterial4x4_74.rou.xml"/>
    </input>

    <output>
        <tripinfo-output value="/home/stefan/results/ITRPO-tr0-arterial4x4-0-drq_norm-wait_norm/tripinfo_74.xml"/>
        <tripinfo-output.write-unfinished value="true"/>
    </output>

    <processing>
        <time-to-teleport value="-1"/>
    </processing>

    <report>
        <no-warnings value="True"/>
        <no-step-log value="True"/>
    </report>

    <random_number>
        <random value="true"/>
    </random_number>

</configuration>
-->

<tripinfos xmlns:xsi="http://www.w3.org/2001/XMLSchema-instance" xsi:noNamespaceSchemaLocation="http://sumo.dlr.de/xsd/tripinfo_file.xsd">
    <tripinfo id="f_0_1.0" depart="0.00" departLane="np16_nt1_0" departPos="46.61" departSpeed="0.00" departDelay="0.00" arrival="138.00" arrivalLane="nt16_np8_0" arrivalPos="75.00" arrivalSpeed="17.61" duration="138.00" routeLength="1301.27" waitingTime="21.00" waitingCount="3" stopTime="0.00" timeLoss="47.04" rerouteNo="0" devices="tripinfo_f_0_1.0" vType="type1" speedFactor="0.99" vaporized=""/>
    <tripinfo id="f_0_2.0" depart="0.00" departLane="np2_nt2_0" departPos="28.18" departSpeed="0.00" departDelay="0.00" arrival="143.00" arrivalLane="nt15_np10_0" arrivalPos="75.00" arrivalSpeed="9.81" duration="143.00" routeLength="922.90" waitingTime="39.00" waitingCount="4" stopTime="0.00" timeLoss="63.97" rerouteNo="0" devices="tripinfo_f_0_2.0" vType="type1" speedFactor="0.99" vaporized=""/>
    <tripinfo id="f_0_2.1" depart="9.00" departLane="np2_nt2_0" departPos="30.49" departSpeed="0.00" departDelay="0.82" arrival="159.00" arrivalLane="nt15_np10_0" arrivalPos="75.00" arrivalSpeed="7.75" duration="150.00" routeLength="920.59" waitingTime="33.00" waitingCount="5" stopTime="0.00" timeLoss="65.62" rerouteNo="0" devices="tripinfo_f_0_2.1" vType="type1" speedFactor="0.92" vaporized=""/>
    <tripinfo id="f_0_2.2" depart="17.00" departLane="np2_nt2_0" departPos="41.13" departSpeed="0.00" departDelay="0.64" arrival="161.00" arrivalLane="nt15_np10_0" arrivalPos="75.00" arrivalSpeed="8.95" duration="144.00" routeLength="909.95" waitingTime="25.00" waitingCount="5" stopTime="0.00" timeLoss="61.70" rerouteNo="0" devices="tripinfo_f_0_2.2" vType="type1" speedFactor="0.93" vaporized=""/>
    <tripinfo id="f_0_3.0" depart="0.00" departLane="np3_nt3_0" departPos="62.64" departSpeed="0.00" departDelay="0.00" arrival="162.00" arrivalLane="nt14_np11_0" arrivalPos="75.00" arrivalSpeed="9.73" duration="162.00" routeLength="888.45" waitingTime="68.00" waitingCount="4" stopTime="0.00" timeLoss="93.63" rerouteNo="0" devices="tripinfo_f_0_3.0" vType="type1" speedFactor="1.09" vaporized=""/>
    <tripinfo id="f_0_3.1" depart="9.00" departLane="np3_nt3_0" departPos="13.37" departSpeed="0.00" departDelay="0.82" arrival="197.00" arrivalLane="nt14_np11_0" arrivalPos="75.00" arrivalSpeed="10.77" duration="188.00" routeLength="937.72" waitingTime="80.00" waitingCount="5" stopTime="0.00" timeLoss="111.80" rerouteNo="0" devices="tripinfo_f_0_3.1" vType="type1" speedFactor="1.04" vaporized=""/>
    <tripinfo id="f_0_0.0" depart="0.00" departLane="np13_nt13_0" departPos="37.02" departSpeed="0.00" departDelay="0.00" arrival="203.00" arrivalLane="nt4_np5_0" arrivalPos="75.00" arrivalSpeed="19.75" duration="203.00" routeLength="1310.87" waitingTime="78.00" waitingCount="5" stopTime="0.00" timeLoss="115.92" rerouteNo="0" devices="tripinfo_f_0_0.0" vType="type1" speedFactor="1.05" vaporized=""/>
    <tripinfo id="f_0_0.1" depart="14.00" departLane="np13_nt13_0" departPos="35.59" departSpeed="0.00" departDelay="0.36" arrival="206.00" arrivalLane="nt4_np5_0" arrivalPos="75.00" arrivalSpeed="18.10" duration="192.00" routeLength="1312.30" waitingTime="54.00" waitingCount="4" stopTime="0.00" timeLoss="91.75" rerouteNo="0" devices="tripinfo_f_0_0.1" vType="type1" speedFactor="0.92" vaporized=""/>
    <tripinfo id="f_0_0.2" depart="28.00" departLane="np13_nt13_0" departPos="17.58" departSpeed="0.00" departDelay="0.73" arrival="207.00" arrivalLane="nt4_np5_0" arrivalPos="75.00" arrivalSpeed="21.53" duration="179.00" routeLength="1330.31" waitingTime="50.00" waitingCount="4" stopTime="0.00" timeLoss="98.03" rerouteNo="0" devices="tripinfo_f_0_0.2" vType="type1" speedFactor="1.14" vaporized=""/>
    <tripinfo id="f_0_3.2" depart="17.00" departLane="np3_nt3_0" departPos="5.84" departSpeed="0.00" departDelay="0.64" arrival="211.00" arrivalLane="nt14_np11_0" arrivalPos="75.00" arrivalSpeed="10.57" duration="194.00" routeLength="945.25" waitingTime="89.00" waitingCount="6" stopTime="0.00" timeLoss="124.57" rerouteNo="0" devices="tripinfo_f_0_3.2" vType="type1" speedFactor="1.14" vaporized=""/>
    <tripinfo id="f_0_3.3" depart="25.00" departLane="np3_nt3_0" departPos="21.68" departSpeed="0.00" departDelay="0.45" arrival="214.00" arrivalLane="nt14_np11_0" arrivalPos="75.00" arrivalSpeed="8.80" duration="189.00" routeLength="929.41" waitingTime="89.00" waitingCount="3" stopTime="0.00" timeLoss="112.86" rerouteNo="0" devices="tripinfo_f_0_3.3" vType="type1" speedFactor="1.02" vaporized=""/>
    <tripinfo id="f_0_2.3" depart="25.00" departLane="np2_nt2_0" departPos="3.02" departSpeed="0.00" departDelay="0.45" arrival="218.00" arrivalLane="nt15_np10_0" arrivalPos="75.00" arrivalSpeed="9.62" duration="193.00" routeLength="948.06" waitingTime="78.00" waitingCount="5" stopTime="0.00" timeLoss="107.04" rerouteNo="0" devices="tripinfo_f_0_2.3" vType="type1" speedFactor="0.92" vaporized=""/>
    <tripinfo id="f_0_2.4" depart="33.00" departLane="np2_nt2_0" departPos="26.74" departSpeed="0.00" departDelay="0.27" arrival="220.00" arrivalLane="nt15_np10_0" arrivalPos="75.00" arrivalSpeed="9.94" duration="187.00" routeLength="924.34" waitingTime="73.00" waitingCount="5" stopTime="0.00" timeLoss="101.46" rerouteNo="0" devices="tripinfo_f_0_2.4" vType="type1" speedFactor="0.91" vaporized=""/>
    <tripinfo id="f_0_3.4" depart="33.00" departLane="np3_nt3_0" departPos="43.84" departSpeed="0.00" departDelay="0.27" arrival="223.00" arrivalLane="nt14_np11_0" arrivalPos="75.00" arrivalSpeed="8.07" duration="190.00" routeLength="907.25" waitingTime="84.00" waitingCount="4" stopTime="0.00" timeLoss="107.66" rerouteNo="0" devices="tripinfo_f_0_3.4" vType="type1" speedFactor="0.92" vaporized=""/>
    <tripinfo id="f_0_3.5" depart="41.00" departLane="np3_nt3_0" departPos="21.99" departSpeed="0.00" departDelay="0.09" arrival="225.00" arrivalLane="nt14_np11_0" arrivalPos="75.00" arrivalSpeed="10.14" duration="184.00" routeLength="929.10" waitingTime="72.00" waitingCount="5" stopTime="0.00" timeLoss="105.18" rerouteNo="0" devices="tripinfo_f_0_3.5" vType="type1" speedFactor="0.99" vaporized=""/>
    <tripinfo id="f_0_2.5" depart="41.00" departLane="np2_nt2_0" departPos="26.43" departSpeed="0.00" departDelay="0.09" arrival="228.00" arrivalLane="nt15_np10_0" arrivalPos="75.00" arrivalSpeed="9.68" duration="187.00" routeLength="924.65" waitingTime="63.00" waitingCount="8" stopTime="0.00" timeLoss="106.03" rerouteNo="0" devices="tripinfo_f_0_2.5" vType="type1" speedFactor="0.96" vaporized=""/>
    <tripinfo id="f_0_1.1" depart="14.00" departLane="np16_nt1_0" departPos="67.06" departSpeed="0.00" departDelay="0.36" arrival="243.00" arrivalLane="nt16_np8_0" arrivalPos="75.00" arrivalSpeed="14.94" duration="229.00" routeLength="1280.82" waitingTime="76.00" waitingCount="9" stopTime="0.00" timeLoss="123.68" rerouteNo="0" devices="tripinfo_f_0_1.1" vType="type1" speedFactor="0.85" vaporized=""/>
    <tripinfo id="f_0_1.2" depart="28.00" departLane="np16_nt1_0" departPos="47.26" departSpeed="0.00" departDelay="0.73" arrival="253.00" arrivalLane="nt16_np8_0" arrivalPos="75.00" arrivalSpeed="18.76" duration="225.00" routeLength="1300.62" waitingTime="61.00" waitingCount="9" stopTime="0.00" timeLoss="136.29" rerouteNo="0" devices="tripinfo_f_0_1.2" vType="type1" speedFactor="1.02" vaporized=""/>
    <tripinfo id="f_0_2.6" depart="50.00" departLane="np2_nt2_0" departPos="50.07" departSpeed="0.00" departDelay="0.91" arrival="265.00" arrivalLane="nt15_np10_0" arrivalPos="75.00" arrivalSpeed="7.50" duration="215.00" routeLength="901.01" waitingTime="66.00" waitingCount="7" stopTime="0.00" timeLoss="126.60" rerouteNo="0" devices="tripinfo_f_0_2.6" vType="type1" speedFactor="0.85" vaporized=""/>
    <tripinfo id="f_0_2.7" depart="58.00" departLane="np2_nt2_0" departPos="21.57" departSpeed="0.00" departDelay="0.73" arrival="266.00" arrivalLane="nt15_np10_0" arrivalPos="75.00" arrivalSpeed="11.93" duration="208.00" routeLength="929.51" waitingTime="58.00" waitingCount="5" stopTime="0.00" timeLoss="137.80" rerouteNo="0" devices="tripinfo_f_0_2.7" vType="type1" speedFactor="1.11" vaporized=""/>
    <tripinfo id="f_0_2.8" depart="66.00" departLane="np2_nt2_0" departPos="33.82" departSpeed="0.00" departDelay="0.54" arrival="269.00" arrivalLane="nt15_np10_0" arrivalPos="75.00" arrivalSpeed="9.17" duration="203.00" routeLength="917.26" waitingTime="65.00" waitingCount="8" stopTime="0.00" timeLoss="120.05" rerouteNo="0" devices="tripinfo_f_0_2.8" vType="type1" speedFactor="0.93" vaporized=""/>
    <tripinfo id="f_0_2.9" depart="74.00" departLane="np2_nt2_0" departPos="46.25" departSpeed="0.00" departDelay="0.36" arrival="271.00" arrivalLane="nt15_np10_0" arrivalPos="75.00" arrivalSpeed="10.47" duration="197.00" routeLength="904.83" waitingTime="61.00" waitingCount="6" stopTime="0.00" timeLoss="116.67" rerouteNo="0" devices="tripinfo_f_0_2.9" vType="type1" speedFactor="0.95" vaporized=""/>
    <tripinfo id="f_0_0.3" depart="41.00" departLane="np13_nt13_0" departPos="61.50" departSpeed="0.00" departDelay="0.09" arrival="274.00" arrivalLane="nt4_np5_0" arrivalPos="75.00" arrivalSpeed="15.73" duration="233.00" routeLength="1286.39" waitingTime="94.00" waitingCount="6" stopTime="0.00" timeLoss="132.65" rerouteNo="0" devices="tripinfo_f_0_0.3" vType="type1" speedFactor="0.90" vaporized=""/>
    <tripinfo id="f_0_0.4" depart="55.00" departLane="np13_nt13_0" departPos="58.23" departSpeed="0.00" departDelay="0.46" arrival="275.00" arrivalLane="nt4_np5_0" arrivalPos="75.00" arrivalSpeed="18.76" duration="220.00" routeLength="1289.66" waitingTime="85.00" waitingCount="6" stopTime="0.00" timeLoss="128.56" rerouteNo="0" devices="tripinfo_f_0_0.4" vType="type1" speedFactor="0.99" vaporized=""/>
    <tripinfo id="f_0_1.3" depart="41.00" departLane="np16_nt1_0" departPos="16.24" departSpeed="0.00" departDelay="0.09" arrival="280.00" arrivalLane="nt16_np8_0" arrivalPos="75.00" arrivalSpeed="20.61" duration="239.00" routeLength="1331.64" waitingTime="84.00" waitingCount="9" stopTime="0.00" timeLoss="158.50" rerouteNo="0" devices="tripinfo_f_0_1.3" vType="type1" speedFactor="1.15" vaporized=""/>
    <tripinfo id="f_0_1.4" depart="55.00" departLane="np16_nt1_0" departPos="64.61" departSpeed="0.00" departDelay="0.46" arrival="289.00" arrivalLane="nt16_np8_0" arrivalPos="75.00" arrivalSpeed="20.38" duration="234.00" routeLength="1283.27" waitingTime="64.00" waitingCount="9" stopTime="0.00" timeLoss="150.66" rerouteNo="0" devices="tripinfo_f_0_1.4" vType="type1" speedFactor="1.09" vaporized=""/>
    <tripinfo id="f_0_0.5" depart="69.00" departLane="np13_nt13_0" departPos="20.80" departSpeed="0.00" departDelay="0.82" arrival="291.00" arrivalLane="nt4_np5_0" arrivalPos="75.00" arrivalSpeed="13.19" duration="222.00" routeLength="1327.09" waitingTime="57.00" waitingCount="8" stopTime="0.00" timeLoss="99.32" rerouteNo="0" devices="tripinfo_f_0_0.5" vType="type1" speedFactor="0.75" vaporized=""/>
    <tripinfo id="f_0_1.5" depart="69.00" departLane="np16_nt1_0" departPos="26.61" departSpeed="0.00" departDelay="0.82" arrival="292.00" arrivalLane="nt16_np8_0" arrivalPos="75.00" arrivalSpeed="19.50" duration="223.00" routeLength="1321.27" waitingTime="46.00" waitingCount="7" stopTime="0.00" timeLoss="133.62" rerouteNo="0" devices="tripinfo_f_0_1.5" vType="type1" speedFactor="1.04" vaporized=""/>
    <tripinfo id="f_0_2.10" depart="82.00" departLane="np2_nt2_0" departPos="35.08" departSpeed="0.00" departDelay="0.18" arrival="292.00" arrivalLane="nt15_np10_0" arrivalPos="75.00" arrivalSpeed="11.09" duration="210.00" routeLength="916.00" waitingTime="42.00" waitingCount="7" stopTime="0.00" timeLoss="137.25" rerouteNo="0" devices="tripinfo_f_0_2.10" vType="type1" speedFactor="1.07" vaporized=""/>
    <tripinfo id="f_0_0.6" depart="82.00" departLane="np13_nt13_0" departPos="15.39" departSpeed="0.00" departDelay="0.18" arrival="293.00" arrivalLane="nt4_np5_0" arrivalPos="75.00" arrivalSpeed="13.83" duration="211.00" routeLength="1332.50" waitingTime="44.00" waitingCount="8" stopTime="0.00" timeLoss="92.18" rerouteNo="0" devices="tripinfo_f_0_0.6" vType="type1" speedFactor="0.78" vaporized=""/>
    <tripinfo id="f_0_2.11" depart="90.00" departLane="np2_nt2_0" departPos="1.41" departSpeed="0.00" departDelay="0.00" arrival="294.00" arrivalLane="nt15_np10_0" arrivalPos="75.00" arrivalSpeed="9.05" duration="204.00" routeLength="949.67" waitingTime="37.00" waitingCount="7" stopTime="0.00" timeLoss="126.70" rerouteNo="0" devices="tripinfo_f_0_2.11" vType="type1" speedFactor="1.03" vaporized=""/>
    <tripinfo id="f_0_0.7" depart="96.00" departLane="np13_nt13_0" departPos="31.46" departSpeed="0.00" departDelay="0.55" arrival="295.00" arrivalLane="nt4_np5_0" arrivalPos="75.00" arrivalSpeed="21.04" duration="199.00" routeLength="1316.43" waitingTime="38.00" waitingCount="7" stopTime="0.00" timeLoss="115.71" rerouteNo="0" devices="tripinfo_f_0_0.7" vType="type1" speedFactor="1.10" vaporized=""/>
    <tripinfo id="f_0_0.8" depart="110.00" departLane="np13_nt13_0" departPos="39.59" departSpeed="0.00" departDelay="0.91" arrival="296.00" arrivalLane="nt4_np5_0" arrivalPos="75.00" arrivalSpeed="19.31" duration="186.00" routeLength="1308.30" waitingTime="28.00" waitingCount="5" stopTime="0.00" timeLoss="101.51" rerouteNo="0" devices="tripinfo_f_0_0.8" vType="type1" speedFactor="1.08" vaporized=""/>
    <tripinfo id="f_0_0.9" depart="123.00" departLane="np13_nt13_0" departPos="51.09" departSpeed="0.00" departDelay="0.28" arrival="299.00" arrivalLane="nt4_np5_0" arrivalPos="75.00" arrivalSpeed="15.76" duration="176.00" routeLength="1296.80" waitingTime="31.00" waitingCount="5" stopTime="0.00" timeLoss="67.15" rerouteNo="0" devices="tripinfo_f_0_0.9" vType="type1" speedFactor="0.84" vaporized=""/>
    <tripinfo id="f_0_0.10" depart="137.00" departLane="np13_nt13_0" departPos="42.55" departSpeed="0.00" departDelay="0.64" arrival="307.00" arrivalLane="nt4_np5_0" arrivalPos="75.00" arrivalSpeed="18.76" duration="170.00" routeLength="1305.34" waitingTime="24.00" waitingCount="6" stopTime="0.00" timeLoss="72.51" rerouteNo="0" devices="tripinfo_f_0_0.10" vType="type1" speedFactor="0.94" vaporized=""/>
    <tripinfo id="f_0_0.11" depart="150.00" departLane="np13_nt13_0" departPos="10.53" departSpeed="0.00" departDelay="0.00" arrival="329.00" arrivalLane="nt4_np5_0" arrivalPos="75.00" arrivalSpeed="16.42" duration="179.00" routeLength="1337.36" waitingTime="24.00" waitingCount="5" stopTime="0.00" timeLoss="66.27" rerouteNo="0" devices="tripinfo_f_0_0.11" vType="type1" speedFactor="0.82" vaporized=""/>
    <tripinfo id="f_0_3.6" depart="50.00" departLane="np3_nt3_0" departPos="24.91" departSpeed="0.00" departDelay="0.91" arrival="336.00" arrivalLane="nt14_np11_0" arrivalPos="75.00" arrivalSpeed="10.70" duration="286.00" routeLength="926.18" waitingTime="184.00" waitingCount="6" stopTime="0.00" timeLoss="214.73" rerouteNo="0" devices="tripinfo_f_0_3.6" vType="type1" speedFactor="1.09" vaporized=""/>
    <tripinfo id="f_0_3.7" depart="58.00" departLane="np3_nt3_0" departPos="32.01" departSpeed="0.00" departDelay="0.73" arrival="339.00" arrivalLane="nt14_np11_0" arrivalPos="75.00" arrivalSpeed="9.62" duration="281.00" routeLength="919.08" waitingTime="174.00" waitingCount="6" stopTime="0.00" timeLoss="202.60" rerouteNo="0" devices="tripinfo_f_0_3.7" vType="type1" speedFactor="0.98" vaporized=""/>
    <tripinfo id="f_0_0.12" depart="164.00" departLane="np13_nt13_0" departPos="35.01" departSpeed="0.00" departDelay="0.37" arrival="355.00" arrivalLane="nt4_np5_0" arrivalPos="75.00" arrivalSpeed="13.09" duration="191.00" routeLength="1312.88" waitingTime="29.00" waitingCount="4" stopTime="0.00" timeLoss="65.84" rerouteNo="0" devices="tripinfo_f_0_0.12" vType="type1" speedFactor="0.73" vaporized=""/>
    <tripinfo id="f_0_3.15" depart="179.00" departLane="np3_nt3_0" departPos="59.89" departSpeed="0.00" departDelay="56.27" arrival="359.00" arrivalLane="nt14_np11_0" arrivalPos="75.00" arrivalSpeed="7.61" duration="180.00" routeLength="891.20" waitingTime="68.00" waitingCount="5" stopTime="0.00" timeLoss="94.91" rerouteNo="0" devices="tripinfo_f_0_3.15" vType="type1" speedFactor="0.88" vaporized=""/>
    <tripinfo id="f_0_3.8" depart="66.00" departLane="np3_nt3_0" departPos="11.41" departSpeed="0.00" departDelay="0.54" arrival="360.00" arrivalLane="nt14_np11_0" arrivalPos="75.00" arrivalSpeed="11.25" duration="294.00" routeLength="939.68" waitingTime="171.00" waitingCount="10" stopTime="0.00" timeLoss="218.87" rerouteNo="0" devices="tripinfo_f_0_3.8" vType="type1" speedFactor="1.04" vaporized=""/>
    <tripinfo id="f_0_2.12" depart="99.00" departLane="np2_nt2_0" departPos="40.51" departSpeed="0.00" departDelay="0.82" arrival="371.00" arrivalLane="nt15_np10_0" arrivalPos="75.00" arrivalSpeed="11.63" duration="272.00" routeLength="910.57" waitingTime="107.00" waitingCount="8" stopTime="0.00" timeLoss="206.01" rerouteNo="0" devices="tripinfo_f_0_2.12" vType="type1" speedFactor="1.17" vaporized=""/>
    <tripinfo id="f_0_0.13" depart="178.00" departLane="np13_nt13_0" departPos="2.81" departSpeed="0.00" departDelay="0.73" arrival="374.00" arrivalLane="nt4_np5_0" arrivalPos="75.00" arrivalSpeed="16.74" duration="196.00" routeLength="1345.08" waitingTime="32.00" waitingCount="6" stopTime="0.00" timeLoss="92.09" rerouteNo="0" devices="tripinfo_f_0_0.13" vType="type1" speedFactor="0.90" vaporized=""/>
    <tripinfo id="f_0_3.9" depart="74.00" departLane="np3_nt3_0" departPos="8.11" departSpeed="0.00" departDelay="0.36" arrival="376.00" arrivalLane="nt14_np11_0" arrivalPos="75.00" arrivalSpeed="12.83" duration="302.00" routeLength="942.98" waitingTime="171.00" waitingCount="11" stopTime="0.00" timeLoss="234.01" rerouteNo="0" devices="tripinfo_f_0_3.9" vType="type1" speedFactor="1.17" vaporized=""/>
    <tripinfo id="f_0_1.6" depart="82.00" departLane="np16_nt1_0" departPos="0.15" departSpeed="0.00" departDelay="0.18" arrival="388.00" arrivalLane="nt16_np8_0" arrivalPos="75.00" arrivalSpeed="15.75" duration="306.00" routeLength="1347.73" waitingTime="104.00" waitingCount="7" stopTime="0.00" timeLoss="201.68" rerouteNo="0" devices="tripinfo_f_0_1.6" vType="type1" speedFactor="0.90" vaporized=""/>
    <tripinfo id="f_0_3.10" depart="82.00" departLane="np3_nt3_0" departPos="1.42" departSpeed="0.00" departDelay="0.18" arrival="392.00" arrivalLane="nt14_np11_0" arrivalPos="75.00" arrivalSpeed="11.20" duration="310.00" routeLength="949.67" waitingTime="170.00" waitingCount="12" stopTime="0.00" timeLoss="232.59" rerouteNo="0" devices="tripinfo_f_0_3.10" vType="type1" speedFactor="1.04" vaporized=""/>
    <tripinfo id="f_0_0.14" depart="191.00" departLane="np13_nt13_0" departPos="48.94" departSpeed="0.00" departDelay="0.10" arrival="394.00" arrivalLane="nt4_np5_0" arrivalPos="75.00" arrivalSpeed="19.11" duration="203.00" routeLength="1298.95" waitingTime="49.00" waitingCount="7" stopTime="0.00" timeLoss="109.75" rerouteNo="0" devices="tripinfo_f_0_0.14" vType="type1" speedFactor="0.98" vaporized=""/>
    <tripinfo id="f_0_3.11" depart="90.00" departLane="np3_nt3_0" departPos="1.39" departSpeed="0.00" departDelay="0.00" arrival="395.00" arrivalLane="nt14_np11_0" arrivalPos="75.00" arrivalSpeed="9.65" duration="305.00" routeLength="949.70" waitingTime="149.00" waitingCount="12" stopTime="0.00" timeLoss="216.14" rerouteNo="0" devices="tripinfo_f_0_3.11" vType="type1" speedFactor="0.89" vaporized=""/>
    <tripinfo id="f_0_0.15" depart="205.00" departLane="np13_nt13_0" departPos="20.46" departSpeed="0.00" departDelay="0.46" arrival="395.00" arrivalLane="nt4_np5_0" arrivalPos="75.00" arrivalSpeed="20.39" duration="190.00" routeLength="1327.43" waitingTime="30.00" waitingCount="6" stopTime="0.00" timeLoss="105.46" rerouteNo="0" devices="tripinfo_f_0_0.15" vType="type1" speedFactor="1.10" vaporized=""/>
    <tripinfo id="f_0_3.12" depart="99.00" departLane="np3_nt3_0" departPos="0.00" departSpeed="0.00" departDelay="0.82" arrival="397.00" arrivalLane="nt14_np11_0" arrivalPos="75.00" arrivalSpeed="9.66" duration="298.00" routeLength="951.09" waitingTime="143.00" waitingCount="13" stopTime="0.00" timeLoss="222.37" rerouteNo="0" devices="tripinfo_f_0_3.12" vType="type1" speedFactor="1.05" vaporized=""/>
    <tripinfo id="f_0_0.16" depart="219.00" departLane="np13_nt13_0" departPos="13.66" departSpeed="0.00" departDelay="0.82" arrival="397.00" arrivalLane="nt4_np5_0" arrivalPos="75.00" arrivalSpeed="17.81" duration="178.00" routeLength="1334.23" waitingTime="35.00" waitingCount="5" stopTime="0.00" timeLoss="79.84" rerouteNo="0" devices="tripinfo_f_0_0.16" vType="type1" speedFactor="0.95" vaporized=""/>
    <tripinfo id="f_0_3.13" depart="107.00" departLane="np3_nt3_0" departPos="0.00" departSpeed="0.00" departDelay="0.63" arrival="399.00" arrivalLane="nt14_np11_0" arrivalPos="75.00" arrivalSpeed="10.50" duration="292.00" routeLength="951.09" waitingTime="136.00" waitingCount="11" stopTime="0.00" timeLoss="210.92" rerouteNo="0" devices="tripinfo_f_0_3.13" vType="type1" speedFactor="0.98" vaporized=""/>
    <tripinfo id="f_0_3.14" depart="115.00" departLane="np3_nt3_0" departPos="3.19" departSpeed="0.00" departDelay="0.45" arrival="402.00" arrivalLane="nt14_np11_0" arrivalPos="75.00" arrivalSpeed="9.70" duration="287.00" routeLength="947.90" waitingTime="143.00" waitingCount="11" stopTime="0.00" timeLoss="203.54" rerouteNo="0" devices="tripinfo_f_0_3.14" vType="type1" speedFactor="0.96" vaporized=""/>
    <tripinfo id="f_0_3.16" depart="189.00" departLane="np3_nt3_0" departPos="0.00" departSpeed="0.00" departDelay="58.09" arrival="403.00" arrivalLane="nt14_np11_0" arrivalPos="75.00" arrivalSpeed="11.05" duration="214.00" routeLength="951.09" waitingTime="76.00" waitingCount="9" stopTime="0.00" timeLoss="140.92" rerouteNo="0" devices="tripinfo_f_0_3.16" vType="type1" speedFactor="1.09" vaporized=""/>
    <tripinfo id="f_0_2.13" depart="107.00" departLane="np2_nt2_0" departPos="53.63" departSpeed="0.00" departDelay="0.63" arrival="413.00" arrivalLane="nt15_np10_0" arrivalPos="75.00" arrivalSpeed="10.50" duration="306.00" routeLength="897.45" waitingTime="129.00" waitingCount="8" stopTime="0.00" timeLoss="227.40" rerouteNo="0" devices="tripinfo_f_0_2.13" vType="type1" speedFactor="0.96" vaporized=""/>
    <tripinfo id="f_0_0.17" depart="232.00" departLane="np13_nt13_0" departPos="15.67" departSpeed="0.00" departDelay="0.19" arrival="423.00" arrivalLane="nt4_np5_0" arrivalPos="75.00" arrivalSpeed="18.68" duration="191.00" routeLength="1332.22" waitingTime="57.00" waitingCount="4" stopTime="0.00" timeLoss="103.02" rerouteNo="0" devices="tripinfo_f_0_0.17" vType="type1" speedFactor="1.05" vaporized=""/>
    <tripinfo id="f_0_3.18" depart="193.00" departLane="np3_nt3_0" departPos="14.25" departSpeed="0.00" departDelay="45.72" arrival="424.00" arrivalLane="nt14_np11_0" arrivalPos="75.00" arrivalSpeed="7.73" duration="231.00" routeLength="936.84" waitingTime="94.00" waitingCount="9" stopTime="0.00" timeLoss="140.70" rerouteNo="0" devices="tripinfo_f_0_3.18" vType="type1" speedFactor="0.88" vaporized=""/>
    <tripinfo id="f_0_0.18" depart="246.00" departLane="np13_nt13_0" departPos="29.94" departSpeed="0.00" departDelay="0.55" arrival="425.00" arrivalLane="nt4_np5_0" arrivalPos="75.00" arrivalSpeed="21.60" duration="179.00" routeLength="1317.95" waitingTime="56.00" waitingCount="6" stopTime="0.00" timeLoss="96.09" rerouteNo="0" devices="tripinfo_f_0_0.18" vType="type1" speedFactor="1.10" vaporized=""/>
    <tripinfo id="f_0_0.19" depart="260.00" departLane="np13_nt13_0" departPos="45.98" departSpeed="0.00" departDelay="0.92" arrival="433.00" arrivalLane="nt4_np5_0" arrivalPos="75.00" arrivalSpeed="17.66" duration="173.00" routeLength="1301.91" waitingTime="36.00" waitingCount="7" stopTime="0.00" timeLoss="82.48" rerouteNo="0" devices="tripinfo_f_0_0.19" vType="type1" speedFactor="1.00" vaporized=""/>
    <tripinfo id="f_0_0.20" depart="273.00" departLane="np13_nt13_0" departPos="44.58" departSpeed="0.00" departDelay="0.28" arrival="435.00" arrivalLane="nt4_np5_0" arrivalPos="75.00" arrivalSpeed="18.15" duration="162.00" routeLength="1303.31" waitingTime="30.00" waitingCount="7" stopTime="0.00" timeLoss="72.83" rerouteNo="0" devices="tripinfo_f_0_0.20" vType="type1" speedFactor="1.02" vaporized=""/>
    <tripinfo id="f_0_0.21" depart="287.00" departLane="np13_nt13_0" departPos="54.16" departSpeed="0.00" departDelay="0.64" arrival="444.00" arrivalLane="nt4_np5_0" arrivalPos="75.00" arrivalSpeed="22.05" duration="157.00" routeLength="1293.73" waitingTime="23.00" waitingCount="6" stopTime="0.00" timeLoss="75.80" rerouteNo="0" devices="tripinfo_f_0_0.21" vType="type1" speedFactor="1.12" vaporized=""/>
    <tripinfo id="f_0_1.7" depart="96.00" departLane="np16_nt1_0" departPos="30.38" departSpeed="0.00" departDelay="0.55" arrival="448.00" arrivalLane="nt16_np8_0" arrivalPos="75.00" arrivalSpeed="15.95" duration="352.00" routeLength="1317.50" waitingTime="153.00" waitingCount="7" stopTime="0.00" timeLoss="250.34" rerouteNo="0" devices="tripinfo_f_0_1.7" vType="type1" speedFactor="0.90" vaporized=""/>
    <tripinfo id="f_0_2.14" depart="115.00" departLane="np2_nt2_0" departPos="20.88" departSpeed="0.00" departDelay="0.45" arrival="451.00" arrivalLane="nt15_np10_0" arrivalPos="75.00" arrivalSpeed="11.52" duration="336.00" routeLength="930.20" waitingTime="173.00" waitingCount="9" stopTime="0.00" timeLoss="265.13" rerouteNo="0" devices="tripinfo_f_0_2.14" vType="type1" speedFactor="1.10" vaporized=""/>
    <tripinfo id="f_0_3.17" depart="192.00" departLane="np3_nt3_0" departPos="3.84" departSpeed="0.00" departDelay="52.91" arrival="456.00" arrivalLane="nt14_np11_0" arrivalPos="75.00" arrivalSpeed="10.98" duration="264.00" routeLength="947.25" waitingTime="115.00" waitingCount="9" stopTime="0.00" timeLoss="188.95" rerouteNo="0" devices="tripinfo_f_0_3.17" vType="type1" speedFactor="1.06" vaporized=""/>
    <tripinfo id="f_0_3.19" depart="196.00" departLane="np3_nt3_0" departPos="0.84" departSpeed="0.00" departDelay="40.54" arrival="458.00" arrivalLane="nt14_np11_0" arrivalPos="75.00" arrivalSpeed="11.27" duration="262.00" routeLength="950.25" waitingTime="114.00" waitingCount="11" stopTime="0.00" timeLoss="192.40" rerouteNo="0" devices="tripinfo_f_0_3.19" vType="type1" speedFactor="1.14" vaporized=""/>
    <tripinfo id="f_0_2.15" depart="123.00" departLane="np2_nt2_0" departPos="21.89" departSpeed="0.00" departDelay="0.27" arrival="473.00" arrivalLane="nt15_np10_0" arrivalPos="75.00" arrivalSpeed="9.62" duration="350.00" routeLength="929.19" waitingTime="198.00" waitingCount="9" stopTime="0.00" timeLoss="262.72" rerouteNo="0" devices="tripinfo_f_0_2.15" vType="type1" speedFactor="0.89" vaporized=""/>
    <tripinfo id="f_0_3.20" depart="199.00" departLane="np3_nt3_0" departPos="0.00" departSpeed="0.00" departDelay="35.36" arrival="473.00" arrivalLane="nt14_np11_0" arrivalPos="75.00" arrivalSpeed="8.96" duration="274.00" routeLength="951.09" waitingTime="119.00" waitingCount="12" stopTime="0.00" timeLoss="190.64" rerouteNo="0" devices="tripinfo_f_0_3.20" vType="type1" speedFactor="0.96" vaporized=""/>
    <tripinfo id="f_0_2.16" depart="131.00" departLane="np2_nt2_0" departPos="23.87" departSpeed="0.00" departDelay="0.09" arrival="475.00" arrivalLane="nt15_np10_0" arrivalPos="75.00" arrivalSpeed="10.21" duration="344.00" routeLength="927.21" waitingTime="209.00" waitingCount="8" stopTime="0.00" timeLoss="266.19" rerouteNo="0" devices="tripinfo_f_0_2.16" vType="type1" speedFactor="1.00" vaporized=""/>
    <tripinfo id="f_0_1.8" depart="110.00" departLane="np16_nt1_0" departPos="61.09" departSpeed="0.00" departDelay="0.91" arrival="488.00" arrivalLane="nt16_np8_0" arrivalPos="75.00" arrivalSpeed="18.49" duration="378.00" routeLength="1286.79" waitingTime="222.00" waitingCount="10" stopTime="0.00" timeLoss="285.46" rerouteNo="0" devices="tripinfo_f_0_1.8" vType="type1" speedFactor="0.97" vaporized=""/>
    <tripinfo id="f_0_1.9" depart="123.00" departLane="np16_nt1_0" departPos="9.38" departSpeed="0.00" departDelay="0.28" arrival="490.00" arrivalLane="nt16_np8_0" arrivalPos="75.00" arrivalSpeed="18.08" duration="367.00" routeLength="1338.50" waitingTime="206.00" waitingCount="9" stopTime="0.00" timeLoss="274.77" rerouteNo="0" devices="tripinfo_f_0_1.9" vType="type1" speedFactor="1.02" vaporized=""/>
    <tripinfo id="f_1_0.0" depart="300.00" departLane="np13_nt13_0" departPos="66.19" departSpeed="0.00" departDelay="0.00" arrival="496.00" arrivalLane="nt4_np5_0" arrivalPos="75.00" arrivalSpeed="18.71" duration="196.00" routeLength="1281.70" waitingTime="71.00" waitingCount="3" stopTime="0.00" timeLoss="100.77" rerouteNo="0" devices="tripinfo_f_1_0.0" vType="type1" speedFactor="0.94" vaporized=""/>