<?xml version="1.0" encoding="UTF-8"?>

<!-- generated on 2023-08-30 12:23:40 by Eclipse SUMO libsumo Version 1.18.0
<configuration xmlns:xsi="http://www.w3.org/2001/XMLSchema-instance" xsi:noNamespaceSchemaLocation="http://sumo.dlr.de/xsd/libsumoConfiguration.xsd">

    <input>
        <net-file value="/home/stefan/RESCO/./environments/arterial4x4/arterial4x4.net.xml"/>
        <route-files value="/home/stefan/RESCO/./environments/arterial4x4/arterial4x4_15.rou.xml"/>
    </input>

    <output>
        <tripinfo-output value="/home/stefan/results/ITRPO-tr0-arterial4x4-0-drq_norm-wait_norm/tripinfo_15.xml"/>
        <tripinfo-output.write-unfinished value="true"/>
    </output>

    <processing>
        <time-to-teleport value="-1"/>
    </processing>

    <report>
        <no-warnings value="True"/>
        <no-step-log value="True"/>
    </report>

    <random_number>
        <random value="true"/>
    </random_number>

</configuration>
-->

<tripinfos xmlns:xsi="http://www.w3.org/2001/XMLSchema-instance" xsi:noNamespaceSchemaLocation="http://sumo.dlr.de/xsd/tripinfo_file.xsd">
    <tripinfo id="f_0_0.0" depart="0.00" departLane="np13_nt13_0" departPos="45.57" departSpeed="0.00" departDelay="0.00" arrival="118.00" arrivalLane="nt4_np5_0" arrivalPos="75.00" arrivalSpeed="22.09" duration="118.00" routeLength="1302.32" waitingTime="10.00" waitingCount="5" stopTime="0.00" timeLoss="37.39" rerouteNo="0" devices="tripinfo_f_0_0.0" vType="type1" speedFactor="1.13" vaporized=""/>
    <tripinfo id="f_0_0.1" depart="14.00" departLane="np13_nt13_0" departPos="25.71" departSpeed="0.00" departDelay="0.36" arrival="161.00" arrivalLane="nt4_np5_0" arrivalPos="75.00" arrivalSpeed="19.69" duration="147.00" routeLength="1322.18" waitingTime="30.00" waitingCount="2" stopTime="0.00" timeLoss="57.85" rerouteNo="0" devices="tripinfo_f_0_0.1" vType="type1" speedFactor="1.03" vaporized=""/>
    <tripinfo id="f_0_2.0" depart="0.00" departLane="np2_nt2_0" departPos="9.06" departSpeed="0.00" departDelay="0.00" arrival="167.00" arrivalLane="nt15_np10_0" arrivalPos="75.00" arrivalSpeed="10.37" duration="167.00" routeLength="942.02" waitingTime="65.00" waitingCount="5" stopTime="0.00" timeLoss="90.28" rerouteNo="0" devices="tripinfo_f_0_2.0" vType="type1" speedFactor="1.03" vaporized=""/>
    <tripinfo id="f_0_3.0" depart="0.00" departLane="np3_nt3_0" departPos="11.23" departSpeed="0.00" departDelay="0.00" arrival="168.00" arrivalLane="nt14_np11_0" arrivalPos="75.00" arrivalSpeed="9.41" duration="168.00" routeLength="939.86" waitingTime="54.00" waitingCount="3" stopTime="0.00" timeLoss="77.01" rerouteNo="0" devices="tripinfo_f_0_3.0" vType="type1" speedFactor="0.87" vaporized=""/>
    <tripinfo id="f_0_2.1" depart="9.00" departLane="np2_nt2_0" departPos="14.33" departSpeed="0.00" departDelay="0.82" arrival="170.00" arrivalLane="nt15_np10_0" arrivalPos="75.00" arrivalSpeed="10.19" duration="161.00" routeLength="936.75" waitingTime="64.00" waitingCount="4" stopTime="0.00" timeLoss="86.00" rerouteNo="0" devices="tripinfo_f_0_2.1" vType="type1" speedFactor="1.05" vaporized=""/>
    <tripinfo id="f_0_2.2" depart="17.00" departLane="np2_nt2_0" departPos="9.18" departSpeed="0.00" departDelay="0.64" arrival="181.00" arrivalLane="nt15_np10_0" arrivalPos="75.00" arrivalSpeed="12.44" duration="164.00" routeLength="941.90" waitingTime="70.00" waitingCount="6" stopTime="0.00" timeLoss="100.86" rerouteNo="0" devices="tripinfo_f_0_2.2" vType="type1" speedFactor="1.25" vaporized=""/>
    <tripinfo id="f_0_0.2" depart="28.00" departLane="np13_nt13_0" departPos="44.31" departSpeed="0.00" departDelay="0.73" arrival="183.00" arrivalLane="nt4_np5_0" arrivalPos="75.00" arrivalSpeed="17.60" duration="155.00" routeLength="1303.58" waitingTime="33.00" waitingCount="5" stopTime="0.00" timeLoss="62.69" rerouteNo="0" devices="tripinfo_f_0_0.2" vType="type1" speedFactor="0.98" vaporized=""/>
    <tripinfo id="f_0_0.3" depart="41.00" departLane="np13_nt13_0" departPos="9.13" departSpeed="0.00" departDelay="0.09" arrival="233.00" arrivalLane="nt4_np5_0" arrivalPos="75.00" arrivalSpeed="18.62" duration="192.00" routeLength="1338.76" waitingTime="68.00" waitingCount="4" stopTime="0.00" timeLoss="93.92" rerouteNo="0" devices="tripinfo_f_0_0.3" vType="type1" speedFactor="0.94" vaporized=""/>
    <tripinfo id="f_0_3.1" depart="9.00" departLane="np3_nt3_0" departPos="14.78" departSpeed="0.00" departDelay="0.82" arrival="241.00" arrivalLane="nt14_np11_0" arrivalPos="75.00" arrivalSpeed="11.32" duration="232.00" routeLength="936.31" waitingTime="138.00" waitingCount="6" stopTime="0.00" timeLoss="162.96" rerouteNo="0" devices="tripinfo_f_0_3.1" vType="type1" speedFactor="1.14" vaporized=""/>
    <tripinfo id="f_0_3.2" depart="17.00" departLane="np3_nt3_0" departPos="36.88" departSpeed="0.00" departDelay="0.64" arrival="245.00" arrivalLane="nt14_np11_0" arrivalPos="75.00" arrivalSpeed="7.97" duration="228.00" routeLength="914.21" waitingTime="118.00" waitingCount="7" stopTime="0.00" timeLoss="146.06" rerouteNo="0" devices="tripinfo_f_0_3.2" vType="type1" speedFactor="0.94" vaporized=""/>
    <tripinfo id="f_0_1.0" depart="0.00" departLane="np16_nt1_0" departPos="22.91" departSpeed="0.00" departDelay="0.00" arrival="258.00" arrivalLane="nt16_np8_0" arrivalPos="75.00" arrivalSpeed="19.14" duration="258.00" routeLength="1324.97" waitingTime="118.00" waitingCount="8" stopTime="0.00" timeLoss="163.90" rerouteNo="0" devices="tripinfo_f_0_1.0" vType="type1" speedFactor="0.97" vaporized=""/>
    <tripinfo id="f_0_3.3" depart="25.00" departLane="np3_nt3_0" departPos="7.09" departSpeed="0.00" departDelay="0.45" arrival="282.00" arrivalLane="nt14_np11_0" arrivalPos="75.00" arrivalSpeed="10.45" duration="257.00" routeLength="944.00" waitingTime="132.00" waitingCount="6" stopTime="0.00" timeLoss="182.88" rerouteNo="0" devices="tripinfo_f_0_3.3" vType="type1" speedFactor="1.07" vaporized=""/>
    <tripinfo id="f_0_0.4" depart="55.00" departLane="np13_nt13_0" departPos="24.68" departSpeed="0.00" departDelay="0.46" arrival="294.00" arrivalLane="nt4_np5_0" arrivalPos="75.00" arrivalSpeed="16.95" duration="239.00" routeLength="1323.21" waitingTime="99.00" waitingCount="6" stopTime="0.00" timeLoss="132.46" rerouteNo="0" devices="tripinfo_f_0_0.4" vType="type1" speedFactor="0.86" vaporized=""/>
    <tripinfo id="f_0_2.3" depart="25.00" departLane="np2_nt2_0" departPos="26.19" departSpeed="0.00" departDelay="0.45" arrival="312.00" arrivalLane="nt15_np10_0" arrivalPos="75.00" arrivalSpeed="11.54" duration="287.00" routeLength="924.89" waitingTime="174.00" waitingCount="8" stopTime="0.00" timeLoss="212.82" rerouteNo="0" devices="tripinfo_f_0_2.3" vType="type1" speedFactor="1.05" vaporized=""/>
    <tripinfo id="f_0_2.4" depart="33.00" departLane="np2_nt2_0" departPos="32.46" departSpeed="0.00" departDelay="0.27" arrival="314.00" arrivalLane="nt15_np10_0" arrivalPos="75.00" arrivalSpeed="10.17" duration="281.00" routeLength="918.62" waitingTime="165.00" waitingCount="8" stopTime="0.00" timeLoss="210.58" rerouteNo="0" devices="tripinfo_f_0_2.4" vType="type1" speedFactor="1.10" vaporized=""/>
    <tripinfo id="f_0_0.5" depart="69.00" departLane="np13_nt13_0" departPos="34.23" departSpeed="0.00" departDelay="0.82" arrival="318.00" arrivalLane="nt4_np5_0" arrivalPos="75.00" arrivalSpeed="18.88" duration="249.00" routeLength="1313.66" waitingTime="109.00" waitingCount="5" stopTime="0.00" timeLoss="162.25" rerouteNo="0" devices="tripinfo_f_0_0.5" vType="type1" speedFactor="1.06" vaporized=""/>
    <tripinfo id="f_0_1.1" depart="14.00" departLane="np16_nt1_0" departPos="3.65" departSpeed="0.00" departDelay="0.36" arrival="327.00" arrivalLane="nt16_np8_0" arrivalPos="75.00" arrivalSpeed="22.73" duration="313.00" routeLength="1344.23" waitingTime="166.00" waitingCount="10" stopTime="0.00" timeLoss="235.68" rerouteNo="0" devices="tripinfo_f_0_1.1" vType="type1" speedFactor="1.20" vaporized=""/>
    <tripinfo id="f_0_1.2" depart="28.00" departLane="np16_nt1_0" departPos="37.60" departSpeed="0.00" departDelay="0.73" arrival="348.00" arrivalLane="nt16_np8_0" arrivalPos="75.00" arrivalSpeed="18.53" duration="320.00" routeLength="1310.28" waitingTime="160.00" waitingCount="12" stopTime="0.00" timeLoss="227.26" rerouteNo="0" devices="tripinfo_f_0_1.2" vType="type1" speedFactor="0.98" vaporized=""/>
    <tripinfo id="f_0_3.4" depart="33.00" departLane="np3_nt3_0" departPos="32.52" departSpeed="0.00" departDelay="0.27" arrival="352.00" arrivalLane="nt14_np11_0" arrivalPos="75.00" arrivalSpeed="10.65" duration="319.00" routeLength="918.57" waitingTime="194.00" waitingCount="7" stopTime="0.00" timeLoss="241.85" rerouteNo="0" devices="tripinfo_f_0_3.4" vType="type1" speedFactor="1.01" vaporized=""/>
    <tripinfo id="f_0_3.5" depart="41.00" departLane="np3_nt3_0" departPos="28.19" departSpeed="0.00" departDelay="0.09" arrival="355.00" arrivalLane="nt14_np11_0" arrivalPos="75.00" arrivalSpeed="9.03" duration="314.00" routeLength="922.90" waitingTime="187.00" waitingCount="7" stopTime="0.00" timeLoss="233.72" rerouteNo="0" devices="tripinfo_f_0_3.5" vType="type1" speedFactor="0.96" vaporized=""/>
    <tripinfo id="f_0_3.6" depart="50.00" departLane="np3_nt3_0" departPos="3.50" departSpeed="0.00" departDelay="0.91" arrival="358.00" arrivalLane="nt14_np11_0" arrivalPos="75.00" arrivalSpeed="9.12" duration="308.00" routeLength="947.59" waitingTime="175.00" waitingCount="9" stopTime="0.00" timeLoss="219.30" rerouteNo="0" devices="tripinfo_f_0_3.6" vType="type1" speedFactor="0.90" vaporized=""/>
    <tripinfo id="f_0_3.7" depart="58.00" departLane="np3_nt3_0" departPos="0.25" departSpeed="0.00" departDelay="0.73" arrival="359.00" arrivalLane="nt14_np11_0" arrivalPos="75.00" arrivalSpeed="11.75" duration="301.00" routeLength="950.84" waitingTime="185.00" waitingCount="7" stopTime="0.00" timeLoss="235.53" rerouteNo="0" devices="tripinfo_f_0_3.7" vType="type1" speedFactor="1.22" vaporized=""/>
    <tripinfo id="f_0_0.6" depart="82.00" departLane="np13_nt13_0" departPos="43.36" departSpeed="0.00" departDelay="0.18" arrival="369.00" arrivalLane="nt4_np5_0" arrivalPos="75.00" arrivalSpeed="16.74" duration="287.00" routeLength="1304.53" waitingTime="147.00" waitingCount="7" stopTime="0.00" timeLoss="190.85" rerouteNo="0" devices="tripinfo_f_0_0.6" vType="type1" speedFactor="0.95" vaporized=""/>
    <tripinfo id="f_0_3.8" depart="66.00" departLane="np3_nt3_0" departPos="3.42" departSpeed="0.00" departDelay="0.54" arrival="381.00" arrivalLane="nt14_np11_0" arrivalPos="75.00" arrivalSpeed="11.43" duration="315.00" routeLength="947.67" waitingTime="196.00" waitingCount="9" stopTime="0.00" timeLoss="245.38" rerouteNo="0" devices="tripinfo_f_0_3.8" vType="type1" speedFactor="1.14" vaporized=""/>
    <tripinfo id="f_0_3.12" depart="107.00" departLane="np3_nt3_0" departPos="33.65" departSpeed="0.00" departDelay="8.82" arrival="384.00" arrivalLane="nt14_np11_0" arrivalPos="75.00" arrivalSpeed="9.05" duration="277.00" routeLength="917.44" waitingTime="148.00" waitingCount="7" stopTime="0.00" timeLoss="198.93" rerouteNo="0" devices="tripinfo_f_0_3.12" vType="type1" speedFactor="0.99" vaporized=""/>
    <tripinfo id="f_0_3.11" depart="106.00" departLane="np3_nt3_0" departPos="25.30" departSpeed="0.00" departDelay="16.00" arrival="413.00" arrivalLane="nt14_np11_0" arrivalPos="75.00" arrivalSpeed="8.31" duration="307.00" routeLength="925.79" waitingTime="170.00" waitingCount="9" stopTime="0.00" timeLoss="225.17" rerouteNo="0" devices="tripinfo_f_0_3.11" vType="type1" speedFactor="0.94" vaporized=""/>
    <tripinfo id="f_0_3.9" depart="74.00" departLane="np3_nt3_0" departPos="0.47" departSpeed="0.00" departDelay="0.36" arrival="420.00" arrivalLane="nt14_np11_0" arrivalPos="75.00" arrivalSpeed="12.09" duration="346.00" routeLength="950.62" waitingTime="198.00" waitingCount="12" stopTime="0.00" timeLoss="279.85" rerouteNo="0" devices="tripinfo_f_0_3.9" vType="type1" speedFactor="1.20" vaporized=""/>
    <tripinfo id="f_0_2.5" depart="41.00" departLane="np2_nt2_0" departPos="62.32" departSpeed="0.00" departDelay="0.09" arrival="455.00" arrivalLane="nt15_np10_0" arrivalPos="75.00" arrivalSpeed="9.79" duration="414.00" routeLength="888.76" waitingTime="283.00" waitingCount="10" stopTime="0.00" timeLoss="334.33" rerouteNo="0" devices="tripinfo_f_0_2.5" vType="type1" speedFactor="0.93" vaporized=""/>
    <tripinfo id="f_0_3.10" depart="98.00" departLane="np3_nt3_0" departPos="0.00" departSpeed="0.00" departDelay="16.18" arrival="455.00" arrivalLane="nt14_np11_0" arrivalPos="75.00" arrivalSpeed="7.56" duration="357.00" routeLength="951.09" waitingTime="198.00" waitingCount="9" stopTime="0.00" timeLoss="254.92" rerouteNo="0" devices="tripinfo_f_0_3.10" vType="type1" speedFactor="0.78" vaporized=""/>
    <tripinfo id="f_0_3.13" depart="108.00" departLane="np3_nt3_0" departPos="0.00" departSpeed="0.00" departDelay="1.63" arrival="466.00" arrivalLane="nt14_np11_0" arrivalPos="75.00" arrivalSpeed="10.44" duration="358.00" routeLength="951.09" waitingTime="215.00" waitingCount="11" stopTime="0.00" timeLoss="284.22" rerouteNo="0" devices="tripinfo_f_0_3.13" vType="type1" speedFactor="1.07" vaporized=""/>
    <tripinfo id="f_0_3.14" depart="115.00" departLane="np3_nt3_0" departPos="0.00" departSpeed="0.00" departDelay="0.45" arrival="469.00" arrivalLane="nt14_np11_0" arrivalPos="75.00" arrivalSpeed="8.51" duration="354.00" routeLength="951.09" waitingTime="201.00" waitingCount="10" stopTime="0.00" timeLoss="270.76" rerouteNo="0" devices="tripinfo_f_0_3.14" vType="type1" speedFactor="0.95" vaporized=""/>
    <tripinfo id="f_0_3.15" depart="123.00" departLane="np3_nt3_0" departPos="0.00" departSpeed="0.00" departDelay="0.27" arrival="511.00" arrivalLane="nt14_np11_0" arrivalPos="75.00" arrivalSpeed="10.93" duration="388.00" routeLength="951.09" waitingTime="253.00" waitingCount="12" stopTime="0.00" timeLoss="321.01" rerouteNo="0" devices="tripinfo_f_0_3.15" vType="type1" speedFactor="1.19" vaporized=""/>
    <tripinfo id="f_0_3.16" depart="152.00" departLane="np3_nt3_0" departPos="0.00" departSpeed="0.00" departDelay="21.09" arrival="527.00" arrivalLane="nt14_np11_0" arrivalPos="75.00" arrivalSpeed="8.39" duration="375.00" routeLength="951.09" waitingTime="220.00" waitingCount="12" stopTime="0.00" timeLoss="292.65" rerouteNo="0" devices="tripinfo_f_0_3.16" vType="type1" speedFactor="0.97" vaporized=""/>
    <tripinfo id="f_0_3.17" depart="162.00" departLane="np3_nt3_0" departPos="0.00" departSpeed="0.00" departDelay="22.91" arrival="529.00" arrivalLane="nt14_np11_0" arrivalPos="75.00" arrivalSpeed="9.25" duration="367.00" routeLength="951.09" waitingTime="212.00" waitingCount="14" stopTime="0.00" timeLoss="289.68" rerouteNo="0" devices="tripinfo_f_0_3.17" vType="type1" speedFactor="1.03" vaporized=""/>
    <tripinfo id="f_0_3.18" depart="165.00" departLane="np3_nt3_0" departPos="0.00" departSpeed="0.00" departDelay="17.72" arrival="542.00" arrivalLane="nt14_np11_0" arrivalPos="75.00" arrivalSpeed="8.43" duration="377.00" routeLength="951.09" waitingTime="213.00" waitingCount="14" stopTime="0.00" timeLoss="293.98" rerouteNo="0" devices="tripinfo_f_0_3.18" vType="type1" speedFactor="0.96" vaporized=""/>
    <tripinfo id="f_0_3.19" depart="212.00" departLane="np3_nt3_0" departPos="0.00" departSpeed="0.00" departDelay="56.54" arrival="545.00" arrivalLane="nt14_np11_0" arrivalPos="75.00" arrivalSpeed="9.47" duration="333.00" routeLength="951.09" waitingTime="166.00" waitingCount="13" stopTime="0.00" timeLoss="243.77" rerouteNo="0" devices="tripinfo_f_0_3.19" vType="type1" speedFactor="0.89" vaporized=""/>
    <tripinfo id="f_0_3.20" depart="228.00" departLane="np3_nt3_0" departPos="0.00" departSpeed="0.00" departDelay="64.36" arrival="562.00" arrivalLane="nt14_np11_0" arrivalPos="75.00" arrivalSpeed="10.90" duration="334.00" routeLength="951.09" waitingTime="165.00" waitingCount="13" stopTime="0.00" timeLoss="256.20" rerouteNo="0" devices="tripinfo_f_0_3.20" vType="type1" speedFactor="1.03" vaporized=""/>
    <tripinfo id="f_0_3.21" depart="278.00" departLane="np3_nt3_0" departPos="0.16" departSpeed="0.00" departDelay="106.18" arrival="565.00" arrivalLane="nt14_np11_0" arrivalPos="75.00" arrivalSpeed="8.48" duration="287.00" routeLength="950.93" waitingTime="114.00" waitingCount="12" stopTime="0.00" timeLoss="205.18" rerouteNo="0" devices="tripinfo_f_0_3.21" vType="type1" speedFactor="0.98" vaporized=""/>
    <tripinfo id="f_0_3.22" depart="307.00" departLane="np3_nt3_0" departPos="0.00" departSpeed="0.00" departDelay="127.00" arrival="591.00" arrivalLane="nt14_np11_0" arrivalPos="75.00" arrivalSpeed="9.94" duration="284.00" routeLength="951.09" waitingTime="122.00" waitingCount="11" stopTime="0.00" timeLoss="210.72" rerouteNo="0" devices="tripinfo_f_0_3.22" vType="type1" speedFactor="1.09" vaporized=""/>
    <tripinfo id="f_0_3.23" depart="311.00" departLane="np3_nt3_0" departPos="0.00" departSpeed="0.00" departDelay="122.81" arrival="595.00" arrivalLane="nt14_np11_0" arrivalPos="75.00" arrivalSpeed="8.67" duration="284.00" routeLength="951.09" waitingTime="122.00" waitingCount="11" stopTime="0.00" timeLoss="199.17" rerouteNo="0" devices="tripinfo_f_0_3.23" vType="type1" speedFactor="0.95" vaporized=""/>
    <tripinfo id="f_0_3.24" depart="348.00" departLane="np3_nt3_0" departPos="0.00" departSpeed="0.00" departDelay="151.63" arrival="603.00" arrivalLane="nt14_np11_0" arrivalPos="75.00" arrivalSpeed="9.61" duration="255.00" routeLength="951.09" waitingTime="97.00" waitingCount="10" stopTime="0.00" timeLoss="165.74" rerouteNo="0" devices="tripinfo_f_0_3.24" vType="type1" speedFactor="0.89" vaporized=""/>
    <tripinfo id="f_0_3.25" depart="350.00" departLane="np3_nt3_0" departPos="0.00" departSpeed="0.00" departDelay="145.45" arrival="605.00" arrivalLane="nt14_np11_0" arrivalPos="75.00" arrivalSpeed="10.97" duration="255.00" routeLength="951.09" waitingTime="88.00" waitingCount="10" stopTime="0.00" timeLoss="175.89" rerouteNo="0" devices="tripinfo_f_0_3.25" vType="type1" speedFactor="1.01" vaporized=""/>
    <tripinfo id="f_0_3.26" depart="353.00" departLane="np3_nt3_0" departPos="0.00" departSpeed="0.00" departDelay="140.27" arrival="612.00" arrivalLane="nt14_np11_0" arrivalPos="75.00" arrivalSpeed="9.87" duration="259.00" routeLength="951.09" waitingTime="95.00" waitingCount="11" stopTime="0.00" timeLoss="185.98" rerouteNo="0" devices="tripinfo_f_0_3.26" vType="type1" speedFactor="1.10" vaporized=""/>
    <tripinfo id="f_0_3.27" depart="362.00" departLane="np3_nt3_0" departPos="0.00" departSpeed="0.00" departDelay="141.09" arrival="632.00" arrivalLane="nt14_np11_0" arrivalPos="75.00" arrivalSpeed="11.72" duration="270.00" routeLength="951.09" waitingTime="115.00" waitingCount="9" stopTime="0.00" timeLoss="195.49" rerouteNo="0" devices="tripinfo_f_0_3.27" vType="type1" speedFactor="1.08" vaporized=""/>
    <tripinfo id="f_0_3.28" depart="373.00" departLane="np3_nt3_0" departPos="0.00" departSpeed="0.00" departDelay="143.90" arrival="634.00" arrivalLane="nt14_np11_0" arrivalPos="75.00" arrivalSpeed="9.58" duration="261.00" routeLength="951.09" waitingTime="107.00" waitingCount="7" stopTime="0.00" timeLoss="185.98" rerouteNo="0" devices="tripinfo_f_0_3.28" vType="type1" speedFactor="1.07" vaporized=""/>
    <tripinfo id="f_0_3.33" depart="385.00" departLane="np3_nt3_0" departPos="64.52" departSpeed="0.00" departDelay="114.99" arrival="682.00" arrivalLane="nt14_np11_0" arrivalPos="75.00" arrivalSpeed="11.03" duration="297.00" routeLength="886.57" waitingTime="144.00" waitingCount="9" stopTime="0.00" timeLoss="223.65" rerouteNo="0" devices="tripinfo_f_0_3.33" vType="type1" speedFactor="1.02" vaporized=""/>
    <tripinfo id="f_0_3.30" depart="377.00" departLane="np3_nt3_0" departPos="14.78" departSpeed="0.00" departDelay="131.54" arrival="685.00" arrivalLane="nt14_np11_0" arrivalPos="75.00" arrivalSpeed="10.21" duration="308.00" routeLength="936.31" waitingTime="142.00" waitingCount="9" stopTime="0.00" timeLoss="223.78" rerouteNo="0" devices="tripinfo_f_0_3.30" vType="type1" speedFactor="0.94" vaporized=""/>
    <tripinfo id="f_0_3.29" depart="376.00" departLane="np3_nt3_0" departPos="3.43" departSpeed="0.00" departDelay="138.72" arrival="692.00" arrivalLane="nt14_np11_0" arrivalPos="75.00" arrivalSpeed="8.38" duration="316.00" routeLength="947.66" waitingTime="145.00" waitingCount="10" stopTime="0.00" timeLoss="235.25" rerouteNo="0" devices="tripinfo_f_0_3.29" vType="type1" speedFactor="0.98" vaporized=""/>
    <tripinfo id="f_0_3.31" depart="379.00" departLane="np3_nt3_0" departPos="0.00" departSpeed="0.00" departDelay="125.36" arrival="695.00" arrivalLane="nt14_np11_0" arrivalPos="75.00" arrivalSpeed="9.88" duration="316.00" routeLength="951.09" waitingTime="135.00" waitingCount="10" stopTime="0.00" timeLoss="230.97" rerouteNo="0" devices="tripinfo_f_0_3.31" vType="type1" speedFactor="0.95" vaporized=""/>
    <tripinfo id="f_0_3.32" depart="383.00" departLane="np3_nt3_0" departPos="0.40" departSpeed="0.00" departDelay="121.18" arrival="762.00" arrivalLane="nt14_np11_0" arrivalPos="75.00" arrivalSpeed="10.19" duration="379.00" routeLength="950.69" waitingTime="193.00" waitingCount="14" stopTime="0.00" timeLoss="296.27" rerouteNo="0" devices="tripinfo_f_0_3.32" vType="type1" speedFactor="0.97" vaporized=""/>
    <tripinfo id="f_0_3.34" depart="386.00" departLane="np3_nt3_0" departPos="0.00" departSpeed="0.00" departDelay="107.81" arrival="764.00" arrivalLane="nt14_np11_0" arrivalPos="75.00" arrivalSpeed="11.44" duration="378.00" routeLength="951.09" waitingTime="200.00" waitingCount="14" stopTime="0.00" timeLoss="308.87" rerouteNo="0" devices="tripinfo_f_0_3.34" vType="type1" speedFactor="1.16" vaporized=""/>
    <tripinfo id="f_0_3.35" depart="388.00" departLane="np3_nt3_0" departPos="0.00" departSpeed="0.00" departDelay="101.63" arrival="808.00" arrivalLane="nt14_np11_0" arrivalPos="75.00" arrivalSpeed="10.73" duration="420.00" routeLength="951.09" waitingTime="225.00" waitingCount="13" stopTime="0.00" timeLoss="338.00" rerouteNo="0" devices="tripinfo_f_0_3.35" vType="type1" speedFactor="0.98" vaporized=""/>
    <tripinfo id="f_0_3.36" depart="391.00" departLane="np3_nt3_0" departPos="0.00" departSpeed="0.00" departDelay="96.45" arrival="810.00" arrivalLane="nt14_np11_0" arrivalPos="75.00" arrivalSpeed="9.88" duration="419.00" routeLength="951.09" waitingTime="214.00" waitingCount="13" stopTime="0.00" timeLoss="342.42" rerouteNo="0" devices="tripinfo_f_0_3.36" vType="type1" speedFactor="1.05" vaporized=""/>
    <tripinfo id="f_1_3.0" depart="394.00" departLane="np3_nt3_0" departPos="2.68" departSpeed="0.00" departDelay="94.00" arrival="816.00" arrivalLane="nt14_np11_0" arrivalPos="75.00" arrivalSpeed="13.64" duration="422.00" routeLength="948.41" waitingTime="214.00" waitingCount="15" stopTime="0.00" timeLoss="357.62" rerouteNo="0" devices="tripinfo_f_1_3.0" vType="type1" speedFactor="1.25" vaporized=""/>
    <tripinfo id="f_1_3.1" depart="397.00" departLane="np3_nt3_0" departPos="0.00" departSpeed="0.00" departDelay="92.32" arrival="828.00" arrivalLane="nt14_np11_0" arrivalPos="75.00" arrivalSpeed="9.65" duration="431.00" routeLength="951.09" waitingTime="216.00" waitingCount="17" stopTime="0.00" timeLoss="346.37" rerouteNo="0" devices="tripinfo_f_1_3.1" vType="type1" speedFactor="0.95" vaporized=""/>
    <tripinfo id="f_1_3.2" depart="400.00" departLane="np3_nt3_0" departPos="0.00" departSpeed="0.00" departDelay="90.65" arrival="829.00" arrivalLane="nt14_np11_0" arrivalPos="75.00" arrivalSpeed="11.93" duration="429.00" routeLength="951.09" waitingTime="209.00" waitingCount="15" stopTime="0.00" timeLoss="356.08" rerouteNo="0" devices="tripinfo_f_1_3.2" vType="type1" speedFactor="1.09" vaporized=""/>
    <tripinfo id="f_1_3.3" depart="402.00" departLane="np3_nt3_0" departPos="0.00" departSpeed="0.00" departDelay="87.97" arrival="846.00" arrivalLane="nt14_np11_0" arrivalPos="75.00" arrivalSpeed="11.45" duration="444.00" routeLength="951.09" waitingTime="210.00" waitingCount="15" stopTime="0.00" timeLoss="372.47" rerouteNo="0" devices="tripinfo_f_1_3.3" vType="type1" speedFactor="1.12" vaporized=""/>
    <tripinfo id="f_1_3.4" depart="405.00" departLane="np3_nt3_0" departPos="1.19" departSpeed="0.00" departDelay="86.30" arrival="849.00" arrivalLane="nt14_np11_0" arrivalPos="75.00" arrivalSpeed="9.93" duration="444.00" routeLength="949.90" waitingTime="220.00" waitingCount="13" stopTime="0.00" timeLoss="366.94" rerouteNo="0" devices="tripinfo_f_1_3.4" vType="type1" speedFactor="1.04" vaporized=""/>
    <tripinfo id="f_1_3.5" depart="409.00" departLane="np3_nt3_0" departPos="0.00" departSpeed="0.00" departDelay="85.62" arrival="933.00" arrivalLane="nt14_np11_0" arrivalPos="75.00" arrivalSpeed="8.12" duration="524.00" routeLength="951.09" waitingTime="288.00" waitingCount="13" stopTime="0.00" timeLoss="434.47" rerouteNo="0" devices="tripinfo_f_1_3.5" vType="type1" speedFactor="0.89" vaporized=""/>
    <tripinfo id="f_1_3.6" depart="416.00" departLane="np3_nt3_0" departPos="0.00" departSpeed="0.00" departDelay="87.95" arrival="957.00" arrivalLane="nt14_np11_0" arrivalPos="75.00" arrivalSpeed="9.58" duration="541.00" routeLength="951.09" waitingTime="303.00" waitingCount="13" stopTime="0.00" timeLoss="455.29" rerouteNo="0" devices="tripinfo_f_1_3.6" vType="type1" speedFactor="0.93" vaporized=""/>
    <tripinfo id="f_1_3.7" depart="420.00" departLane="np3_nt3_0" departPos="0.00" departSpeed="0.00" departDelay="87.27" arrival="978.00" arrivalLane="nt14_np11_0" arrivalPos="75.00" arrivalSpeed="8.11" duration="558.00" routeLength="951.09" waitingTime="312.00" waitingCount="13" stopTime="0.00" timeLoss="473.20" rerouteNo="0" devices="tripinfo_f_1_3.7" vType="type1" speedFactor="0.95" vaporized=""/>
    <tripinfo id="f_1_3.8" depart="422.00" departLane="np3_nt3_0" departPos="0.00" departSpeed="0.00" departDelay="84.60" arrival="1011.00" arrivalLane="nt14_np11_0" arrivalPos="75.00" arrivalSpeed="10.27" duration="589.00" routeLength="951.09" waitingTime="346.00" waitingCount="14" stopTime="0.00" timeLoss="512.77" rerouteNo="0" devices="tripinfo_f_1_3.8" vType="type1" speedFactor="1.05" vaporized=""/>
    <tripinfo id="f_1_3.9" depart="425.00" departLane="np3_nt3_0" departPos="0.00" departSpeed="0.00" departDelay="82.92" arrival="1018.00" arrivalLane="nt14_np11_0" arrivalPos="75.00" arrivalSpeed="8.01" duration="593.00" routeLength="951.09" waitingTime="339.00" waitingCount="16" stopTime="0.00" timeLoss="507.90" rerouteNo="0" devices="tripinfo_f_1_3.9" vType="type1" speedFactor="0.94" vaporized=""/>
    <tripinfo id="f_1_3.10" depart="428.00" departLane="np3_nt3_0" departPos="0.00" departSpeed="0.00" departDelay="81.25" arrival="1019.00" arrivalLane="nt14_np11_0" arrivalPos="75.00" arrivalSpeed="12.33" duration="591.00" routeLength="951.09" waitingTime="332.00" waitingCount="15" stopTime="0.00" timeLoss="520.16" rerouteNo="0" devices="tripinfo_f_1_3.10" vType="type1" speedFactor="1.12" vaporized=""/>
    <tripinfo id="f_1_3.11" depart="431.00" departLane="np3_nt3_0" departPos="3.77" departSpeed="0.00" departDelay="79.57" arrival="1021.00" arrivalLane="nt14_np11_0" arrivalPos="75.00" arrivalSpeed="9.83" duration="590.00" routeLength="947.32" waitingTime="329.00" waitingCount="13" stopTime="0.00" timeLoss="513.60" rerouteNo="0" devices="tripinfo_f_1_3.11" vType="type1" speedFactor="1.04" vaporized=""/>
    <tripinfo id="f_3_5.0" depart="900.00" departLane="np8_nt16_0" departPos="2.59" departSpeed="0.00" departDelay="0.00" arrival="1032.00" arrivalLane="nt1_np16_0" arrivalPos="67.80" arrivalSpeed="19.25" duration="132.00" routeLength="1345.29" waitingTime="9.00" waitingCount="3" stopTime="0.00" timeLoss="35.21" rerouteNo="0" devices="tripinfo_f_3_5.0" vType="type1" speedFactor="0.97" vaporized=""/>
    <tripinfo id="f_3_5.1" depart="922.00" departLane="np8_nt16_0" departPos="71.85" departSpeed="0.00" departDelay="0.31" arrival="1037.00" arrivalLane="nt1_np16_0" arrivalPos="67.80" arrivalSpeed="19.67" duration="115.00" routeLength="1276.03" waitingTime="8.00" waitingCount="2" stopTime="0.00" timeLoss="29.57" rerouteNo="0" devices="tripinfo_f_3_5.1" vType="type1" speedFactor="1.05" vaporized=""/>
    <tripinfo id="f_1_3.17" depart="444.00" departLane="np3_nt3_0" departPos="61.38" departSpeed="0.00" departDelay="64.52" arrival="1066.00" arrivalLane="nt14_np11_0" arrivalPos="75.00" arrivalSpeed="10.49" duration="622.00" routeLength="889.71" waitingTime="374.00" waitingCount="16" stopTime="0.00" timeLoss="549.76" rerouteNo="0" devices="tripinfo_f_1_3.17" vType="type1" speedFactor="1.02" vaporized=""/>
    <tripinfo id="f_1_3.13" depart="434.00" departLane="np3_nt3_0" departPos="8.31" departSpeed="0.00" departDelay="73.22" arrival="1068.00" arrivalLane="nt14_np11_0" arrivalPos="75.00" arrivalSpeed="12.77" duration="634.00" routeLength="942.78" waitingTime="374.00" waitingCount="16" stopTime="0.00" timeLoss="566.56" rerouteNo="0" devices="tripinfo_f_1_3.13" vType="type1" speedFactor="1.18" vaporized=""/>
    <tripinfo id="f_3_5.2" depart="944.00" departLane="np8_nt16_0" departPos="34.34" departSpeed="0.00" departDelay="0.63" arrival="1098.00" arrivalLane="nt1_np16_0" arrivalPos="67.80" arrivalSpeed="17.94" duration="154.00" routeLength="1313.54" waitingTime="30.00" waitingCount="3" stopTime="0.00" timeLoss="52.71" rerouteNo="0" devices="tripinfo_f_3_5.2" vType="type1" speedFactor="0.90" vaporized=""/>
    <tripinfo id="f_3_5.3" depart="966.00" departLane="np8_nt16_0" departPos="67.69" departSpeed="0.00" departDelay="0.94" arrival="1103.00" arrivalLane="nt1_np16_0" arrivalPos="67.80" arrivalSpeed="20.44" duration="137.00" routeLength="1280.19" waitingTime="11.00" waitingCount="4" stopTime="0.00" timeLoss="57.99" rerouteNo="0" devices="tripinfo_f_3_5.3" vType="type1" speedFactor="1.14" vaporized=""/>