<?xml version="1.0" encoding="UTF-8"?>

<!-- generated on 2023-08-30 12:22:32 by Eclipse SUMO libsumo Version 1.18.0
<configuration xmlns:xsi="http://www.w3.org/2001/XMLSchema-instance" xsi:noNamespaceSchemaLocation="http://sumo.dlr.de/xsd/libsumoConfiguration.xsd">

    <input>
        <net-file value="/home/stefan/RESCO/./environments/arterial4x4/arterial4x4.net.xml"/>
        <route-files value="/home/stefan/RESCO/./environments/arterial4x4/arterial4x4_12.rou.xml"/>
    </input>

    <output>
        <tripinfo-output value="/home/stefan/results/ITRPO-tr0-arterial4x4-0-drq_norm-wait_norm/tripinfo_12.xml"/>
        <tripinfo-output.write-unfinished value="true"/>
    </output>

    <processing>
        <time-to-teleport value="-1"/>
    </processing>

    <report>
        <no-warnings value="True"/>
        <no-step-log value="True"/>
    </report>

    <random_number>
        <random value="true"/>
    </random_number>

</configuration>
-->

<tripinfos xmlns:xsi="http://www.w3.org/2001/XMLSchema-instance" xsi:noNamespaceSchemaLocation="http://sumo.dlr.de/xsd/tripinfo_file.xsd">
    <tripinfo id="f_0_3.0" depart="0.00" departLane="np3_nt3_0" departPos="0.56" departSpeed="0.00" departDelay="0.00" arrival="96.00" arrivalLane="nt14_np11_0" arrivalPos="75.00" arrivalSpeed="11.33" duration="96.00" routeLength="950.53" waitingTime="7.00" waitingCount="2" stopTime="0.00" timeLoss="22.60" rerouteNo="0" devices="tripinfo_f_0_3.0" vType="type1" speedFactor="1.10" vaporized=""/>
    <tripinfo id="f_0_3.1" depart="9.00" departLane="np3_nt3_0" departPos="21.10" departSpeed="0.00" departDelay="0.82" arrival="148.00" arrivalLane="nt14_np11_0" arrivalPos="75.00" arrivalSpeed="8.23" duration="139.00" routeLength="929.99" waitingTime="28.00" waitingCount="3" stopTime="0.00" timeLoss="53.39" rerouteNo="0" devices="tripinfo_f_0_3.1" vType="type1" speedFactor="0.91" vaporized=""/>
    <tripinfo id="f_0_3.2" depart="17.00" departLane="np3_nt3_0" departPos="25.41" departSpeed="0.00" departDelay="0.64" arrival="173.00" arrivalLane="nt14_np11_0" arrivalPos="75.00" arrivalSpeed="9.22" duration="156.00" routeLength="925.68" waitingTime="52.00" waitingCount="2" stopTime="0.00" timeLoss="70.93" rerouteNo="0" devices="tripinfo_f_0_3.2" vType="type1" speedFactor="0.92" vaporized=""/>
    <tripinfo id="f_0_3.3" depart="25.00" departLane="np3_nt3_0" departPos="27.35" departSpeed="0.00" departDelay="0.45" arrival="175.00" arrivalLane="nt14_np11_0" arrivalPos="75.00" arrivalSpeed="10.52" duration="150.00" routeLength="923.74" waitingTime="46.00" waitingCount="3" stopTime="0.00" timeLoss="75.18" rerouteNo="0" devices="tripinfo_f_0_3.3" vType="type1" speedFactor="1.04" vaporized=""/>
    <tripinfo id="f_0_2.0" depart="0.00" departLane="np2_nt2_0" departPos="55.76" departSpeed="0.00" departDelay="0.00" arrival="178.00" arrivalLane="nt15_np10_0" arrivalPos="75.00" arrivalSpeed="10.12" duration="178.00" routeLength="895.32" waitingTime="71.00" waitingCount="5" stopTime="0.00" timeLoss="97.74" rerouteNo="0" devices="tripinfo_f_0_2.0" vType="type1" speedFactor="0.93" vaporized=""/>
    <tripinfo id="f_0_2.1" depart="9.00" departLane="np2_nt2_0" departPos="11.25" departSpeed="0.00" departDelay="0.82" arrival="179.00" arrivalLane="nt15_np10_0" arrivalPos="75.00" arrivalSpeed="10.82" duration="170.00" routeLength="939.83" waitingTime="65.00" waitingCount="4" stopTime="0.00" timeLoss="104.30" rerouteNo="0" devices="tripinfo_f_0_2.1" vType="type1" speedFactor="1.19" vaporized=""/>
    <tripinfo id="f_0_3.4" depart="33.00" departLane="np3_nt3_0" departPos="45.51" departSpeed="0.00" departDelay="0.27" arrival="232.00" arrivalLane="nt14_np11_0" arrivalPos="75.00" arrivalSpeed="9.06" duration="199.00" routeLength="905.58" waitingTime="90.00" waitingCount="7" stopTime="0.00" timeLoss="124.26" rerouteNo="0" devices="tripinfo_f_0_3.4" vType="type1" speedFactor="1.01" vaporized=""/>
    <tripinfo id="f_0_3.5" depart="41.00" departLane="np3_nt3_0" departPos="22.85" departSpeed="0.00" departDelay="0.09" arrival="235.00" arrivalLane="nt14_np11_0" arrivalPos="75.00" arrivalSpeed="8.06" duration="194.00" routeLength="928.24" waitingTime="74.00" waitingCount="7" stopTime="0.00" timeLoss="111.71" rerouteNo="0" devices="tripinfo_f_0_3.5" vType="type1" speedFactor="0.95" vaporized=""/>
    <tripinfo id="f_0_2.2" depart="17.00" departLane="np2_nt2_0" departPos="35.39" departSpeed="0.00" departDelay="0.64" arrival="251.00" arrivalLane="nt15_np10_0" arrivalPos="75.00" arrivalSpeed="10.70" duration="234.00" routeLength="915.69" waitingTime="133.00" waitingCount="5" stopTime="0.00" timeLoss="162.34" rerouteNo="0" devices="tripinfo_f_0_2.2" vType="type1" speedFactor="1.08" vaporized=""/>
    <tripinfo id="f_0_0.0" depart="0.00" departLane="np13_nt13_0" departPos="13.31" departSpeed="0.00" departDelay="0.00" arrival="257.00" arrivalLane="nt4_np5_0" arrivalPos="75.00" arrivalSpeed="17.23" duration="257.00" routeLength="1334.58" waitingTime="117.00" waitingCount="5" stopTime="0.00" timeLoss="150.07" rerouteNo="0" devices="tripinfo_f_0_0.0" vType="type1" speedFactor="0.86" vaporized=""/>
    <tripinfo id="f_0_2.3" depart="25.00" departLane="np2_nt2_0" departPos="40.51" departSpeed="0.00" departDelay="0.45" arrival="272.00" arrivalLane="nt15_np10_0" arrivalPos="75.00" arrivalSpeed="9.67" duration="247.00" routeLength="910.57" waitingTime="141.00" waitingCount="5" stopTime="0.00" timeLoss="172.41" rerouteNo="0" devices="tripinfo_f_0_2.3" vType="type1" speedFactor="1.02" vaporized=""/>
    <tripinfo id="f_0_0.1" depart="14.00" departLane="np13_nt13_0" departPos="20.46" departSpeed="0.00" departDelay="0.36" arrival="275.00" arrivalLane="nt4_np5_0" arrivalPos="75.00" arrivalSpeed="17.59" duration="261.00" routeLength="1327.43" waitingTime="119.00" waitingCount="6" stopTime="0.00" timeLoss="167.08" rerouteNo="0" devices="tripinfo_f_0_0.1" vType="type1" speedFactor="0.98" vaporized=""/>
    <tripinfo id="f_0_0.2" depart="28.00" departLane="np13_nt13_0" departPos="28.09" departSpeed="0.00" departDelay="0.73" arrival="278.00" arrivalLane="nt4_np5_0" arrivalPos="75.00" arrivalSpeed="18.43" duration="250.00" routeLength="1319.80" waitingTime="114.00" waitingCount="6" stopTime="0.00" timeLoss="154.88" rerouteNo="0" devices="tripinfo_f_0_0.2" vType="type1" speedFactor="0.97" vaporized=""/>
    <tripinfo id="f_0_3.6" depart="50.00" departLane="np3_nt3_0" departPos="17.74" departSpeed="0.00" departDelay="0.91" arrival="309.00" arrivalLane="nt14_np11_0" arrivalPos="75.00" arrivalSpeed="7.50" duration="259.00" routeLength="933.35" waitingTime="126.00" waitingCount="7" stopTime="0.00" timeLoss="167.76" rerouteNo="0" devices="tripinfo_f_0_3.6" vType="type1" speedFactor="0.86" vaporized=""/>
    <tripinfo id="f_0_3.7" depart="58.00" departLane="np3_nt3_0" departPos="10.88" departSpeed="0.00" departDelay="0.73" arrival="311.00" arrivalLane="nt14_np11_0" arrivalPos="75.00" arrivalSpeed="7.26" duration="253.00" routeLength="940.21" waitingTime="119.00" waitingCount="7" stopTime="0.00" timeLoss="161.18" rerouteNo="0" devices="tripinfo_f_0_3.7" vType="type1" speedFactor="0.86" vaporized=""/>
    <tripinfo id="f_0_0.3" depart="41.00" departLane="np13_nt13_0" departPos="13.89" departSpeed="0.00" departDelay="0.09" arrival="320.00" arrivalLane="nt4_np5_0" arrivalPos="75.00" arrivalSpeed="15.28" duration="279.00" routeLength="1334.00" waitingTime="123.00" waitingCount="5" stopTime="0.00" timeLoss="161.92" rerouteNo="0" devices="tripinfo_f_0_0.3" vType="type1" speedFactor="0.79" vaporized=""/>
    <tripinfo id="f_0_3.8" depart="66.00" departLane="np3_nt3_0" departPos="3.72" departSpeed="0.00" departDelay="0.54" arrival="326.00" arrivalLane="nt14_np11_0" arrivalPos="75.00" arrivalSpeed="11.03" duration="260.00" routeLength="947.37" waitingTime="135.00" waitingCount="7" stopTime="0.00" timeLoss="182.76" rerouteNo="0" devices="tripinfo_f_0_3.8" vType="type1" speedFactor="1.03" vaporized=""/>
    <tripinfo id="f_0_3.9" depart="74.00" departLane="np3_nt3_0" departPos="21.94" departSpeed="0.00" departDelay="0.36" arrival="330.00" arrivalLane="nt14_np11_0" arrivalPos="75.00" arrivalSpeed="8.61" duration="256.00" routeLength="929.15" waitingTime="124.00" waitingCount="7" stopTime="0.00" timeLoss="172.35" rerouteNo="0" devices="tripinfo_f_0_3.9" vType="type1" speedFactor="0.94" vaporized=""/>
    <tripinfo id="f_0_3.10" depart="82.00" departLane="np3_nt3_0" departPos="19.15" departSpeed="0.00" departDelay="0.18" arrival="332.00" arrivalLane="nt14_np11_0" arrivalPos="75.00" arrivalSpeed="8.09" duration="250.00" routeLength="931.94" waitingTime="129.00" waitingCount="7" stopTime="0.00" timeLoss="167.69" rerouteNo="0" devices="tripinfo_f_0_3.10" vType="type1" speedFactor="0.95" vaporized=""/>
    <tripinfo id="f_0_3.11" depart="90.00" departLane="np3_nt3_0" departPos="17.52" departSpeed="0.00" departDelay="0.00" arrival="334.00" arrivalLane="nt14_np11_0" arrivalPos="75.00" arrivalSpeed="9.65" duration="244.00" routeLength="933.57" waitingTime="125.00" waitingCount="8" stopTime="0.00" timeLoss="167.72" rerouteNo="0" devices="tripinfo_f_0_3.11" vType="type1" speedFactor="1.02" vaporized=""/>
    <tripinfo id="f_0_0.4" depart="55.00" departLane="np13_nt13_0" departPos="35.55" departSpeed="0.00" departDelay="0.46" arrival="342.00" arrivalLane="nt4_np5_0" arrivalPos="75.00" arrivalSpeed="19.23" duration="287.00" routeLength="1312.34" waitingTime="143.00" waitingCount="5" stopTime="0.00" timeLoss="194.74" rerouteNo="0" devices="tripinfo_f_0_0.4" vType="type1" speedFactor="1.00" vaporized=""/>
    <tripinfo id="f_0_0.5" depart="69.00" departLane="np13_nt13_0" departPos="24.97" departSpeed="0.00" departDelay="0.82" arrival="344.00" arrivalLane="nt4_np5_0" arrivalPos="75.00" arrivalSpeed="16.40" duration="275.00" routeLength="1322.92" waitingTime="124.00" waitingCount="6" stopTime="0.00" timeLoss="172.96" rerouteNo="0" devices="tripinfo_f_0_0.5" vType="type1" speedFactor="0.90" vaporized=""/>
    <tripinfo id="f_0_2.4" depart="33.00" departLane="np2_nt2_0" departPos="30.77" departSpeed="0.00" departDelay="0.27" arrival="357.00" arrivalLane="nt15_np10_0" arrivalPos="75.00" arrivalSpeed="9.97" duration="324.00" routeLength="920.31" waitingTime="214.00" waitingCount="7" stopTime="0.00" timeLoss="245.51" rerouteNo="0" devices="tripinfo_f_0_2.4" vType="type1" speedFactor="0.99" vaporized=""/>
    <tripinfo id="f_0_3.12" depart="99.00" departLane="np3_nt3_0" departPos="1.89" departSpeed="0.00" departDelay="0.82" arrival="372.00" arrivalLane="nt14_np11_0" arrivalPos="75.00" arrivalSpeed="10.84" duration="273.00" routeLength="949.20" waitingTime="157.00" waitingCount="6" stopTime="0.00" timeLoss="198.08" rerouteNo="0" devices="tripinfo_f_0_3.12" vType="type1" speedFactor="1.07" vaporized=""/>
    <tripinfo id="f_0_2.5" depart="41.00" departLane="np2_nt2_0" departPos="57.85" departSpeed="0.00" departDelay="0.09" arrival="375.00" arrivalLane="nt15_np10_0" arrivalPos="75.00" arrivalSpeed="7.23" duration="334.00" routeLength="893.23" waitingTime="204.00" waitingCount="8" stopTime="0.00" timeLoss="242.17" rerouteNo="0" devices="tripinfo_f_0_2.5" vType="type1" speedFactor="0.81" vaporized=""/>
    <tripinfo id="f_0_3.13" depart="107.00" departLane="np3_nt3_0" departPos="18.96" departSpeed="0.00" departDelay="0.63" arrival="376.00" arrivalLane="nt14_np11_0" arrivalPos="75.00" arrivalSpeed="8.89" duration="269.00" routeLength="932.13" waitingTime="144.00" waitingCount="7" stopTime="0.00" timeLoss="182.21" rerouteNo="0" devices="tripinfo_f_0_3.13" vType="type1" speedFactor="0.90" vaporized=""/>
    <tripinfo id="f_0_1.0" depart="0.00" departLane="np16_nt1_0" departPos="30.53" departSpeed="0.00" departDelay="0.00" arrival="428.00" arrivalLane="nt16_np8_0" arrivalPos="75.00" arrivalSpeed="17.17" duration="428.00" routeLength="1317.35" waitingTime="269.00" waitingCount="12" stopTime="0.00" timeLoss="326.73" rerouteNo="0" devices="tripinfo_f_0_1.0" vType="type1" speedFactor="0.90" vaporized=""/>
    <tripinfo id="f_0_1.1" depart="14.00" departLane="np16_nt1_0" departPos="53.67" departSpeed="0.00" departDelay="0.36" arrival="430.00" arrivalLane="nt16_np8_0" arrivalPos="75.00" arrivalSpeed="16.79" duration="416.00" routeLength="1294.21" waitingTime="247.00" waitingCount="12" stopTime="0.00" timeLoss="317.18" rerouteNo="0" devices="tripinfo_f_0_1.1" vType="type1" speedFactor="0.92" vaporized=""/>
    <tripinfo id="f_0_1.2" depart="28.00" departLane="np16_nt1_0" departPos="45.11" departSpeed="0.00" departDelay="0.73" arrival="431.00" arrivalLane="nt16_np8_0" arrivalPos="75.00" arrivalSpeed="20.64" duration="403.00" routeLength="1302.77" waitingTime="240.00" waitingCount="14" stopTime="0.00" timeLoss="323.92" rerouteNo="0" devices="tripinfo_f_0_1.2" vType="type1" speedFactor="1.15" vaporized=""/>
    <tripinfo id="f_0_1.3" depart="41.00" departLane="np16_nt1_0" departPos="49.89" departSpeed="0.00" departDelay="0.09" arrival="433.00" arrivalLane="nt16_np8_0" arrivalPos="75.00" arrivalSpeed="19.83" duration="392.00" routeLength="1297.99" waitingTime="226.00" waitingCount="12" stopTime="0.00" timeLoss="303.94" rerouteNo="0" devices="tripinfo_f_0_1.3" vType="type1" speedFactor="1.04" vaporized=""/>
    <tripinfo id="f_0_3.14" depart="115.00" departLane="np3_nt3_0" departPos="13.98" departSpeed="0.00" departDelay="0.45" arrival="452.00" arrivalLane="nt14_np11_0" arrivalPos="75.00" arrivalSpeed="9.51" duration="337.00" routeLength="937.11" waitingTime="212.00" waitingCount="11" stopTime="0.00" timeLoss="263.21" rerouteNo="0" devices="tripinfo_f_0_3.14" vType="type1" speedFactor="1.07" vaporized=""/>
    <tripinfo id="f_0_3.15" depart="123.00" departLane="np3_nt3_0" departPos="0.20" departSpeed="0.00" departDelay="0.27" arrival="455.00" arrivalLane="nt14_np11_0" arrivalPos="75.00" arrivalSpeed="8.25" duration="332.00" routeLength="950.89" waitingTime="198.00" waitingCount="10" stopTime="0.00" timeLoss="248.36" rerouteNo="0" devices="tripinfo_f_0_3.15" vType="type1" speedFactor="0.96" vaporized=""/>
    <tripinfo id="f_0_3.16" depart="131.00" departLane="np3_nt3_0" departPos="9.33" departSpeed="0.00" departDelay="0.09" arrival="457.00" arrivalLane="nt14_np11_0" arrivalPos="75.00" arrivalSpeed="12.09" duration="326.00" routeLength="941.76" waitingTime="191.00" waitingCount="10" stopTime="0.00" timeLoss="259.89" rerouteNo="0" devices="tripinfo_f_0_3.16" vType="type1" speedFactor="1.21" vaporized=""/>
    <tripinfo id="f_0_2.6" depart="50.00" departLane="np2_nt2_0" departPos="11.06" departSpeed="0.00" departDelay="0.91" arrival="459.00" arrivalLane="nt15_np10_0" arrivalPos="75.00" arrivalSpeed="8.77" duration="409.00" routeLength="940.02" waitingTime="235.00" waitingCount="15" stopTime="0.00" timeLoss="318.25" rerouteNo="0" devices="tripinfo_f_0_2.6" vType="type1" speedFactor="0.88" vaporized=""/>
    <tripinfo id="f_0_3.17" depart="140.00" departLane="np3_nt3_0" departPos="0.66" departSpeed="0.00" departDelay="0.91" arrival="459.00" arrivalLane="nt14_np11_0" arrivalPos="75.00" arrivalSpeed="9.89" duration="319.00" routeLength="950.43" waitingTime="170.00" waitingCount="10" stopTime="0.00" timeLoss="241.67" rerouteNo="0" devices="tripinfo_f_0_3.17" vType="type1" speedFactor="1.03" vaporized=""/>
    <tripinfo id="f_0_2.7" depart="58.00" departLane="np2_nt2_0" departPos="40.10" departSpeed="0.00" departDelay="0.73" arrival="461.00" arrivalLane="nt15_np10_0" arrivalPos="75.00" arrivalSpeed="11.98" duration="403.00" routeLength="910.98" waitingTime="231.00" waitingCount="16" stopTime="0.00" timeLoss="336.37" rerouteNo="0" devices="tripinfo_f_0_2.7" vType="type1" speedFactor="1.15" vaporized=""/>
    <tripinfo id="f_0_3.18" depart="148.00" departLane="np3_nt3_0" departPos="0.00" departSpeed="0.00" departDelay="0.72" arrival="466.00" arrivalLane="nt14_np11_0" arrivalPos="75.00" arrivalSpeed="11.31" duration="318.00" routeLength="951.09" waitingTime="184.00" waitingCount="9" stopTime="0.00" timeLoss="249.61" rerouteNo="0" devices="tripinfo_f_0_3.18" vType="type1" speedFactor="1.17" vaporized=""/>
    <tripinfo id="f_0_3.19" depart="158.00" departLane="np3_nt3_0" departPos="0.00" departSpeed="0.00" departDelay="2.54" arrival="470.00" arrivalLane="nt14_np11_0" arrivalPos="75.00" arrivalSpeed="9.21" duration="312.00" routeLength="951.09" waitingTime="167.00" waitingCount="14" stopTime="0.00" timeLoss="229.19" rerouteNo="0" devices="tripinfo_f_0_3.19" vType="type1" speedFactor="0.96" vaporized=""/>
    <tripinfo id="f_0_3.20" depart="212.00" departLane="np3_nt3_0" departPos="0.00" departSpeed="0.00" departDelay="48.36" arrival="473.00" arrivalLane="nt14_np11_0" arrivalPos="75.00" arrivalSpeed="9.65" duration="261.00" routeLength="951.09" waitingTime="103.00" waitingCount="12" stopTime="0.00" timeLoss="169.62" rerouteNo="0" devices="tripinfo_f_0_3.20" vType="type1" speedFactor="0.88" vaporized=""/>
    <tripinfo id="f_0_3.21" depart="216.00" departLane="np3_nt3_0" departPos="0.00" departSpeed="0.00" departDelay="44.18" arrival="474.00" arrivalLane="nt14_np11_0" arrivalPos="75.00" arrivalSpeed="10.49" duration="258.00" routeLength="951.09" waitingTime="104.00" waitingCount="12" stopTime="0.00" timeLoss="182.80" rerouteNo="0" devices="tripinfo_f_0_3.21" vType="type1" speedFactor="1.06" vaporized=""/>
    <tripinfo id="f_0_3.22" depart="233.00" departLane="np3_nt3_0" departPos="0.00" departSpeed="0.00" departDelay="53.00" arrival="477.00" arrivalLane="nt14_np11_0" arrivalPos="75.00" arrivalSpeed="9.35" duration="244.00" routeLength="951.09" waitingTime="87.00" waitingCount="12" stopTime="0.00" timeLoss="160.09" rerouteNo="0" devices="tripinfo_f_0_3.22" vType="type1" speedFactor="0.95" vaporized=""/>
    <tripinfo id="f_0_3.23" depart="247.00" departLane="np3_nt3_0" departPos="0.00" departSpeed="0.00" departDelay="58.81" arrival="499.00" arrivalLane="nt14_np11_0" arrivalPos="75.00" arrivalSpeed="7.96" duration="252.00" routeLength="951.09" waitingTime="100.00" waitingCount="11" stopTime="0.00" timeLoss="160.99" rerouteNo="0" devices="tripinfo_f_0_3.23" vType="type1" speedFactor="0.88" vaporized=""/>
    <tripinfo id="f_0_3.24" depart="250.00" departLane="np3_nt3_0" departPos="0.00" departSpeed="0.00" departDelay="53.63" arrival="512.00" arrivalLane="nt14_np11_0" arrivalPos="75.00" arrivalSpeed="8.50" duration="262.00" routeLength="951.09" waitingTime="103.00" waitingCount="10" stopTime="0.00" timeLoss="178.73" rerouteNo="0" devices="tripinfo_f_0_3.24" vType="type1" speedFactor="0.96" vaporized=""/>
    <tripinfo id="f_0_3.25" depart="268.00" departLane="np3_nt3_0" departPos="0.00" departSpeed="0.00" departDelay="63.45" arrival="514.00" arrivalLane="nt14_np11_0" arrivalPos="75.00" arrivalSpeed="10.95" duration="246.00" routeLength="951.09" waitingTime="90.00" waitingCount="10" stopTime="0.00" timeLoss="172.33" rerouteNo="0" devices="tripinfo_f_0_3.25" vType="type1" speedFactor="1.10" vaporized=""/>
    <tripinfo id="f_0_3.26" depart="277.00" departLane="np3_nt3_0" departPos="0.00" departSpeed="0.00" departDelay="64.27" arrival="518.00" arrivalLane="nt14_np11_0" arrivalPos="75.00" arrivalSpeed="8.55" duration="241.00" routeLength="951.09" waitingTime="84.00" waitingCount="10" stopTime="0.00" timeLoss="153.12" rerouteNo="0" devices="tripinfo_f_0_3.26" vType="type1" speedFactor="0.92" vaporized=""/>
    <tripinfo id="f_0_3.27" depart="281.00" departLane="np3_nt3_0" departPos="0.00" departSpeed="0.00" departDelay="60.09" arrival="519.00" arrivalLane="nt14_np11_0" arrivalPos="75.00" arrivalSpeed="11.83" duration="238.00" routeLength="951.09" waitingTime="80.00" waitingCount="11" stopTime="0.00" timeLoss="167.08" rerouteNo="0" devices="tripinfo_f_0_3.27" vType="type1" speedFactor="1.13" vaporized=""/>
    <tripinfo id="f_0_3.28" depart="293.00" departLane="np3_nt3_0" departPos="1.09" departSpeed="0.00" departDelay="63.90" arrival="527.00" arrivalLane="nt14_np11_0" arrivalPos="75.00" arrivalSpeed="11.53" duration="234.00" routeLength="950.00" waitingTime="76.00" waitingCount="11" stopTime="0.00" timeLoss="162.33" rerouteNo="0" devices="tripinfo_f_0_3.28" vType="type1" speedFactor="1.12" vaporized=""/>
    <tripinfo id="f_0_3.29" depart="307.00" departLane="np3_nt3_0" departPos="0.00" departSpeed="0.00" departDelay="69.72" arrival="555.00" arrivalLane="nt14_np11_0" arrivalPos="75.00" arrivalSpeed="9.86" duration="248.00" routeLength="951.09" waitingTime="92.00" waitingCount="9" stopTime="0.00" timeLoss="160.12" rerouteNo="0" devices="tripinfo_f_0_3.29" vType="type1" speedFactor="0.91" vaporized=""/>
    <tripinfo id="f_0_3.30" depart="317.00" departLane="np3_nt3_0" departPos="0.00" departSpeed="0.00" departDelay="71.54" arrival="562.00" arrivalLane="nt14_np11_0" arrivalPos="75.00" arrivalSpeed="10.82" duration="245.00" routeLength="951.09" waitingTime="93.00" waitingCount="8" stopTime="0.00" timeLoss="175.06" rerouteNo="0" devices="tripinfo_f_0_3.30" vType="type1" speedFactor="1.15" vaporized=""/>
    <tripinfo id="f_0_3.31" depart="320.00" departLane="np3_nt3_0" departPos="0.00" departSpeed="0.00" departDelay="66.36" arrival="573.00" arrivalLane="nt14_np11_0" arrivalPos="75.00" arrivalSpeed="9.57" duration="253.00" routeLength="951.09" waitingTime="93.00" waitingCount="11" stopTime="0.00" timeLoss="162.56" rerouteNo="0" devices="tripinfo_f_0_3.31" vType="type1" speedFactor="0.88" vaporized=""/>
    <tripinfo id="f_1_3.2" depart="360.00" departLane="np3_nt3_0" departPos="64.30" departSpeed="0.00" departDelay="50.65" arrival="575.00" arrivalLane="nt14_np11_0" arrivalPos="75.00" arrivalSpeed="10.29" duration="215.00" routeLength="886.79" waitingTime="79.00" waitingCount="10" stopTime="0.00" timeLoss="143.15" rerouteNo="0" devices="tripinfo_f_1_3.2" vType="type1" speedFactor="1.04" vaporized=""/>
    <tripinfo id="f_0_3.32" depart="333.00" departLane="np3_nt3_0" departPos="0.00" departSpeed="0.00" departDelay="71.18" arrival="632.00" arrivalLane="nt14_np11_0" arrivalPos="75.00" arrivalSpeed="8.74" duration="299.00" routeLength="951.09" waitingTime="144.00" waitingCount="9" stopTime="0.00" timeLoss="220.63" rerouteNo="0" devices="tripinfo_f_0_3.32" vType="type1" speedFactor="1.02" vaporized=""/>
    <tripinfo id="f_0_3.33" depart="335.00" departLane="np3_nt3_0" departPos="0.00" departSpeed="0.00" departDelay="64.99" arrival="669.00" arrivalLane="nt14_np11_0" arrivalPos="75.00" arrivalSpeed="10.03" duration="334.00" routeLength="951.09" waitingTime="165.00" waitingCount="9" stopTime="0.00" timeLoss="251.94" rerouteNo="0" devices="tripinfo_f_0_3.33" vType="type1" speedFactor="0.98" vaporized=""/>
    <tripinfo id="f_0_3.34" depart="339.00" departLane="np3_nt3_0" departPos="0.00" departSpeed="0.00" departDelay="60.81" arrival="678.00" arrivalLane="nt14_np11_0" arrivalPos="75.00" arrivalSpeed="8.49" duration="339.00" routeLength="951.09" waitingTime="158.00" waitingCount="10" stopTime="0.00" timeLoss="256.28" rerouteNo="0" devices="tripinfo_f_0_3.34" vType="type1" speedFactor="0.96" vaporized=""/>
    <tripinfo id="f_1_3.6" depart="369.00" departLane="np3_nt3_0" departPos="62.13" departSpeed="0.00" departDelay="40.95" arrival="710.00" arrivalLane="nt14_np11_0" arrivalPos="75.00" arrivalSpeed="10.09" duration="341.00" routeLength="888.96" waitingTime="187.00" waitingCount="9" stopTime="0.00" timeLoss="264.70" rerouteNo="0" devices="tripinfo_f_1_3.6" vType="type1" speedFactor="0.97" vaporized=""/>
    <tripinfo id="f_1_3.5" depart="368.00" departLane="np3_nt3_0" departPos="54.20" departSpeed="0.00" departDelay="44.62" arrival="722.00" arrivalLane="nt14_np11_0" arrivalPos="75.00" arrivalSpeed="9.10" duration="354.00" routeLength="896.89" waitingTime="180.00" waitingCount="8" stopTime="0.00" timeLoss="265.96" rerouteNo="0" devices="tripinfo_f_1_3.5" vType="type1" speedFactor="0.86" vaporized=""/>
    <tripinfo id="f_1_3.3" depart="367.00" departLane="np3_nt3_0" departPos="45.77" departSpeed="0.00" departDelay="52.97" arrival="737.00" arrivalLane="nt14_np11_0" arrivalPos="75.00" arrivalSpeed="11.08" duration="370.00" routeLength="905.32" waitingTime="191.00" waitingCount="11" stopTime="0.00" timeLoss="296.16" rerouteNo="0" devices="tripinfo_f_1_3.3" vType="type1" speedFactor="1.02" vaporized=""/>
    <tripinfo id="f_0_3.35" depart="347.00" departLane="np3_nt3_0" departPos="0.00" departSpeed="0.00" departDelay="60.63" arrival="783.00" arrivalLane="nt14_np11_0" arrivalPos="75.00" arrivalSpeed="11.89" duration="436.00" routeLength="951.09" waitingTime="236.00" waitingCount="11" stopTime="0.00" timeLoss="367.94" rerouteNo="0" devices="tripinfo_f_0_3.35" vType="type1" speedFactor="1.17" vaporized=""/>
    <tripinfo id="f_0_3.36" depart="350.00" departLane="np3_nt3_0" departPos="1.93" departSpeed="0.00" departDelay="55.45" arrival="793.00" arrivalLane="nt14_np11_0" arrivalPos="75.00" arrivalSpeed="7.70" duration="443.00" routeLength="949.16" waitingTime="231.00" waitingCount="11" stopTime="0.00" timeLoss="354.71" rerouteNo="0" devices="tripinfo_f_0_3.36" vType="type1" speedFactor="0.90" vaporized=""/>
    <tripinfo id="f_1_3.0" depart="352.00" departLane="np3_nt3_0" departPos="0.00" departSpeed="0.00" departDelay="52.00" arrival="795.00" arrivalLane="nt14_np11_0" arrivalPos="75.00" arrivalSpeed="7.87" duration="443.00" routeLength="951.09" waitingTime="226.00" waitingCount="12" stopTime="0.00" timeLoss="357.10" rerouteNo="0" devices="tripinfo_f_1_3.0" vType="type1" speedFactor="0.93" vaporized=""/>
    <tripinfo id="f_1_3.1" depart="355.00" departLane="np3_nt3_0" departPos="0.00" departSpeed="0.00" departDelay="50.32" arrival="797.00" arrivalLane="nt14_np11_0" arrivalPos="75.00" arrivalSpeed="10.97" duration="442.00" routeLength="951.09" waitingTime="223.00" waitingCount="12" stopTime="0.00" timeLoss="367.21" rerouteNo="0" devices="tripinfo_f_1_3.1" vType="type1" speedFactor="1.07" vaporized=""/>
    <tripinfo id="f_1_3.4" depart="368.00" departLane="np3_nt3_0" departPos="0.00" departSpeed="0.00" departDelay="49.30" arrival="802.00" arrivalLane="nt14_np11_0" arrivalPos="75.00" arrivalSpeed="9.47" duration="434.00" routeLength="951.09" waitingTime="218.00" waitingCount="11" stopTime="0.00" timeLoss="354.28" rerouteNo="0" devices="tripinfo_f_1_3.4" vType="type1" speedFactor="1.01" vaporized=""/>
    <tripinfo id="f_1_3.7" depart="374.00" departLane="np3_nt3_0" departPos="0.00" departSpeed="0.00" departDelay="41.27" arrival="839.00" arrivalLane="nt14_np11_0" arrivalPos="75.00" arrivalSpeed="8.73" duration="465.00" routeLength="951.09" waitingTime="241.00" waitingCount="14" stopTime="0.00" timeLoss="369.36" rerouteNo="0" devices="tripinfo_f_1_3.7" vType="type1" speedFactor="0.84" vaporized=""/>
    <tripinfo id="f_1_3.8" depart="387.00" departLane="np3_nt3_0" departPos="3.23" departSpeed="0.00" departDelay="49.60" arrival="841.00" arrivalLane="nt14_np11_0" arrivalPos="75.00" arrivalSpeed="8.68" duration="454.00" routeLength="947.86" waitingTime="232.00" waitingCount="10" stopTime="0.00" timeLoss="371.87" rerouteNo="0" devices="tripinfo_f_1_3.8" vType="type1" speedFactor="0.97" vaporized=""/>
    <tripinfo id="f_1_3.9" depart="390.00" departLane="np3_nt3_0" departPos="0.00" departSpeed="0.00" departDelay="47.92" arrival="851.00" arrivalLane="nt14_np11_0" arrivalPos="75.00" arrivalSpeed="8.35" duration="461.00" routeLength="951.09" waitingTime="239.00" waitingCount="13" stopTime="0.00" timeLoss="374.91" rerouteNo="0" devices="tripinfo_f_1_3.9" vType="type1" speedFactor="0.93" vaporized=""/>
    <tripinfo id="f_1_3.10" depart="392.00" departLane="np3_nt3_0" departPos="0.28" departSpeed="0.00" departDelay="45.25" arrival="853.00" arrivalLane="nt14_np11_0" arrivalPos="75.00" arrivalSpeed="9.24" duration="461.00" routeLength="950.81" waitingTime="227.00" waitingCount="11" stopTime="0.00" timeLoss="385.62" rerouteNo="0" devices="tripinfo_f_1_3.10" vType="type1" speedFactor="1.07" vaporized=""/>
    <tripinfo id="f_1_3.11" depart="395.00" departLane="np3_nt3_0" departPos="0.00" departSpeed="0.00" departDelay="43.57" arrival="855.00" arrivalLane="nt14_np11_0" arrivalPos="75.00" arrivalSpeed="10.94" duration="460.00" routeLength="951.09" waitingTime="231.00" waitingCount="12" stopTime="0.00" timeLoss="385.47" rerouteNo="0" devices="tripinfo_f_1_3.11" vType="type1" speedFactor="1.07" vaporized=""/>
    <tripinfo id="f_1_3.12" depart="399.00" departLane="np3_nt3_0" departPos="0.10" departSpeed="0.00" departDelay="42.90" arrival="866.00" arrivalLane="nt14_np11_0" arrivalPos="75.00" arrivalSpeed="7.60" duration="467.00" routeLength="950.99" waitingTime="230.00" waitingCount="13" stopTime="0.00" timeLoss="373.31" rerouteNo="0" devices="tripinfo_f_1_3.12" vType="type1" speedFactor="0.85" vaporized=""/>
    <tripinfo id="f_1_3.13" depart="408.00" departLane="np3_nt3_0" departPos="3.49" departSpeed="0.00" departDelay="47.22" arrival="870.00" arrivalLane="nt14_np11_0" arrivalPos="75.00" arrivalSpeed="8.41" duration="462.00" routeLength="947.60" waitingTime="221.00" waitingCount="11" stopTime="0.00" timeLoss="363.89" rerouteNo="0" devices="tripinfo_f_1_3.13" vType="type1" speedFactor="0.81" vaporized=""/>
    <tripinfo id="f_1_3.15" depart="412.00" departLane="np3_nt3_0" departPos="15.43" departSpeed="0.00" departDelay="41.87" arrival="872.00" arrivalLane="nt14_np11_0" arrivalPos="75.00" arrivalSpeed="9.67" duration="460.00" routeLength="935.66" waitingTime="215.00" waitingCount="11" stopTime="0.00" timeLoss="385.39" rerouteNo="0" devices="tripinfo_f_1_3.15" vType="type1" speedFactor="1.06" vaporized=""/>
    <tripinfo id="f_1_3.14" depart="410.00" departLane="np3_nt3_0" departPos="0.00" departSpeed="0.00" departDelay="44.55" arrival="874.00" arrivalLane="nt14_np11_0" arrivalPos="75.00" arrivalSpeed="9.53" duration="464.00" routeLength="951.09" waitingTime="211.00" waitingCount="11" stopTime="0.00" timeLoss="389.64" rerouteNo="0" devices="tripinfo_f_1_3.14" vType="type1" speedFactor="1.08" vaporized=""/>