<?xml version="1.0" encoding="UTF-8"?>

<!-- generated on 2023-08-30 12:25:14 by Eclipse SUMO libsumo Version 1.18.0
<configuration xmlns:xsi="http://www.w3.org/2001/XMLSchema-instance" xsi:noNamespaceSchemaLocation="http://sumo.dlr.de/xsd/libsumoConfiguration.xsd">

    <input>
        <net-file value="/home/stefan/RESCO/./environments/arterial4x4/arterial4x4.net.xml"/>
        <route-files value="/home/stefan/RESCO/./environments/arterial4x4/arterial4x4_19.rou.xml"/>
    </input>

    <output>
        <tripinfo-output value="/home/stefan/results/ITRPO-tr0-arterial4x4-0-drq_norm-wait_norm/tripinfo_19.xml"/>
        <tripinfo-output.write-unfinished value="true"/>
    </output>

    <processing>
        <time-to-teleport value="-1"/>
    </processing>

    <report>
        <no-warnings value="True"/>
        <no-step-log value="True"/>
    </report>

    <random_number>
        <random value="true"/>
    </random_number>

</configuration>
-->

<tripinfos xmlns:xsi="http://www.w3.org/2001/XMLSchema-instance" xsi:noNamespaceSchemaLocation="http://sumo.dlr.de/xsd/tripinfo_file.xsd">
    <tripinfo id="f_0_2.0" depart="0.00" departLane="np2_nt2_0" departPos="38.64" departSpeed="0.00" departDelay="0.00" arrival="122.00" arrivalLane="nt15_np10_0" arrivalPos="75.00" arrivalSpeed="8.63" duration="122.00" routeLength="912.44" waitingTime="21.00" waitingCount="3" stopTime="0.00" timeLoss="44.39" rerouteNo="0" devices="tripinfo_f_0_2.0" vType="type1" speedFactor="0.98" vaporized=""/>
    <tripinfo id="f_0_3.0" depart="0.00" departLane="np3_nt3_0" departPos="21.19" departSpeed="0.00" departDelay="0.00" arrival="146.00" arrivalLane="nt14_np11_0" arrivalPos="75.00" arrivalSpeed="11.79" duration="146.00" routeLength="929.90" waitingTime="57.00" waitingCount="5" stopTime="0.00" timeLoss="76.14" rerouteNo="0" devices="tripinfo_f_0_3.0" vType="type1" speedFactor="1.11" vaporized=""/>
    <tripinfo id="f_0_2.1" depart="9.00" departLane="np2_nt2_0" departPos="1.75" departSpeed="0.00" departDelay="0.82" arrival="216.00" arrivalLane="nt15_np10_0" arrivalPos="75.00" arrivalSpeed="10.53" duration="207.00" routeLength="949.33" waitingTime="102.00" waitingCount="5" stopTime="0.00" timeLoss="136.31" rerouteNo="0" devices="tripinfo_f_0_2.1" vType="type1" speedFactor="1.13" vaporized=""/>
    <tripinfo id="f_0_2.2" depart="17.00" departLane="np2_nt2_0" departPos="55.04" departSpeed="0.00" departDelay="0.64" arrival="221.00" arrivalLane="nt15_np10_0" arrivalPos="75.00" arrivalSpeed="9.19" duration="204.00" routeLength="896.04" waitingTime="90.00" waitingCount="6" stopTime="0.00" timeLoss="121.07" rerouteNo="0" devices="tripinfo_f_0_2.2" vType="type1" speedFactor="0.91" vaporized=""/>
    <tripinfo id="f_0_0.0" depart="0.00" departLane="np13_nt13_0" departPos="5.11" departSpeed="0.00" departDelay="0.00" arrival="223.00" arrivalLane="nt4_np5_0" arrivalPos="75.00" arrivalSpeed="18.45" duration="223.00" routeLength="1342.78" waitingTime="87.00" waitingCount="6" stopTime="0.00" timeLoss="127.01" rerouteNo="0" devices="tripinfo_f_0_0.0" vType="type1" speedFactor="0.96" vaporized=""/>
    <tripinfo id="f_0_3.1" depart="9.00" departLane="np3_nt3_0" departPos="11.79" departSpeed="0.00" departDelay="0.82" arrival="237.00" arrivalLane="nt14_np11_0" arrivalPos="75.00" arrivalSpeed="9.89" duration="228.00" routeLength="939.30" waitingTime="121.00" waitingCount="4" stopTime="0.00" timeLoss="150.82" rerouteNo="0" devices="tripinfo_f_0_3.1" vType="type1" speedFactor="1.02" vaporized=""/>
    <tripinfo id="f_0_1.0" depart="0.00" departLane="np16_nt1_0" departPos="48.97" departSpeed="0.00" departDelay="0.00" arrival="238.00" arrivalLane="nt16_np8_0" arrivalPos="75.00" arrivalSpeed="20.37" duration="238.00" routeLength="1298.91" waitingTime="100.00" waitingCount="8" stopTime="0.00" timeLoss="155.06" rerouteNo="0" devices="tripinfo_f_0_1.0" vType="type1" speedFactor="1.10" vaporized=""/>
    <tripinfo id="f_0_1.1" depart="14.00" departLane="np16_nt1_0" departPos="7.52" departSpeed="0.00" departDelay="0.36" arrival="253.00" arrivalLane="nt16_np8_0" arrivalPos="75.00" arrivalSpeed="20.55" duration="239.00" routeLength="1340.36" waitingTime="99.00" waitingCount="6" stopTime="0.00" timeLoss="148.36" rerouteNo="0" devices="tripinfo_f_0_1.1" vType="type1" speedFactor="1.03" vaporized=""/>
    <tripinfo id="f_0_0.1" depart="14.00" departLane="np13_nt13_0" departPos="27.76" departSpeed="0.00" departDelay="0.36" arrival="288.00" arrivalLane="nt4_np5_0" arrivalPos="75.00" arrivalSpeed="20.00" duration="274.00" routeLength="1320.13" waitingTime="152.00" waitingCount="7" stopTime="0.00" timeLoss="190.96" rerouteNo="0" devices="tripinfo_f_0_0.1" vType="type1" speedFactor="1.11" vaporized=""/>
    <tripinfo id="f_0_0.2" depart="28.00" departLane="np13_nt13_0" departPos="36.88" departSpeed="0.00" departDelay="0.73" arrival="290.00" arrivalLane="nt4_np5_0" arrivalPos="75.00" arrivalSpeed="19.78" duration="262.00" routeLength="1311.01" waitingTime="130.00" waitingCount="6" stopTime="0.00" timeLoss="176.14" rerouteNo="0" devices="tripinfo_f_0_0.2" vType="type1" speedFactor="1.07" vaporized=""/>
    <tripinfo id="f_0_0.3" depart="41.00" departLane="np13_nt13_0" departPos="17.44" departSpeed="0.00" departDelay="0.09" arrival="343.00" arrivalLane="nt4_np5_0" arrivalPos="75.00" arrivalSpeed="19.17" duration="302.00" routeLength="1330.45" waitingTime="162.00" waitingCount="8" stopTime="0.00" timeLoss="212.36" rerouteNo="0" devices="tripinfo_f_0_0.3" vType="type1" speedFactor="1.03" vaporized=""/>
    <tripinfo id="f_0_0.4" depart="55.00" departLane="np13_nt13_0" departPos="13.26" departSpeed="0.00" departDelay="0.46" arrival="345.00" arrivalLane="nt4_np5_0" arrivalPos="75.00" arrivalSpeed="20.70" duration="290.00" routeLength="1334.63" waitingTime="140.00" waitingCount="8" stopTime="0.00" timeLoss="203.00" rerouteNo="0" devices="tripinfo_f_0_0.4" vType="type1" speedFactor="1.07" vaporized=""/>
    <tripinfo id="f_0_3.2" depart="17.00" departLane="np3_nt3_0" departPos="36.75" departSpeed="0.00" departDelay="0.64" arrival="346.00" arrivalLane="nt14_np11_0" arrivalPos="75.00" arrivalSpeed="10.05" duration="329.00" routeLength="914.34" waitingTime="228.00" waitingCount="6" stopTime="0.00" timeLoss="259.06" rerouteNo="0" devices="tripinfo_f_0_3.2" vType="type1" speedFactor="1.09" vaporized=""/>
    <tripinfo id="f_0_2.3" depart="25.00" departLane="np2_nt2_0" departPos="51.35" departSpeed="0.00" departDelay="0.45" arrival="346.00" arrivalLane="nt15_np10_0" arrivalPos="75.00" arrivalSpeed="11.63" duration="321.00" routeLength="899.73" waitingTime="210.00" waitingCount="6" stopTime="0.00" timeLoss="255.87" rerouteNo="0" devices="tripinfo_f_0_2.3" vType="type1" speedFactor="1.15" vaporized=""/>
    <tripinfo id="f_0_3.3" depart="25.00" departLane="np3_nt3_0" departPos="39.84" departSpeed="0.00" departDelay="0.45" arrival="349.00" arrivalLane="nt14_np11_0" arrivalPos="75.00" arrivalSpeed="9.14" duration="324.00" routeLength="911.25" waitingTime="209.00" waitingCount="6" stopTime="0.00" timeLoss="250.87" rerouteNo="0" devices="tripinfo_f_0_3.3" vType="type1" speedFactor="1.04" vaporized=""/>
    <tripinfo id="f_0_3.4" depart="33.00" departLane="np3_nt3_0" departPos="37.70" departSpeed="0.00" departDelay="0.27" arrival="357.00" arrivalLane="nt14_np11_0" arrivalPos="75.00" arrivalSpeed="9.78" duration="324.00" routeLength="913.39" waitingTime="211.00" waitingCount="9" stopTime="0.00" timeLoss="252.17" rerouteNo="0" devices="tripinfo_f_0_3.4" vType="type1" speedFactor="1.07" vaporized=""/>
    <tripinfo id="f_0_3.5" depart="41.00" departLane="np3_nt3_0" departPos="33.00" departSpeed="0.00" departDelay="0.09" arrival="360.00" arrivalLane="nt14_np11_0" arrivalPos="75.00" arrivalSpeed="9.48" duration="319.00" routeLength="918.09" waitingTime="198.00" waitingCount="9" stopTime="0.00" timeLoss="236.81" rerouteNo="0" devices="tripinfo_f_0_3.5" vType="type1" speedFactor="0.93" vaporized=""/>
    <tripinfo id="f_0_3.6" depart="50.00" departLane="np3_nt3_0" departPos="21.55" departSpeed="0.00" departDelay="0.91" arrival="362.00" arrivalLane="nt14_np11_0" arrivalPos="75.00" arrivalSpeed="9.12" duration="312.00" routeLength="929.54" waitingTime="192.00" waitingCount="7" stopTime="0.00" timeLoss="234.37" rerouteNo="0" devices="tripinfo_f_0_3.6" vType="type1" speedFactor="1.00" vaporized=""/>
    <tripinfo id="f_0_3.7" depart="58.00" departLane="np3_nt3_0" departPos="15.59" departSpeed="0.00" departDelay="0.73" arrival="364.00" arrivalLane="nt14_np11_0" arrivalPos="75.00" arrivalSpeed="9.35" duration="306.00" routeLength="935.50" waitingTime="181.00" waitingCount="7" stopTime="0.00" timeLoss="228.17" rerouteNo="0" devices="tripinfo_f_0_3.7" vType="type1" speedFactor="1.01" vaporized=""/>
    <tripinfo id="f_0_2.4" depart="33.00" departLane="np2_nt2_0" departPos="2.82" departSpeed="0.00" departDelay="0.27" arrival="373.00" arrivalLane="nt15_np10_0" arrivalPos="75.00" arrivalSpeed="9.10" duration="340.00" routeLength="948.26" waitingTime="218.00" waitingCount="7" stopTime="0.00" timeLoss="259.12" rerouteNo="0" devices="tripinfo_f_0_2.4" vType="type1" speedFactor="0.99" vaporized=""/>
    <tripinfo id="f_0_2.5" depart="41.00" departLane="np2_nt2_0" departPos="39.84" departSpeed="0.00" departDelay="0.09" arrival="402.00" arrivalLane="nt15_np10_0" arrivalPos="75.00" arrivalSpeed="9.76" duration="361.00" routeLength="911.24" waitingTime="246.00" waitingCount="6" stopTime="0.00" timeLoss="288.78" rerouteNo="0" devices="tripinfo_f_0_2.5" vType="type1" speedFactor="1.07" vaporized=""/>
    <tripinfo id="f_0_3.8" depart="66.00" departLane="np3_nt3_0" departPos="2.98" departSpeed="0.00" departDelay="0.54" arrival="409.00" arrivalLane="nt14_np11_0" arrivalPos="75.00" arrivalSpeed="8.31" duration="343.00" routeLength="948.11" waitingTime="205.00" waitingCount="9" stopTime="0.00" timeLoss="253.97" rerouteNo="0" devices="tripinfo_f_0_3.8" vType="type1" speedFactor="0.90" vaporized=""/>
    <tripinfo id="f_0_3.9" depart="74.00" departLane="np3_nt3_0" departPos="0.43" departSpeed="0.00" departDelay="0.36" arrival="437.00" arrivalLane="nt14_np11_0" arrivalPos="75.00" arrivalSpeed="10.82" duration="363.00" routeLength="950.66" waitingTime="220.00" waitingCount="10" stopTime="0.00" timeLoss="284.05" rerouteNo="0" devices="tripinfo_f_0_3.9" vType="type1" speedFactor="1.02" vaporized=""/>
    <tripinfo id="f_0_3.10" depart="98.00" departLane="np3_nt3_0" departPos="0.54" departSpeed="0.00" departDelay="16.18" arrival="439.00" arrivalLane="nt14_np11_0" arrivalPos="75.00" arrivalSpeed="10.85" duration="341.00" routeLength="950.55" waitingTime="195.00" waitingCount="8" stopTime="0.00" timeLoss="263.90" rerouteNo="0" devices="tripinfo_f_0_3.10" vType="type1" speedFactor="1.03" vaporized=""/>
    <tripinfo id="f_0_3.11" depart="101.00" departLane="np3_nt3_0" departPos="3.53" departSpeed="0.00" departDelay="11.00" arrival="447.00" arrivalLane="nt14_np11_0" arrivalPos="75.00" arrivalSpeed="10.43" duration="346.00" routeLength="947.56" waitingTime="196.00" waitingCount="11" stopTime="0.00" timeLoss="264.03" rerouteNo="0" devices="tripinfo_f_0_3.11" vType="type1" speedFactor="0.97" vaporized=""/>
    <tripinfo id="f_0_3.12" depart="103.00" departLane="np3_nt3_0" departPos="0.00" departSpeed="0.00" departDelay="4.82" arrival="449.00" arrivalLane="nt14_np11_0" arrivalPos="75.00" arrivalSpeed="9.86" duration="346.00" routeLength="951.09" waitingTime="189.00" waitingCount="14" stopTime="0.00" timeLoss="268.77" rerouteNo="0" devices="tripinfo_f_0_3.12" vType="type1" speedFactor="1.03" vaporized=""/>
    <tripinfo id="f_0_3.13" depart="134.00" departLane="np3_nt3_0" departPos="1.20" departSpeed="0.00" departDelay="27.63" arrival="488.00" arrivalLane="nt14_np11_0" arrivalPos="75.00" arrivalSpeed="9.04" duration="354.00" routeLength="949.89" waitingTime="181.00" waitingCount="11" stopTime="0.00" timeLoss="266.05" rerouteNo="0" devices="tripinfo_f_0_3.13" vType="type1" speedFactor="0.91" vaporized=""/>
    <tripinfo id="f_0_3.14" depart="158.00" departLane="np3_nt3_0" departPos="0.00" departSpeed="0.00" departDelay="43.45" arrival="516.00" arrivalLane="nt14_np11_0" arrivalPos="75.00" arrivalSpeed="12.18" duration="358.00" routeLength="951.09" waitingTime="193.00" waitingCount="13" stopTime="0.00" timeLoss="286.45" rerouteNo="0" devices="tripinfo_f_0_3.14" vType="type1" speedFactor="1.12" vaporized=""/>
    <tripinfo id="f_0_3.15" depart="201.00" departLane="np3_nt3_0" departPos="0.00" departSpeed="0.00" departDelay="78.27" arrival="520.00" arrivalLane="nt14_np11_0" arrivalPos="75.00" arrivalSpeed="9.19" duration="319.00" routeLength="951.09" waitingTime="143.00" waitingCount="11" stopTime="0.00" timeLoss="237.30" rerouteNo="0" devices="tripinfo_f_0_3.15" vType="type1" speedFactor="0.98" vaporized=""/>
    <tripinfo id="f_0_3.16" depart="206.00" departLane="np3_nt3_0" departPos="0.00" departSpeed="0.00" departDelay="75.09" arrival="523.00" arrivalLane="nt14_np11_0" arrivalPos="75.00" arrivalSpeed="8.22" duration="317.00" routeLength="951.09" waitingTime="127.00" waitingCount="10" stopTime="0.00" timeLoss="230.07" rerouteNo="0" devices="tripinfo_f_0_3.16" vType="type1" speedFactor="0.92" vaporized=""/>
    <tripinfo id="f_0_3.22" depart="253.00" departLane="np3_nt3_0" departPos="64.32" departSpeed="0.00" departDelay="73.00" arrival="524.00" arrivalLane="nt14_np11_0" arrivalPos="75.00" arrivalSpeed="12.24" duration="271.00" routeLength="886.77" waitingTime="116.00" waitingCount="7" stopTime="0.00" timeLoss="206.52" rerouteNo="0" devices="tripinfo_f_0_3.22" vType="type1" speedFactor="1.15" vaporized=""/>
    <tripinfo id="f_0_3.17" depart="213.00" departLane="np3_nt3_0" departPos="0.00" departSpeed="0.00" departDelay="73.91" arrival="552.00" arrivalLane="nt14_np11_0" arrivalPos="75.00" arrivalSpeed="5.16" duration="339.00" routeLength="951.09" waitingTime="131.00" waitingCount="12" stopTime="0.00" timeLoss="219.89" rerouteNo="0" devices="tripinfo_f_0_3.17" vType="type1" speedFactor="0.67" vaporized=""/>
    <tripinfo id="f_0_3.18" depart="216.00" departLane="np3_nt3_0" departPos="0.00" departSpeed="0.00" departDelay="68.72" arrival="554.00" arrivalLane="nt14_np11_0" arrivalPos="75.00" arrivalSpeed="10.53" duration="338.00" routeLength="951.09" waitingTime="133.00" waitingCount="12" stopTime="0.00" timeLoss="257.63" rerouteNo="0" devices="tripinfo_f_0_3.18" vType="type1" speedFactor="1.00" vaporized=""/>
    <tripinfo id="f_0_3.19" depart="220.00" departLane="np3_nt3_0" departPos="0.00" departSpeed="0.00" departDelay="64.54" arrival="556.00" arrivalLane="nt14_np11_0" arrivalPos="75.00" arrivalSpeed="7.50" duration="336.00" routeLength="951.09" waitingTime="133.00" waitingCount="11" stopTime="0.00" timeLoss="246.83" rerouteNo="0" devices="tripinfo_f_0_3.19" vType="type1" speedFactor="0.90" vaporized=""/>
    <tripinfo id="f_0_3.20" depart="238.00" departLane="np3_nt3_0" departPos="0.29" departSpeed="0.00" departDelay="74.36" arrival="558.00" arrivalLane="nt14_np11_0" arrivalPos="75.00" arrivalSpeed="11.50" duration="320.00" routeLength="950.80" waitingTime="123.00" waitingCount="11" stopTime="0.00" timeLoss="246.20" rerouteNo="0" devices="tripinfo_f_0_3.20" vType="type1" speedFactor="1.09" vaporized=""/>
    <tripinfo id="f_0_3.21" depart="253.00" departLane="np3_nt3_0" departPos="2.48" departSpeed="0.00" departDelay="81.18" arrival="560.00" arrivalLane="nt14_np11_0" arrivalPos="75.00" arrivalSpeed="9.22" duration="307.00" routeLength="948.61" waitingTime="131.00" waitingCount="10" stopTime="0.00" timeLoss="227.59" rerouteNo="0" devices="tripinfo_f_0_3.21" vType="type1" speedFactor="1.00" vaporized=""/>
    <tripinfo id="f_0_3.23" depart="255.00" departLane="np3_nt3_0" departPos="0.00" departSpeed="0.00" departDelay="66.81" arrival="562.00" arrivalLane="nt14_np11_0" arrivalPos="75.00" arrivalSpeed="8.20" duration="307.00" routeLength="951.09" waitingTime="130.00" waitingCount="11" stopTime="0.00" timeLoss="223.50" rerouteNo="0" devices="tripinfo_f_0_3.23" vType="type1" speedFactor="0.96" vaporized=""/>
    <tripinfo id="f_0_3.24" depart="258.00" departLane="np3_nt3_0" departPos="0.00" departSpeed="0.00" departDelay="61.63" arrival="570.00" arrivalLane="nt14_np11_0" arrivalPos="75.00" arrivalSpeed="7.38" duration="312.00" routeLength="951.09" waitingTime="122.00" waitingCount="13" stopTime="0.00" timeLoss="215.97" rerouteNo="0" devices="tripinfo_f_0_3.24" vType="type1" speedFactor="0.83" vaporized=""/>
    <tripinfo id="f_0_3.25" depart="261.00" departLane="np3_nt3_0" departPos="0.00" departSpeed="0.00" departDelay="56.45" arrival="572.00" arrivalLane="nt14_np11_0" arrivalPos="75.00" arrivalSpeed="9.96" duration="311.00" routeLength="951.09" waitingTime="118.00" waitingCount="13" stopTime="0.00" timeLoss="222.34" rerouteNo="0" devices="tripinfo_f_0_3.25" vType="type1" speedFactor="0.91" vaporized=""/>
    <tripinfo id="f_0_3.26" depart="273.00" departLane="np3_nt3_0" departPos="0.00" departSpeed="0.00" departDelay="60.27" arrival="612.00" arrivalLane="nt14_np11_0" arrivalPos="75.00" arrivalSpeed="10.19" duration="339.00" routeLength="951.09" waitingTime="141.00" waitingCount="13" stopTime="0.00" timeLoss="262.58" rerouteNo="0" devices="tripinfo_f_0_3.26" vType="type1" speedFactor="1.04" vaporized=""/>
    <tripinfo id="f_0_3.27" depart="276.00" departLane="np3_nt3_0" departPos="0.00" departSpeed="0.00" departDelay="55.09" arrival="615.00" arrivalLane="nt14_np11_0" arrivalPos="75.00" arrivalSpeed="9.12" duration="339.00" routeLength="951.09" waitingTime="163.00" waitingCount="10" stopTime="0.00" timeLoss="257.80" rerouteNo="0" devices="tripinfo_f_0_3.27" vType="type1" speedFactor="0.99" vaporized=""/>
    <tripinfo id="f_0_3.28" depart="279.00" departLane="np3_nt3_0" departPos="0.00" departSpeed="0.00" departDelay="49.90" arrival="621.00" arrivalLane="nt14_np11_0" arrivalPos="75.00" arrivalSpeed="10.43" duration="342.00" routeLength="951.09" waitingTime="166.00" waitingCount="13" stopTime="0.00" timeLoss="272.82" rerouteNo="0" devices="tripinfo_f_0_3.28" vType="type1" speedFactor="1.15" vaporized=""/>
    <tripinfo id="f_0_3.29" depart="281.00" departLane="np3_nt3_0" departPos="0.00" departSpeed="0.00" departDelay="43.72" arrival="656.00" arrivalLane="nt14_np11_0" arrivalPos="75.00" arrivalSpeed="12.47" duration="375.00" routeLength="951.09" waitingTime="227.00" waitingCount="13" stopTime="0.00" timeLoss="305.85" rerouteNo="0" devices="tripinfo_f_0_3.29" vType="type1" speedFactor="1.16" vaporized=""/>
    <tripinfo id="f_0_3.30" depart="285.00" departLane="np3_nt3_0" departPos="0.04" departSpeed="0.00" departDelay="39.54" arrival="660.00" arrivalLane="nt14_np11_0" arrivalPos="75.00" arrivalSpeed="10.62" duration="375.00" routeLength="951.05" waitingTime="222.00" waitingCount="13" stopTime="0.00" timeLoss="293.28" rerouteNo="0" devices="tripinfo_f_0_3.30" vType="type1" speedFactor="0.98" vaporized=""/>
    <tripinfo id="f_0_3.31" depart="308.00" departLane="np3_nt3_0" departPos="2.34" departSpeed="0.00" departDelay="54.36" arrival="661.00" arrivalLane="nt14_np11_0" arrivalPos="75.00" arrivalSpeed="11.43" duration="353.00" routeLength="948.75" waitingTime="209.00" waitingCount="13" stopTime="0.00" timeLoss="285.67" rerouteNo="0" devices="tripinfo_f_0_3.31" vType="type1" speedFactor="1.17" vaporized=""/>
    <tripinfo id="f_0_3.32" depart="312.00" departLane="np3_nt3_0" departPos="0.00" departSpeed="0.00" departDelay="50.18" arrival="665.00" arrivalLane="nt14_np11_0" arrivalPos="75.00" arrivalSpeed="7.46" duration="353.00" routeLength="951.09" waitingTime="196.00" waitingCount="12" stopTime="0.00" timeLoss="263.64" rerouteNo="0" devices="tripinfo_f_0_3.32" vType="type1" speedFactor="0.89" vaporized=""/>
    <tripinfo id="f_0_3.33" depart="323.00" departLane="np3_nt3_0" departPos="0.00" departSpeed="0.00" departDelay="52.99" arrival="677.00" arrivalLane="nt14_np11_0" arrivalPos="75.00" arrivalSpeed="10.58" duration="354.00" routeLength="951.09" waitingTime="190.00" waitingCount="13" stopTime="0.00" timeLoss="277.32" rerouteNo="0" devices="tripinfo_f_0_3.33" vType="type1" speedFactor="1.05" vaporized=""/>
    <tripinfo id="f_0_3.34" depart="326.00" departLane="np3_nt3_0" departPos="1.84" departSpeed="0.00" departDelay="47.81" arrival="679.00" arrivalLane="nt14_np11_0" arrivalPos="75.00" arrivalSpeed="12.37" duration="353.00" routeLength="949.25" waitingTime="184.00" waitingCount="13" stopTime="0.00" timeLoss="283.81" rerouteNo="0" devices="tripinfo_f_0_3.34" vType="type1" speedFactor="1.16" vaporized=""/>
    <tripinfo id="f_0_3.35" depart="329.00" departLane="np3_nt3_0" departPos="0.00" departSpeed="0.00" departDelay="42.63" arrival="682.00" arrivalLane="nt14_np11_0" arrivalPos="75.00" arrivalSpeed="8.98" duration="353.00" routeLength="951.09" waitingTime="181.00" waitingCount="12" stopTime="0.00" timeLoss="266.61" rerouteNo="0" devices="tripinfo_f_0_3.35" vType="type1" speedFactor="0.93" vaporized=""/>
    <tripinfo id="f_0_3.36" depart="348.00" departLane="np3_nt3_0" departPos="0.00" departSpeed="0.00" departDelay="53.45" arrival="691.00" arrivalLane="nt14_np11_0" arrivalPos="75.00" arrivalSpeed="11.80" duration="343.00" routeLength="951.09" waitingTime="181.00" waitingCount="9" stopTime="0.00" timeLoss="272.90" rerouteNo="0" devices="tripinfo_f_0_3.36" vType="type1" speedFactor="1.15" vaporized=""/>
    <tripinfo id="f_1_3.0" depart="359.00" departLane="np3_nt3_0" departPos="0.00" departSpeed="0.00" departDelay="59.00" arrival="694.00" arrivalLane="nt14_np11_0" arrivalPos="75.00" arrivalSpeed="10.59" duration="335.00" routeLength="951.09" waitingTime="180.00" waitingCount="12" stopTime="0.00" timeLoss="259.76" rerouteNo="0" devices="tripinfo_f_1_3.0" vType="type1" speedFactor="1.07" vaporized=""/>
    <tripinfo id="f_1_3.1" depart="382.00" departLane="np3_nt3_0" departPos="0.00" departSpeed="0.00" departDelay="77.32" arrival="733.00" arrivalLane="nt14_np11_0" arrivalPos="75.00" arrivalSpeed="8.74" duration="351.00" routeLength="951.09" waitingTime="196.00" waitingCount="12" stopTime="0.00" timeLoss="268.57" rerouteNo="0" devices="tripinfo_f_1_3.1" vType="type1" speedFactor="0.98" vaporized=""/>
    <tripinfo id="f_1_3.2" depart="398.00" departLane="np3_nt3_0" departPos="0.63" departSpeed="0.00" departDelay="88.65" arrival="734.00" arrivalLane="nt14_np11_0" arrivalPos="75.00" arrivalSpeed="11.57" duration="336.00" routeLength="950.46" waitingTime="182.00" waitingCount="12" stopTime="0.00" timeLoss="263.33" rerouteNo="0" devices="tripinfo_f_1_3.2" vType="type1" speedFactor="1.09" vaporized=""/>
    <tripinfo id="f_1_3.3" depart="413.00" departLane="np3_nt3_0" departPos="0.00" departSpeed="0.00" departDelay="98.97" arrival="736.00" arrivalLane="nt14_np11_0" arrivalPos="75.00" arrivalSpeed="10.30" duration="323.00" routeLength="951.09" waitingTime="168.00" waitingCount="12" stopTime="0.00" timeLoss="248.85" rerouteNo="0" devices="tripinfo_f_1_3.3" vType="type1" speedFactor="1.07" vaporized=""/>
    <tripinfo id="f_1_3.4" depart="428.00" departLane="np3_nt3_0" departPos="0.00" departSpeed="0.00" departDelay="109.30" arrival="757.00" arrivalLane="nt14_np11_0" arrivalPos="75.00" arrivalSpeed="10.31" duration="329.00" routeLength="951.09" waitingTime="177.00" waitingCount="12" stopTime="0.00" timeLoss="256.63" rerouteNo="0" devices="tripinfo_f_1_3.4" vType="type1" speedFactor="1.11" vaporized=""/>
    <tripinfo id="f_1_3.5" depart="430.00" departLane="np3_nt3_0" departPos="0.00" departSpeed="0.00" departDelay="106.62" arrival="759.00" arrivalLane="nt14_np11_0" arrivalPos="75.00" arrivalSpeed="12.37" duration="329.00" routeLength="951.09" waitingTime="164.00" waitingCount="12" stopTime="0.00" timeLoss="257.99" rerouteNo="0" devices="tripinfo_f_1_3.5" vType="type1" speedFactor="1.14" vaporized=""/>
    <tripinfo id="f_1_3.6" depart="433.00" departLane="np3_nt3_0" departPos="0.00" departSpeed="0.00" departDelay="104.95" arrival="762.00" arrivalLane="nt14_np11_0" arrivalPos="75.00" arrivalSpeed="9.00" duration="329.00" routeLength="951.09" waitingTime="146.00" waitingCount="13" stopTime="0.00" timeLoss="241.69" rerouteNo="0" devices="tripinfo_f_1_3.6" vType="type1" speedFactor="0.91" vaporized=""/>
    <tripinfo id="f_1_3.7" depart="436.00" departLane="np3_nt3_0" departPos="0.00" departSpeed="0.00" departDelay="103.27" arrival="764.00" arrivalLane="nt14_np11_0" arrivalPos="75.00" arrivalSpeed="9.40" duration="328.00" routeLength="951.09" waitingTime="136.00" waitingCount="12" stopTime="0.00" timeLoss="251.46" rerouteNo="0" devices="tripinfo_f_1_3.7" vType="type1" speedFactor="1.05" vaporized=""/>
    <tripinfo id="f_1_3.8" depart="438.00" departLane="np3_nt3_0" departPos="0.00" departSpeed="0.00" departDelay="100.60" arrival="788.00" arrivalLane="nt14_np11_0" arrivalPos="75.00" arrivalSpeed="7.81" duration="350.00" routeLength="951.09" waitingTime="154.00" waitingCount="13" stopTime="0.00" timeLoss="261.26" rerouteNo="0" devices="tripinfo_f_1_3.8" vType="type1" speedFactor="0.90" vaporized=""/>
    <tripinfo id="f_1_3.9" depart="448.00" departLane="np3_nt3_0" departPos="0.00" departSpeed="0.00" departDelay="105.92" arrival="790.00" arrivalLane="nt14_np11_0" arrivalPos="75.00" arrivalSpeed="12.07" duration="342.00" routeLength="951.09" waitingTime="142.00" waitingCount="12" stopTime="0.00" timeLoss="273.31" rerouteNo="0" devices="tripinfo_f_1_3.9" vType="type1" speedFactor="1.17" vaporized=""/>
    <tripinfo id="f_1_3.10" depart="463.00" departLane="np3_nt3_0" departPos="0.00" departSpeed="0.00" departDelay="116.25" arrival="794.00" arrivalLane="nt14_np11_0" arrivalPos="75.00" arrivalSpeed="8.36" duration="331.00" routeLength="951.09" waitingTime="144.00" waitingCount="11" stopTime="0.00" timeLoss="249.00" rerouteNo="0" devices="tripinfo_f_1_3.10" vType="type1" speedFactor="0.98" vaporized=""/>
    <tripinfo id="f_1_3.11" depart="466.00" departLane="np3_nt3_0" departPos="0.00" departSpeed="0.00" departDelay="114.57" arrival="812.00" arrivalLane="nt14_np11_0" arrivalPos="75.00" arrivalSpeed="9.55" duration="346.00" routeLength="951.09" waitingTime="155.00" waitingCount="11" stopTime="0.00" timeLoss="272.94" rerouteNo="0" devices="tripinfo_f_1_3.11" vType="type1" speedFactor="1.09" vaporized=""/>
    <tripinfo id="f_1_3.13" depart="470.00" departLane="np3_nt3_0" departPos="15.05" departSpeed="0.00" departDelay="109.22" arrival="815.00" arrivalLane="nt14_np11_0" arrivalPos="75.00" arrivalSpeed="9.38" duration="345.00" routeLength="936.04" waitingTime="141.00" waitingCount="12" stopTime="0.00" timeLoss="262.21" rerouteNo="0" devices="tripinfo_f_1_3.13" vType="type1" speedFactor="0.95" vaporized=""/>
    <tripinfo id="f_1_3.12" depart="469.00" departLane="np3_nt3_0" departPos="5.65" departSpeed="0.00" departDelay="112.90" arrival="817.00" arrivalLane="nt14_np11_0" arrivalPos="75.00" arrivalSpeed="10.01" duration="348.00" routeLength="945.44" waitingTime="133.00" waitingCount="10" stopTime="0.00" timeLoss="265.87" rerouteNo="0" devices="tripinfo_f_1_3.12" vType="type1" speedFactor="0.97" vaporized=""/>
    <tripinfo id="f_1_3.14" depart="472.00" departLane="np3_nt3_0" departPos="0.17" departSpeed="0.00" departDelay="106.55" arrival="819.00" arrivalLane="nt14_np11_0" arrivalPos="75.00" arrivalSpeed="9.10" duration="347.00" routeLength="950.92" waitingTime="129.00" waitingCount="12" stopTime="0.00" timeLoss="265.26" rerouteNo="0" devices="tripinfo_f_1_3.14" vType="type1" speedFactor="0.98" vaporized=""/>
    <tripinfo id="f_1_3.15" depart="476.00" departLane="np3_nt3_0" departPos="3.58" departSpeed="0.00" departDelay="105.87" arrival="835.00" arrivalLane="nt14_np11_0" arrivalPos="75.00" arrivalSpeed="7.85" duration="359.00" routeLength="947.51" waitingTime="121.00" waitingCount="11" stopTime="0.00" timeLoss="253.57" rerouteNo="0" devices="tripinfo_f_1_3.15" vType="type1" speedFactor="0.76" vaporized=""/>
    <tripinfo id="f_1_3.16" depart="478.00" departLane="np3_nt3_0" departPos="0.00" departSpeed="0.00" departDelay="103.20" arrival="854.00" arrivalLane="nt14_np11_0" arrivalPos="75.00" arrivalSpeed="7.84" duration="376.00" routeLength="951.09" waitingTime="136.00" waitingCount="10" stopTime="0.00" timeLoss="282.06" rerouteNo="0" devices="tripinfo_f_1_3.16" vType="type1" speedFactor="0.85" vaporized=""/>
    <tripinfo id="f_1_3.17" depart="480.00" departLane="np3_nt3_0" departPos="0.00" departSpeed="0.00" departDelay="100.52" arrival="856.00" arrivalLane="nt14_np11_0" arrivalPos="75.00" arrivalSpeed="8.31" duration="376.00" routeLength="951.09" waitingTime="126.00" waitingCount="9" stopTime="0.00" timeLoss="280.58" rerouteNo="0" devices="tripinfo_f_1_3.17" vType="type1" speedFactor="0.84" vaporized=""/>
    <tripinfo id="f_1_3.18" depart="483.00" departLane="np3_nt3_0" departPos="0.00" departSpeed="0.00" departDelay="98.85" arrival="858.00" arrivalLane="nt14_np11_0" arrivalPos="75.00" arrivalSpeed="8.93" duration="375.00" routeLength="951.09" waitingTime="126.00" waitingCount="11" stopTime="0.00" timeLoss="295.96" rerouteNo="0" devices="tripinfo_f_1_3.18" vType="type1" speedFactor="1.01" vaporized=""/>
    <tripinfo id="f_1_3.19" depart="485.00" departLane="np3_nt3_0" departPos="0.00" departSpeed="0.00" departDelay="96.17" arrival="860.00" arrivalLane="nt14_np11_0" arrivalPos="75.00" arrivalSpeed="10.55" duration="375.00" routeLength="951.09" waitingTime="144.00" waitingCount="10" stopTime="0.00" timeLoss="302.45" rerouteNo="0" devices="tripinfo_f_1_3.19" vType="type1" speedFactor="1.10" vaporized=""/>
    <tripinfo id="f_1_3.20" depart="488.00" departLane="np3_nt3_0" departPos="0.00" departSpeed="0.00" departDelay="94.50" arrival="862.00" arrivalLane="nt14_np11_0" arrivalPos="75.00" arrivalSpeed="11.17" duration="374.00" routeLength="951.09" waitingTime="143.00" waitingCount="12" stopTime="0.00" timeLoss="297.42" rerouteNo="0" devices="tripinfo_f_1_3.20" vType="type1" speedFactor="1.05" vaporized=""/>