<?xml version="1.0" encoding="UTF-8"?>

<!-- generated on 2023-08-30 12:42:31 by Eclipse SUMO libsumo Version 1.18.0
<configuration xmlns:xsi="http://www.w3.org/2001/XMLSchema-instance" xsi:noNamespaceSchemaLocation="http://sumo.dlr.de/xsd/libsumoConfiguration.xsd">

    <input>
        <net-file value="/home/stefan/RESCO/./environments/arterial4x4/arterial4x4.net.xml"/>
        <route-files value="/home/stefan/RESCO/./environments/arterial4x4/arterial4x4_65.rou.xml"/>
    </input>

    <output>
        <tripinfo-output value="/home/stefan/results/ITRPO-tr0-arterial4x4-0-drq_norm-wait_norm/tripinfo_65.xml"/>
        <tripinfo-output.write-unfinished value="true"/>
    </output>

    <processing>
        <time-to-teleport value="-1"/>
    </processing>

    <report>
        <no-warnings value="True"/>
        <no-step-log value="True"/>
    </report>

    <random_number>
        <random value="true"/>
    </random_number>

</configuration>
-->

<tripinfos xmlns:xsi="http://www.w3.org/2001/XMLSchema-instance" xsi:noNamespaceSchemaLocation="http://sumo.dlr.de/xsd/tripinfo_file.xsd">
    <tripinfo id="f_0_3.0" depart="0.00" departLane="np3_nt3_0" departPos="31.39" departSpeed="0.00" departDelay="0.00" arrival="117.00" arrivalLane="nt14_np11_0" arrivalPos="75.00" arrivalSpeed="10.17" duration="117.00" routeLength="919.70" waitingTime="21.00" waitingCount="3" stopTime="0.00" timeLoss="45.52" rerouteNo="0" devices="tripinfo_f_0_3.0" vType="type1" speedFactor="1.08" vaporized=""/>
    <tripinfo id="f_0_3.1" depart="9.00" departLane="np3_nt3_0" departPos="29.79" departSpeed="0.00" departDelay="0.82" arrival="118.00" arrivalLane="nt14_np11_0" arrivalPos="75.00" arrivalSpeed="11.24" duration="109.00" routeLength="921.30" waitingTime="19.00" waitingCount="3" stopTime="0.00" timeLoss="44.05" rerouteNo="0" devices="tripinfo_f_0_3.1" vType="type1" speedFactor="1.18" vaporized=""/>
    <tripinfo id="f_0_2.0" depart="0.00" departLane="np2_nt2_0" departPos="63.76" departSpeed="0.00" departDelay="0.00" arrival="160.00" arrivalLane="nt15_np10_0" arrivalPos="75.00" arrivalSpeed="7.31" duration="160.00" routeLength="887.32" waitingTime="40.00" waitingCount="4" stopTime="0.00" timeLoss="63.67" rerouteNo="0" devices="tripinfo_f_0_2.0" vType="type1" speedFactor="0.77" vaporized=""/>
    <tripinfo id="f_0_2.1" depart="9.00" departLane="np2_nt2_0" departPos="26.32" departSpeed="0.00" departDelay="0.82" arrival="167.00" arrivalLane="nt15_np10_0" arrivalPos="75.00" arrivalSpeed="10.24" duration="158.00" routeLength="924.76" waitingTime="38.00" waitingCount="6" stopTime="0.00" timeLoss="80.66" rerouteNo="0" devices="tripinfo_f_0_2.1" vType="type1" speedFactor="1.00" vaporized=""/>
    <tripinfo id="f_0_2.2" depart="17.00" departLane="np2_nt2_0" departPos="32.63" departSpeed="0.00" departDelay="0.64" arrival="169.00" arrivalLane="nt15_np10_0" arrivalPos="75.00" arrivalSpeed="10.37" duration="152.00" routeLength="918.45" waitingTime="30.00" waitingCount="4" stopTime="0.00" timeLoss="79.37" rerouteNo="0" devices="tripinfo_f_0_2.2" vType="type1" speedFactor="1.06" vaporized=""/>
    <tripinfo id="f_0_1.0" depart="0.00" departLane="np16_nt1_0" departPos="25.75" departSpeed="0.00" departDelay="0.00" arrival="170.00" arrivalLane="nt16_np8_0" arrivalPos="75.00" arrivalSpeed="20.63" duration="170.00" routeLength="1322.13" waitingTime="40.00" waitingCount="5" stopTime="0.00" timeLoss="80.17" rerouteNo="0" devices="tripinfo_f_0_1.0" vType="type1" speedFactor="1.03" vaporized=""/>
    <tripinfo id="f_0_1.1" depart="14.00" departLane="np16_nt1_0" departPos="44.54" departSpeed="0.00" departDelay="0.36" arrival="183.00" arrivalLane="nt16_np8_0" arrivalPos="75.00" arrivalSpeed="18.02" duration="169.00" routeLength="1303.34" waitingTime="29.00" waitingCount="5" stopTime="0.00" timeLoss="75.27" rerouteNo="0" devices="tripinfo_f_0_1.1" vType="type1" speedFactor="0.98" vaporized=""/>
    <tripinfo id="f_0_0.0" depart="0.00" departLane="np13_nt13_0" departPos="57.10" departSpeed="0.00" departDelay="0.00" arrival="218.00" arrivalLane="nt4_np5_0" arrivalPos="75.00" arrivalSpeed="20.93" duration="218.00" routeLength="1290.79" waitingTime="98.00" waitingCount="7" stopTime="0.00" timeLoss="136.30" rerouteNo="0" devices="tripinfo_f_0_0.0" vType="type1" speedFactor="1.11" vaporized=""/>
    <tripinfo id="f_0_0.1" depart="14.00" departLane="np13_nt13_0" departPos="59.50" departSpeed="0.00" departDelay="0.36" arrival="238.00" arrivalLane="nt4_np5_0" arrivalPos="75.00" arrivalSpeed="21.52" duration="224.00" routeLength="1288.39" waitingTime="110.00" waitingCount="8" stopTime="0.00" timeLoss="145.99" rerouteNo="0" devices="tripinfo_f_0_0.1" vType="type1" speedFactor="1.16" vaporized=""/>
    <tripinfo id="f_0_0.2" depart="28.00" departLane="np13_nt13_0" departPos="47.20" departSpeed="0.00" departDelay="0.73" arrival="249.00" arrivalLane="nt4_np5_0" arrivalPos="75.00" arrivalSpeed="15.91" duration="221.00" routeLength="1300.69" waitingTime="80.00" waitingCount="5" stopTime="0.00" timeLoss="117.98" rerouteNo="0" devices="tripinfo_f_0_0.2" vType="type1" speedFactor="0.88" vaporized=""/>
    <tripinfo id="f_0_0.3" depart="41.00" departLane="np13_nt13_0" departPos="21.07" departSpeed="0.00" departDelay="0.09" arrival="251.00" arrivalLane="nt4_np5_0" arrivalPos="75.00" arrivalSpeed="17.92" duration="210.00" routeLength="1326.82" waitingTime="68.00" waitingCount="5" stopTime="0.00" timeLoss="107.81" rerouteNo="0" devices="tripinfo_f_0_0.3" vType="type1" speedFactor="0.91" vaporized=""/>
    <tripinfo id="f_0_0.4" depart="55.00" departLane="np13_nt13_0" departPos="34.49" departSpeed="0.00" departDelay="0.46" arrival="255.00" arrivalLane="nt4_np5_0" arrivalPos="75.00" arrivalSpeed="17.64" duration="200.00" routeLength="1313.40" waitingTime="64.00" waitingCount="5" stopTime="0.00" timeLoss="105.72" rerouteNo="0" devices="tripinfo_f_0_0.4" vType="type1" speedFactor="0.97" vaporized=""/>
    <tripinfo id="f_0_0.5" depart="69.00" departLane="np13_nt13_0" departPos="49.67" departSpeed="0.00" departDelay="0.82" arrival="261.00" arrivalLane="nt4_np5_0" arrivalPos="75.00" arrivalSpeed="15.94" duration="192.00" routeLength="1298.22" waitingTime="41.00" waitingCount="7" stopTime="0.00" timeLoss="83.23" rerouteNo="0" devices="tripinfo_f_0_0.5" vType="type1" speedFactor="0.84" vaporized=""/>
    <tripinfo id="f_0_2.3" depart="25.00" departLane="np2_nt2_0" departPos="0.48" departSpeed="0.00" departDelay="0.45" arrival="265.00" arrivalLane="nt15_np10_0" arrivalPos="75.00" arrivalSpeed="6.48" duration="240.00" routeLength="950.60" waitingTime="109.00" waitingCount="4" stopTime="0.00" timeLoss="137.84" rerouteNo="0" devices="tripinfo_f_0_2.3" vType="type1" speedFactor="0.78" vaporized=""/>
    <tripinfo id="f_0_2.4" depart="33.00" departLane="np2_nt2_0" departPos="46.09" departSpeed="0.00" departDelay="0.27" arrival="266.00" arrivalLane="nt15_np10_0" arrivalPos="75.00" arrivalSpeed="11.95" duration="233.00" routeLength="904.99" waitingTime="121.00" waitingCount="7" stopTime="0.00" timeLoss="167.47" rerouteNo="0" devices="tripinfo_f_0_2.4" vType="type1" speedFactor="1.14" vaporized=""/>
    <tripinfo id="f_0_0.6" depart="82.00" departLane="np13_nt13_0" departPos="60.16" departSpeed="0.00" departDelay="0.18" arrival="273.00" arrivalLane="nt4_np5_0" arrivalPos="75.00" arrivalSpeed="19.00" duration="191.00" routeLength="1287.73" waitingTime="49.00" waitingCount="7" stopTime="0.00" timeLoss="104.20" rerouteNo="0" devices="tripinfo_f_0_0.6" vType="type1" speedFactor="1.03" vaporized=""/>
    <tripinfo id="f_0_2.5" depart="41.00" departLane="np2_nt2_0" departPos="22.45" departSpeed="0.00" departDelay="0.09" arrival="295.00" arrivalLane="nt15_np10_0" arrivalPos="75.00" arrivalSpeed="7.40" duration="254.00" routeLength="928.63" waitingTime="107.00" waitingCount="8" stopTime="0.00" timeLoss="153.61" rerouteNo="0" devices="tripinfo_f_0_2.5" vType="type1" speedFactor="0.78" vaporized=""/>
    <tripinfo id="f_0_3.2" depart="17.00" departLane="np3_nt3_0" departPos="15.60" departSpeed="0.00" departDelay="0.64" arrival="296.00" arrivalLane="nt14_np11_0" arrivalPos="75.00" arrivalSpeed="10.87" duration="279.00" routeLength="935.49" waitingTime="178.00" waitingCount="6" stopTime="0.00" timeLoss="205.91" rerouteNo="0" devices="tripinfo_f_0_3.2" vType="type1" speedFactor="1.07" vaporized=""/>
    <tripinfo id="f_0_3.3" depart="25.00" departLane="np3_nt3_0" departPos="3.51" departSpeed="0.00" departDelay="0.45" arrival="298.00" arrivalLane="nt14_np11_0" arrivalPos="75.00" arrivalSpeed="11.79" duration="273.00" routeLength="947.58" waitingTime="173.00" waitingCount="6" stopTime="0.00" timeLoss="203.52" rerouteNo="0" devices="tripinfo_f_0_3.3" vType="type1" speedFactor="1.15" vaporized=""/>
    <tripinfo id="f_0_0.7" depart="96.00" departLane="np13_nt13_0" departPos="38.49" departSpeed="0.00" departDelay="0.55" arrival="303.00" arrivalLane="nt4_np5_0" arrivalPos="75.00" arrivalSpeed="21.97" duration="207.00" routeLength="1309.40" waitingTime="91.00" waitingCount="6" stopTime="0.00" timeLoss="126.90" rerouteNo="0" devices="tripinfo_f_0_0.7" vType="type1" speedFactor="1.14" vaporized=""/>
    <tripinfo id="f_0_3.4" depart="33.00" departLane="np3_nt3_0" departPos="38.63" departSpeed="0.00" departDelay="0.27" arrival="307.00" arrivalLane="nt14_np11_0" arrivalPos="75.00" arrivalSpeed="11.15" duration="274.00" routeLength="912.46" waitingTime="170.00" waitingCount="8" stopTime="0.00" timeLoss="202.66" rerouteNo="0" devices="tripinfo_f_0_3.4" vType="type1" speedFactor="1.08" vaporized=""/>
    <tripinfo id="f_0_1.2" depart="28.00" departLane="np16_nt1_0" departPos="30.49" departSpeed="0.00" departDelay="0.73" arrival="314.00" arrivalLane="nt16_np8_0" arrivalPos="75.00" arrivalSpeed="14.62" duration="286.00" routeLength="1317.39" waitingTime="127.00" waitingCount="8" stopTime="0.00" timeLoss="170.04" rerouteNo="0" devices="tripinfo_f_0_1.2" vType="type1" speedFactor="0.80" vaporized=""/>
    <tripinfo id="f_0_3.5" depart="41.00" departLane="np3_nt3_0" departPos="40.40" departSpeed="0.00" departDelay="0.09" arrival="316.00" arrivalLane="nt14_np11_0" arrivalPos="75.00" arrivalSpeed="11.86" duration="275.00" routeLength="910.69" waitingTime="174.00" waitingCount="7" stopTime="0.00" timeLoss="208.92" rerouteNo="0" devices="tripinfo_f_0_3.5" vType="type1" speedFactor="1.15" vaporized=""/>
    <tripinfo id="f_0_3.6" depart="50.00" departLane="np3_nt3_0" departPos="22.24" departSpeed="0.00" departDelay="0.91" arrival="318.00" arrivalLane="nt14_np11_0" arrivalPos="75.00" arrivalSpeed="11.66" duration="268.00" routeLength="928.85" waitingTime="158.00" waitingCount="5" stopTime="0.00" timeLoss="194.80" rerouteNo="0" devices="tripinfo_f_0_3.6" vType="type1" speedFactor="1.06" vaporized=""/>
    <tripinfo id="f_0_0.8" depart="110.00" departLane="np13_nt13_0" departPos="34.53" departSpeed="0.00" departDelay="0.91" arrival="318.00" arrivalLane="nt4_np5_0" arrivalPos="75.00" arrivalSpeed="21.51" duration="208.00" routeLength="1313.36" waitingTime="82.00" waitingCount="9" stopTime="0.00" timeLoss="126.99" rerouteNo="0" devices="tripinfo_f_0_0.8" vType="type1" speedFactor="1.13" vaporized=""/>
    <tripinfo id="f_0_2.6" depart="50.00" departLane="np2_nt2_0" departPos="47.47" departSpeed="0.00" departDelay="0.91" arrival="348.00" arrivalLane="nt15_np10_0" arrivalPos="75.00" arrivalSpeed="9.02" duration="298.00" routeLength="903.61" waitingTime="159.00" waitingCount="9" stopTime="0.00" timeLoss="219.41" rerouteNo="0" devices="tripinfo_f_0_2.6" vType="type1" speedFactor="0.96" vaporized=""/>
    <tripinfo id="f_0_2.7" depart="58.00" departLane="np2_nt2_0" departPos="24.70" departSpeed="0.00" departDelay="0.73" arrival="352.00" arrivalLane="nt15_np10_0" arrivalPos="75.00" arrivalSpeed="10.19" duration="294.00" routeLength="926.38" waitingTime="146.00" waitingCount="8" stopTime="0.00" timeLoss="210.06" rerouteNo="0" devices="tripinfo_f_0_2.7" vType="type1" speedFactor="0.93" vaporized=""/>
    <tripinfo id="f_0_3.7" depart="58.00" departLane="np3_nt3_0" departPos="20.48" departSpeed="0.00" departDelay="0.73" arrival="352.00" arrivalLane="nt14_np11_0" arrivalPos="75.00" arrivalSpeed="11.43" duration="294.00" routeLength="930.61" waitingTime="177.00" waitingCount="7" stopTime="0.00" timeLoss="219.14" rerouteNo="0" devices="tripinfo_f_0_3.7" vType="type1" speedFactor="1.06" vaporized=""/>
    <tripinfo id="f_0_3.8" depart="66.00" departLane="np3_nt3_0" departPos="17.84" departSpeed="0.00" departDelay="0.54" arrival="355.00" arrivalLane="nt14_np11_0" arrivalPos="75.00" arrivalSpeed="8.70" duration="289.00" routeLength="933.25" waitingTime="156.00" waitingCount="8" stopTime="0.00" timeLoss="207.92" rerouteNo="0" devices="tripinfo_f_0_3.8" vType="type1" speedFactor="0.97" vaporized=""/>
    <tripinfo id="f_0_3.9" depart="74.00" departLane="np3_nt3_0" departPos="9.18" departSpeed="0.00" departDelay="0.36" arrival="361.00" arrivalLane="nt14_np11_0" arrivalPos="75.00" arrivalSpeed="10.13" duration="287.00" routeLength="941.91" waitingTime="152.00" waitingCount="10" stopTime="0.00" timeLoss="216.27" rerouteNo="0" devices="tripinfo_f_0_3.9" vType="type1" speedFactor="1.12" vaporized=""/>
    <tripinfo id="f_0_3.14" depart="229.00" departLane="np3_nt3_0" departPos="43.58" departSpeed="0.00" departDelay="114.45" arrival="366.00" arrivalLane="nt14_np11_0" arrivalPos="75.00" arrivalSpeed="8.12" duration="137.00" routeLength="907.51" waitingTime="20.00" waitingCount="5" stopTime="0.00" timeLoss="49.54" rerouteNo="0" devices="tripinfo_f_0_3.14" vType="type1" speedFactor="0.88" vaporized=""/>
    <tripinfo id="f_0_2.8" depart="66.00" departLane="np2_nt2_0" departPos="20.52" departSpeed="0.00" departDelay="0.54" arrival="367.00" arrivalLane="nt15_np10_0" arrivalPos="75.00" arrivalSpeed="9.81" duration="301.00" routeLength="930.56" waitingTime="160.00" waitingCount="11" stopTime="0.00" timeLoss="228.06" rerouteNo="0" devices="tripinfo_f_0_2.8" vType="type1" speedFactor="1.07" vaporized=""/>
    <tripinfo id="f_0_1.3" depart="41.00" departLane="np16_nt1_0" departPos="5.56" departSpeed="0.00" departDelay="0.09" arrival="368.00" arrivalLane="nt16_np8_0" arrivalPos="75.00" arrivalSpeed="21.38" duration="327.00" routeLength="1342.32" waitingTime="160.00" waitingCount="9" stopTime="0.00" timeLoss="241.87" rerouteNo="0" devices="tripinfo_f_0_1.3" vType="type1" speedFactor="1.10" vaporized=""/>
    <tripinfo id="f_0_1.4" depart="55.00" departLane="np16_nt1_0" departPos="41.45" departSpeed="0.00" departDelay="0.46" arrival="370.00" arrivalLane="nt16_np8_0" arrivalPos="75.00" arrivalSpeed="20.89" duration="315.00" routeLength="1306.43" waitingTime="149.00" waitingCount="10" stopTime="0.00" timeLoss="230.13" rerouteNo="0" devices="tripinfo_f_0_1.4" vType="type1" speedFactor="1.08" vaporized=""/>
    <tripinfo id="f_0_1.5" depart="69.00" departLane="np16_nt1_0" departPos="18.88" departSpeed="0.00" departDelay="0.82" arrival="383.00" arrivalLane="nt16_np8_0" arrivalPos="75.00" arrivalSpeed="22.42" duration="314.00" routeLength="1329.00" waitingTime="146.00" waitingCount="12" stopTime="0.00" timeLoss="231.47" rerouteNo="0" devices="tripinfo_f_0_1.5" vType="type1" speedFactor="1.12" vaporized=""/>
    <tripinfo id="f_0_2.9" depart="74.00" departLane="np2_nt2_0" departPos="28.89" departSpeed="0.00" departDelay="0.36" arrival="387.00" arrivalLane="nt15_np10_0" arrivalPos="75.00" arrivalSpeed="10.89" duration="313.00" routeLength="922.19" waitingTime="161.00" waitingCount="13" stopTime="0.00" timeLoss="237.39" rerouteNo="0" devices="tripinfo_f_0_2.9" vType="type1" speedFactor="1.02" vaporized=""/>
    <tripinfo id="f_0_0.9" depart="123.00" departLane="np13_nt13_0" departPos="51.67" departSpeed="0.00" departDelay="0.28" arrival="394.00" arrivalLane="nt4_np5_0" arrivalPos="75.00" arrivalSpeed="18.16" duration="271.00" routeLength="1296.22" waitingTime="122.00" waitingCount="9" stopTime="0.00" timeLoss="174.73" rerouteNo="0" devices="tripinfo_f_0_0.9" vType="type1" speedFactor="0.94" vaporized=""/>
    <tripinfo id="f_0_0.10" depart="137.00" departLane="np13_nt13_0" departPos="31.55" departSpeed="0.00" departDelay="0.64" arrival="395.00" arrivalLane="nt4_np5_0" arrivalPos="75.00" arrivalSpeed="17.23" duration="258.00" routeLength="1316.34" waitingTime="116.00" waitingCount="7" stopTime="0.00" timeLoss="163.59" rerouteNo="0" devices="tripinfo_f_0_0.10" vType="type1" speedFactor="0.98" vaporized=""/>
    <tripinfo id="f_0_2.10" depart="82.00" departLane="np2_nt2_0" departPos="19.28" departSpeed="0.00" departDelay="0.18" arrival="401.00" arrivalLane="nt15_np10_0" arrivalPos="75.00" arrivalSpeed="12.77" duration="319.00" routeLength="931.80" waitingTime="151.00" waitingCount="11" stopTime="0.00" timeLoss="254.06" rerouteNo="0" devices="tripinfo_f_0_2.10" vType="type1" speedFactor="1.20" vaporized=""/>
    <tripinfo id="f_0_3.10" depart="82.00" departLane="np3_nt3_0" departPos="1.33" departSpeed="0.00" departDelay="0.18" arrival="402.00" arrivalLane="nt14_np11_0" arrivalPos="75.00" arrivalSpeed="9.09" duration="320.00" routeLength="949.76" waitingTime="168.00" waitingCount="11" stopTime="0.00" timeLoss="242.70" rerouteNo="0" devices="tripinfo_f_0_3.10" vType="type1" speedFactor="1.03" vaporized=""/>
    <tripinfo id="f_0_0.11" depart="150.00" departLane="np13_nt13_0" departPos="4.13" departSpeed="0.00" departDelay="0.00" arrival="403.00" arrivalLane="nt4_np5_0" arrivalPos="75.00" arrivalSpeed="19.22" duration="253.00" routeLength="1343.76" waitingTime="107.00" waitingCount="10" stopTime="0.00" timeLoss="166.13" rerouteNo="0" devices="tripinfo_f_0_0.11" vType="type1" speedFactor="1.07" vaporized=""/>
    <tripinfo id="f_0_3.11" depart="158.00" departLane="np3_nt3_0" departPos="0.00" departSpeed="0.00" departDelay="68.00" arrival="404.00" arrivalLane="nt14_np11_0" arrivalPos="75.00" arrivalSpeed="9.13" duration="246.00" routeLength="951.09" waitingTime="99.00" waitingCount="8" stopTime="0.00" timeLoss="165.88" rerouteNo="0" devices="tripinfo_f_0_3.11" vType="type1" speedFactor="1.00" vaporized=""/>
    <tripinfo id="f_0_0.12" depart="164.00" departLane="np13_nt13_0" departPos="13.79" departSpeed="0.00" departDelay="0.37" arrival="405.00" arrivalLane="nt4_np5_0" arrivalPos="75.00" arrivalSpeed="19.75" duration="241.00" routeLength="1334.10" waitingTime="94.00" waitingCount="8" stopTime="0.00" timeLoss="149.09" rerouteNo="0" devices="tripinfo_f_0_0.12" vType="type1" speedFactor="1.01" vaporized=""/>
    <tripinfo id="f_0_2.11" depart="90.00" departLane="np2_nt2_0" departPos="4.15" departSpeed="0.00" departDelay="0.00" arrival="406.00" arrivalLane="nt15_np10_0" arrivalPos="75.00" arrivalSpeed="7.07" duration="316.00" routeLength="946.93" waitingTime="149.00" waitingCount="14" stopTime="0.00" timeLoss="222.08" rerouteNo="0" devices="tripinfo_f_0_2.11" vType="type1" speedFactor="0.85" vaporized=""/>
    <tripinfo id="f_0_0.13" depart="178.00" departLane="np13_nt13_0" departPos="10.26" departSpeed="0.00" departDelay="0.73" arrival="406.00" arrivalLane="nt4_np5_0" arrivalPos="75.00" arrivalSpeed="20.29" duration="228.00" routeLength="1337.63" waitingTime="82.00" waitingCount="8" stopTime="0.00" timeLoss="146.36" rerouteNo="0" devices="tripinfo_f_0_0.13" vType="type1" speedFactor="1.13" vaporized=""/>
    <tripinfo id="f_0_2.12" depart="99.00" departLane="np2_nt2_0" departPos="1.03" departSpeed="0.00" departDelay="0.82" arrival="408.00" arrivalLane="nt15_np10_0" arrivalPos="75.00" arrivalSpeed="10.02" duration="309.00" routeLength="950.05" waitingTime="126.00" waitingCount="13" stopTime="0.00" timeLoss="236.43" rerouteNo="0" devices="tripinfo_f_0_2.12" vType="type1" speedFactor="1.11" vaporized=""/>
    <tripinfo id="f_0_0.14" depart="191.00" departLane="np13_nt13_0" departPos="58.09" departSpeed="0.00" departDelay="0.10" arrival="408.00" arrivalLane="nt4_np5_0" arrivalPos="75.00" arrivalSpeed="19.83" duration="217.00" routeLength="1289.80" waitingTime="75.00" waitingCount="9" stopTime="0.00" timeLoss="133.78" rerouteNo="0" devices="tripinfo_f_0_0.14" vType="type1" speedFactor="1.09" vaporized=""/>
    <tripinfo id="f_0_2.13" depart="107.00" departLane="np2_nt2_0" departPos="13.67" departSpeed="0.00" departDelay="0.63" arrival="410.00" arrivalLane="nt15_np10_0" arrivalPos="75.00" arrivalSpeed="11.68" duration="303.00" routeLength="937.41" waitingTime="158.00" waitingCount="9" stopTime="0.00" timeLoss="228.44" rerouteNo="0" devices="tripinfo_f_0_2.13" vType="type1" speedFactor="1.07" vaporized=""/>
    <tripinfo id="f_0_3.12" depart="173.00" departLane="np3_nt3_0" departPos="0.00" departSpeed="0.00" departDelay="74.82" arrival="411.00" arrivalLane="nt14_np11_0" arrivalPos="75.00" arrivalSpeed="11.49" duration="238.00" routeLength="951.09" waitingTime="101.00" waitingCount="8" stopTime="0.00" timeLoss="163.01" rerouteNo="0" devices="tripinfo_f_0_3.12" vType="type1" speedFactor="1.06" vaporized=""/>
    <tripinfo id="f_0_1.6" depart="82.00" departLane="np16_nt1_0" departPos="20.12" departSpeed="0.00" departDelay="0.18" arrival="414.00" arrivalLane="nt16_np8_0" arrivalPos="75.00" arrivalSpeed="14.23" duration="332.00" routeLength="1327.76" waitingTime="144.00" waitingCount="13" stopTime="0.00" timeLoss="218.66" rerouteNo="0" devices="tripinfo_f_0_1.6" vType="type1" speedFactor="0.82" vaporized=""/>
    <tripinfo id="f_0_2.14" depart="115.00" departLane="np2_nt2_0" departPos="33.15" departSpeed="0.00" departDelay="0.45" arrival="417.00" arrivalLane="nt15_np10_0" arrivalPos="75.00" arrivalSpeed="10.75" duration="302.00" routeLength="917.93" waitingTime="157.00" waitingCount="11" stopTime="0.00" timeLoss="231.05" rerouteNo="0" devices="tripinfo_f_0_2.14" vType="type1" speedFactor="1.09" vaporized=""/>
    <tripinfo id="f_0_3.13" depart="199.00" departLane="np3_nt3_0" departPos="0.00" departSpeed="0.00" departDelay="92.63" arrival="423.00" arrivalLane="nt14_np11_0" arrivalPos="75.00" arrivalSpeed="6.71" duration="224.00" routeLength="951.09" waitingTime="71.00" waitingCount="7" stopTime="0.00" timeLoss="122.61" rerouteNo="0" devices="tripinfo_f_0_3.13" vType="type1" speedFactor="0.79" vaporized=""/>
    <tripinfo id="f_0_2.15" depart="123.00" departLane="np2_nt2_0" departPos="19.76" departSpeed="0.00" departDelay="0.27" arrival="426.00" arrivalLane="nt15_np10_0" arrivalPos="75.00" arrivalSpeed="11.57" duration="303.00" routeLength="931.32" waitingTime="157.00" waitingCount="10" stopTime="0.00" timeLoss="232.33" rerouteNo="0" devices="tripinfo_f_0_2.15" vType="type1" speedFactor="1.10" vaporized=""/>
    <tripinfo id="f_0_0.15" depart="205.00" departLane="np13_nt13_0" departPos="60.58" departSpeed="0.00" departDelay="0.46" arrival="428.00" arrivalLane="nt4_np5_0" arrivalPos="75.00" arrivalSpeed="21.56" duration="223.00" routeLength="1287.31" waitingTime="85.00" waitingCount="8" stopTime="0.00" timeLoss="139.92" rerouteNo="0" devices="tripinfo_f_0_0.15" vType="type1" speedFactor="1.08" vaporized=""/>
    <tripinfo id="f_0_1.14" depart="191.00" departLane="np16_nt1_0" departPos="66.58" departSpeed="0.00" departDelay="0.10" arrival="429.00" arrivalLane="nt16_np8_0" arrivalPos="75.00" arrivalSpeed="19.73" duration="238.00" routeLength="1281.30" waitingTime="111.00" waitingCount="8" stopTime="0.00" timeLoss="152.81" rerouteNo="0" devices="tripinfo_f_0_1.14" vType="type1" speedFactor="1.06" vaporized=""/>
    <tripinfo id="f_0_0.16" depart="219.00" departLane="np13_nt13_0" departPos="25.53" departSpeed="0.00" departDelay="0.82" arrival="430.00" arrivalLane="nt4_np5_0" arrivalPos="75.00" arrivalSpeed="18.88" duration="211.00" routeLength="1322.36" waitingTime="74.00" waitingCount="8" stopTime="0.00" timeLoss="118.66" rerouteNo="0" devices="tripinfo_f_0_0.16" vType="type1" speedFactor="1.00" vaporized=""/>
    <tripinfo id="f_0_0.17" depart="232.00" departLane="np13_nt13_0" departPos="43.86" departSpeed="0.00" departDelay="0.19" arrival="453.00" arrivalLane="nt4_np5_0" arrivalPos="75.00" arrivalSpeed="18.08" duration="221.00" routeLength="1304.03" waitingTime="77.00" waitingCount="9" stopTime="0.00" timeLoss="131.28" rerouteNo="0" devices="tripinfo_f_0_0.17" vType="type1" speedFactor="1.01" vaporized=""/>
    <tripinfo id="f_0_0.18" depart="246.00" departLane="np13_nt13_0" departPos="50.36" departSpeed="0.00" departDelay="0.55" arrival="475.00" arrivalLane="nt4_np5_0" arrivalPos="75.00" arrivalSpeed="13.90" duration="229.00" routeLength="1297.53" waitingTime="60.00" waitingCount="7" stopTime="0.00" timeLoss="110.06" rerouteNo="0" devices="tripinfo_f_0_0.18" vType="type1" speedFactor="0.77" vaporized=""/>
    <tripinfo id="f_0_0.19" depart="260.00" departLane="np13_nt13_0" departPos="44.73" departSpeed="0.00" departDelay="0.92" arrival="476.00" arrivalLane="nt4_np5_0" arrivalPos="75.00" arrivalSpeed="16.35" duration="216.00" routeLength="1303.16" waitingTime="76.00" waitingCount="8" stopTime="0.00" timeLoss="126.41" rerouteNo="0" devices="tripinfo_f_0_0.19" vType="type1" speedFactor="1.01" vaporized=""/>
    <tripinfo id="f_0_0.20" depart="273.00" departLane="np13_nt13_0" departPos="63.20" departSpeed="0.00" departDelay="0.28" arrival="478.00" arrivalLane="nt4_np5_0" arrivalPos="75.00" arrivalSpeed="15.05" duration="205.00" routeLength="1284.69" waitingTime="67.00" waitingCount="6" stopTime="0.00" timeLoss="100.02" rerouteNo="0" devices="tripinfo_f_0_0.20" vType="type1" speedFactor="0.86" vaporized=""/>
    <tripinfo id="f_0_3.15" depart="232.00" departLane="np3_nt3_0" departPos="0.00" departSpeed="0.00" departDelay="109.27" arrival="488.00" arrivalLane="nt14_np11_0" arrivalPos="75.00" arrivalSpeed="9.68" duration="256.00" routeLength="951.09" waitingTime="121.00" waitingCount="8" stopTime="0.00" timeLoss="169.58" rerouteNo="0" devices="tripinfo_f_0_3.15" vType="type1" speedFactor="0.93" vaporized=""/>
    <tripinfo id="f_0_0.21" depart="287.00" departLane="np13_nt13_0" departPos="41.27" departSpeed="0.00" departDelay="0.64" arrival="489.00" arrivalLane="nt4_np5_0" arrivalPos="75.00" arrivalSpeed="14.76" duration="202.00" routeLength="1306.62" waitingTime="45.00" waitingCount="7" stopTime="0.00" timeLoss="92.06" rerouteNo="0" devices="tripinfo_f_0_0.21" vType="type1" speedFactor="0.83" vaporized=""/>
    <tripinfo id="f_0_3.16" depart="237.00" departLane="np3_nt3_0" departPos="0.00" departSpeed="0.00" departDelay="106.09" arrival="490.00" arrivalLane="nt14_np11_0" arrivalPos="75.00" arrivalSpeed="10.38" duration="253.00" routeLength="951.09" waitingTime="120.00" waitingCount="7" stopTime="0.00" timeLoss="180.09" rerouteNo="0" devices="tripinfo_f_0_3.16" vType="type1" speedFactor="1.10" vaporized=""/>
    <tripinfo id="f_1_0.0" depart="300.00" departLane="np13_nt13_0" departPos="42.60" departSpeed="0.00" departDelay="0.00" arrival="491.00" arrivalLane="nt4_np5_0" arrivalPos="75.00" arrivalSpeed="19.84" duration="191.00" routeLength="1305.29" waitingTime="36.00" waitingCount="4" stopTime="0.00" timeLoss="100.08" rerouteNo="0" devices="tripinfo_f_1_0.0" vType="type1" speedFactor="1.01" vaporized=""/>
    <tripinfo id="f_0_0.22" depart="300.00" departLane="np13_nt13_0" departPos="10.05" departSpeed="0.00" departDelay="0.01" arrival="492.00" arrivalLane="nt4_np5_0" arrivalPos="75.00" arrivalSpeed="18.39" duration="192.00" routeLength="1337.84" waitingTime="31.00" waitingCount="4" stopTime="0.00" timeLoss="102.11" rerouteNo="0" devices="tripinfo_f_0_0.22" vType="type1" speedFactor="1.04" vaporized=""/>
    <tripinfo id="f_1_0.1" depart="308.00" departLane="np13_nt13_0" departPos="4.50" departSpeed="0.00" departDelay="0.19" arrival="494.00" arrivalLane="nt4_np5_0" arrivalPos="75.00" arrivalSpeed="18.58" duration="186.00" routeLength="1343.39" waitingTime="30.00" waitingCount="4" stopTime="0.00" timeLoss="93.61" rerouteNo="0" devices="tripinfo_f_1_0.1" vType="type1" speedFactor="1.01" vaporized=""/>
    <tripinfo id="f_1_0.2" depart="316.00" departLane="np13_nt13_0" departPos="4.33" departSpeed="0.00" departDelay="0.38" arrival="503.00" arrivalLane="nt4_np5_0" arrivalPos="75.00" arrivalSpeed="21.43" duration="187.00" routeLength="1343.56" waitingTime="33.00" waitingCount="5" stopTime="0.00" timeLoss="106.91" rerouteNo="0" devices="tripinfo_f_1_0.2" vType="type1" speedFactor="1.16" vaporized=""/>
    <tripinfo id="f_0_2.16" depart="131.00" departLane="np2_nt2_0" departPos="47.77" departSpeed="0.00" departDelay="0.09" arrival="521.00" arrivalLane="nt15_np10_0" arrivalPos="75.00" arrivalSpeed="6.97" duration="390.00" routeLength="903.31" waitingTime="230.00" waitingCount="8" stopTime="0.00" timeLoss="285.74" rerouteNo="0" devices="tripinfo_f_0_2.16" vType="type1" speedFactor="0.72" vaporized=""/>
    <tripinfo id="f_0_3.17" depart="241.00" departLane="np3_nt3_0" departPos="0.32" departSpeed="0.00" departDelay="101.91" arrival="523.00" arrivalLane="nt14_np11_0" arrivalPos="75.00" arrivalSpeed="10.99" duration="282.00" routeLength="950.77" waitingTime="139.00" waitingCount="9" stopTime="0.00" timeLoss="201.86" rerouteNo="0" devices="tripinfo_f_0_3.17" vType="type1" speedFactor="1.00" vaporized=""/>
    <tripinfo id="f_1_0.3" depart="324.00" departLane="np13_nt13_0" departPos="44.41" departSpeed="0.00" departDelay="0.57" arrival="523.00" arrivalLane="nt4_np5_0" arrivalPos="75.00" arrivalSpeed="16.97" duration="199.00" routeLength="1303.48" waitingTime="63.00" waitingCount="5" stopTime="0.00" timeLoss="104.08" rerouteNo="0" devices="tripinfo_f_1_0.3" vType="type1" speedFactor="0.95" vaporized=""/>
    <tripinfo id="f_1_0.4" depart="332.00" departLane="np13_nt13_0" departPos="32.89" departSpeed="0.00" departDelay="0.76" arrival="525.00" arrivalLane="nt4_np5_0" arrivalPos="75.00" arrivalSpeed="20.98" duration="193.00" routeLength="1315.00" waitingTime="62.00" waitingCount="7" stopTime="0.00" timeLoss="106.53" rerouteNo="0" devices="tripinfo_f_1_0.4" vType="type1" speedFactor="1.07" vaporized=""/>