<?xml version="1.0" encoding="UTF-8"?>

<!-- generated on 2023-08-30 12:31:24 by Eclipse SUMO libsumo Version 1.18.0
<configuration xmlns:xsi="http://www.w3.org/2001/XMLSchema-instance" xsi:noNamespaceSchemaLocation="http://sumo.dlr.de/xsd/libsumoConfiguration.xsd">

    <input>
        <net-file value="/home/stefan/RESCO/./environments/arterial4x4/arterial4x4.net.xml"/>
        <route-files value="/home/stefan/RESCO/./environments/arterial4x4/arterial4x4_35.rou.xml"/>
    </input>

    <output>
        <tripinfo-output value="/home/stefan/results/ITRPO-tr0-arterial4x4-0-drq_norm-wait_norm/tripinfo_35.xml"/>
        <tripinfo-output.write-unfinished value="true"/>
    </output>

    <processing>
        <time-to-teleport value="-1"/>
    </processing>

    <report>
        <no-warnings value="True"/>
        <no-step-log value="True"/>
    </report>

    <random_number>
        <random value="true"/>
    </random_number>

</configuration>
-->

<tripinfos xmlns:xsi="http://www.w3.org/2001/XMLSchema-instance" xsi:noNamespaceSchemaLocation="http://sumo.dlr.de/xsd/tripinfo_file.xsd">
    <tripinfo id="f_0_2.0" depart="0.00" departLane="np2_nt2_0" departPos="59.60" departSpeed="0.00" departDelay="0.00" arrival="166.00" arrivalLane="nt15_np10_0" arrivalPos="75.00" arrivalSpeed="11.96" duration="166.00" routeLength="891.48" waitingTime="77.00" waitingCount="3" stopTime="0.00" timeLoss="99.20" rerouteNo="0" devices="tripinfo_f_0_2.0" vType="type1" speedFactor="1.12" vaporized=""/>
    <tripinfo id="f_0_2.1" depart="9.00" departLane="np2_nt2_0" departPos="51.22" departSpeed="0.00" departDelay="0.82" arrival="168.00" arrivalLane="nt15_np10_0" arrivalPos="75.00" arrivalSpeed="10.34" duration="159.00" routeLength="899.86" waitingTime="60.00" waitingCount="4" stopTime="0.00" timeLoss="88.84" rerouteNo="0" devices="tripinfo_f_0_2.1" vType="type1" speedFactor="1.07" vaporized=""/>
    <tripinfo id="f_0_0.0" depart="0.00" departLane="np13_nt13_0" departPos="32.29" departSpeed="0.00" departDelay="0.00" arrival="174.00" arrivalLane="nt4_np5_0" arrivalPos="75.00" arrivalSpeed="17.85" duration="174.00" routeLength="1315.60" waitingTime="42.00" waitingCount="5" stopTime="0.00" timeLoss="81.43" rerouteNo="0" devices="tripinfo_f_0_0.0" vType="type1" speedFactor="0.99" vaporized=""/>
    <tripinfo id="f_0_3.0" depart="0.00" departLane="np3_nt3_0" departPos="49.08" departSpeed="0.00" departDelay="0.00" arrival="176.00" arrivalLane="nt14_np11_0" arrivalPos="75.00" arrivalSpeed="8.44" duration="176.00" routeLength="902.01" waitingTime="55.00" waitingCount="3" stopTime="0.00" timeLoss="86.54" rerouteNo="0" devices="tripinfo_f_0_3.0" vType="type1" speedFactor="0.85" vaporized=""/>
    <tripinfo id="f_0_2.2" depart="17.00" departLane="np2_nt2_0" departPos="58.14" departSpeed="0.00" departDelay="0.64" arrival="192.00" arrivalLane="nt15_np10_0" arrivalPos="75.00" arrivalSpeed="10.81" duration="175.00" routeLength="892.94" waitingTime="66.00" waitingCount="7" stopTime="0.00" timeLoss="102.99" rerouteNo="0" devices="tripinfo_f_0_2.2" vType="type1" speedFactor="1.04" vaporized=""/>
    <tripinfo id="f_0_3.1" depart="9.00" departLane="np3_nt3_0" departPos="41.11" departSpeed="0.00" departDelay="0.82" arrival="199.00" arrivalLane="nt14_np11_0" arrivalPos="75.00" arrivalSpeed="8.41" duration="190.00" routeLength="909.98" waitingTime="77.00" waitingCount="4" stopTime="0.00" timeLoss="103.54" rerouteNo="0" devices="tripinfo_f_0_3.1" vType="type1" speedFactor="0.88" vaporized=""/>
    <tripinfo id="f_0_3.2" depart="17.00" departLane="np3_nt3_0" departPos="22.08" departSpeed="0.00" departDelay="0.64" arrival="201.00" arrivalLane="nt14_np11_0" arrivalPos="75.00" arrivalSpeed="9.67" duration="184.00" routeLength="929.01" waitingTime="66.00" waitingCount="4" stopTime="0.00" timeLoss="95.53" rerouteNo="0" devices="tripinfo_f_0_3.2" vType="type1" speedFactor="0.88" vaporized=""/>
    <tripinfo id="f_0_3.3" depart="25.00" departLane="np3_nt3_0" departPos="20.38" departSpeed="0.00" departDelay="0.45" arrival="203.00" arrivalLane="nt14_np11_0" arrivalPos="75.00" arrivalSpeed="11.12" duration="178.00" routeLength="930.71" waitingTime="62.00" waitingCount="4" stopTime="0.00" timeLoss="112.25" rerouteNo="0" devices="tripinfo_f_0_3.3" vType="type1" speedFactor="1.19" vaporized=""/>
    <tripinfo id="f_0_0.1" depart="14.00" departLane="np13_nt13_0" departPos="16.67" departSpeed="0.00" departDelay="0.36" arrival="204.00" arrivalLane="nt4_np5_0" arrivalPos="75.00" arrivalSpeed="20.69" duration="190.00" routeLength="1331.22" waitingTime="74.00" waitingCount="4" stopTime="0.00" timeLoss="103.44" rerouteNo="0" devices="tripinfo_f_0_0.1" vType="type1" speedFactor="1.08" vaporized=""/>
    <tripinfo id="f_0_2.3" depart="25.00" departLane="np2_nt2_0" departPos="60.68" departSpeed="0.00" departDelay="0.45" arrival="217.00" arrivalLane="nt15_np10_0" arrivalPos="75.00" arrivalSpeed="10.92" duration="192.00" routeLength="890.40" waitingTime="82.00" waitingCount="9" stopTime="0.00" timeLoss="120.83" rerouteNo="0" devices="tripinfo_f_0_2.3" vType="type1" speedFactor="1.04" vaporized=""/>
    <tripinfo id="f_0_2.4" depart="33.00" departLane="np2_nt2_0" departPos="15.05" departSpeed="0.00" departDelay="0.27" arrival="219.00" arrivalLane="nt15_np10_0" arrivalPos="75.00" arrivalSpeed="10.18" duration="186.00" routeLength="936.03" waitingTime="70.00" waitingCount="8" stopTime="0.00" timeLoss="110.09" rerouteNo="0" devices="tripinfo_f_0_2.4" vType="type1" speedFactor="1.04" vaporized=""/>
    <tripinfo id="f_0_1.0" depart="0.00" departLane="np16_nt1_0" departPos="57.36" departSpeed="0.00" departDelay="0.00" arrival="248.00" arrivalLane="nt16_np8_0" arrivalPos="75.00" arrivalSpeed="20.30" duration="248.00" routeLength="1290.52" waitingTime="109.00" waitingCount="8" stopTime="0.00" timeLoss="159.22" rerouteNo="0" devices="tripinfo_f_0_1.0" vType="type1" speedFactor="1.02" vaporized=""/>
    <tripinfo id="f_0_1.1" depart="14.00" departLane="np16_nt1_0" departPos="29.25" departSpeed="0.00" departDelay="0.36" arrival="250.00" arrivalLane="nt16_np8_0" arrivalPos="75.00" arrivalSpeed="19.90" duration="236.00" routeLength="1318.63" waitingTime="90.00" waitingCount="8" stopTime="0.00" timeLoss="144.49" rerouteNo="0" devices="tripinfo_f_0_1.1" vType="type1" speedFactor="1.00" vaporized=""/>
    <tripinfo id="f_0_0.2" depart="28.00" departLane="np13_nt13_0" departPos="21.72" departSpeed="0.00" departDelay="0.73" arrival="254.00" arrivalLane="nt4_np5_0" arrivalPos="75.00" arrivalSpeed="16.35" duration="226.00" routeLength="1326.17" waitingTime="86.00" waitingCount="5" stopTime="0.00" timeLoss="124.41" rerouteNo="0" devices="tripinfo_f_0_0.2" vType="type1" speedFactor="0.91" vaporized=""/>
    <tripinfo id="f_0_2.5" depart="41.00" departLane="np2_nt2_0" departPos="3.81" departSpeed="0.00" departDelay="0.09" arrival="266.00" arrivalLane="nt15_np10_0" arrivalPos="75.00" arrivalSpeed="10.72" duration="225.00" routeLength="947.27" waitingTime="101.00" waitingCount="7" stopTime="0.00" timeLoss="148.91" rerouteNo="0" devices="tripinfo_f_0_2.5" vType="type1" speedFactor="1.05" vaporized=""/>
    <tripinfo id="f_0_3.4" depart="33.00" departLane="np3_nt3_0" departPos="0.22" departSpeed="0.00" departDelay="0.27" arrival="268.00" arrivalLane="nt14_np11_0" arrivalPos="75.00" arrivalSpeed="10.42" duration="235.00" routeLength="950.87" waitingTime="130.00" waitingCount="4" stopTime="0.00" timeLoss="154.72" rerouteNo="0" devices="tripinfo_f_0_3.4" vType="type1" speedFactor="1.00" vaporized=""/>
    <tripinfo id="f_0_3.5" depart="41.00" departLane="np3_nt3_0" departPos="7.79" departSpeed="0.00" departDelay="0.09" arrival="270.00" arrivalLane="nt14_np11_0" arrivalPos="75.00" arrivalSpeed="9.31" duration="229.00" routeLength="943.30" waitingTime="113.00" waitingCount="5" stopTime="0.00" timeLoss="146.26" rerouteNo="0" devices="tripinfo_f_0_3.5" vType="type1" speedFactor="0.96" vaporized=""/>
    <tripinfo id="f_0_3.6" depart="50.00" departLane="np3_nt3_0" departPos="13.93" departSpeed="0.00" departDelay="0.91" arrival="281.00" arrivalLane="nt14_np11_0" arrivalPos="75.00" arrivalSpeed="12.05" duration="231.00" routeLength="937.16" waitingTime="119.00" waitingCount="8" stopTime="0.00" timeLoss="166.18" rerouteNo="0" devices="tripinfo_f_0_3.6" vType="type1" speedFactor="1.22" vaporized=""/>
    <tripinfo id="f_0_3.7" depart="58.00" departLane="np3_nt3_0" departPos="1.28" departSpeed="0.00" departDelay="0.73" arrival="283.00" arrivalLane="nt14_np11_0" arrivalPos="75.00" arrivalSpeed="12.23" duration="225.00" routeLength="949.81" waitingTime="107.00" waitingCount="9" stopTime="0.00" timeLoss="157.02" rerouteNo="0" devices="tripinfo_f_0_3.7" vType="type1" speedFactor="1.18" vaporized=""/>
    <tripinfo id="f_0_3.8" depart="66.00" departLane="np3_nt3_0" departPos="8.84" departSpeed="0.00" departDelay="0.54" arrival="291.00" arrivalLane="nt14_np11_0" arrivalPos="75.00" arrivalSpeed="10.26" duration="225.00" routeLength="942.25" waitingTime="97.00" waitingCount="11" stopTime="0.00" timeLoss="152.80" rerouteNo="0" devices="tripinfo_f_0_3.8" vType="type1" speedFactor="1.09" vaporized=""/>
    <tripinfo id="f_0_2.6" depart="50.00" departLane="np2_nt2_0" departPos="9.24" departSpeed="0.00" departDelay="0.91" arrival="292.00" arrivalLane="nt15_np10_0" arrivalPos="75.00" arrivalSpeed="9.89" duration="242.00" routeLength="941.84" waitingTime="116.00" waitingCount="7" stopTime="0.00" timeLoss="166.69" rerouteNo="0" devices="tripinfo_f_0_2.6" vType="type1" speedFactor="1.06" vaporized=""/>
    <tripinfo id="f_0_0.3" depart="41.00" departLane="np13_nt13_0" departPos="42.21" departSpeed="0.00" departDelay="0.09" arrival="298.00" arrivalLane="nt4_np5_0" arrivalPos="75.00" arrivalSpeed="17.79" duration="257.00" routeLength="1305.68" waitingTime="117.00" waitingCount="7" stopTime="0.00" timeLoss="155.18" rerouteNo="0" devices="tripinfo_f_0_0.3" vType="type1" speedFactor="0.90" vaporized=""/>
    <tripinfo id="f_0_0.4" depart="55.00" departLane="np13_nt13_0" departPos="23.46" departSpeed="0.00" departDelay="0.46" arrival="300.00" arrivalLane="nt4_np5_0" arrivalPos="75.00" arrivalSpeed="19.63" duration="245.00" routeLength="1324.43" waitingTime="108.00" waitingCount="10" stopTime="0.00" timeLoss="160.78" rerouteNo="0" devices="tripinfo_f_0_0.4" vType="type1" speedFactor="1.10" vaporized=""/>
    <tripinfo id="f_0_1.2" depart="28.00" departLane="np16_nt1_0" departPos="49.86" departSpeed="0.00" departDelay="0.73" arrival="302.00" arrivalLane="nt16_np8_0" arrivalPos="75.00" arrivalSpeed="19.34" duration="274.00" routeLength="1298.02" waitingTime="131.00" waitingCount="10" stopTime="0.00" timeLoss="185.68" rerouteNo="0" devices="tripinfo_f_0_1.2" vType="type1" speedFactor="1.03" vaporized=""/>
    <tripinfo id="f_0_0.5" depart="69.00" departLane="np13_nt13_0" departPos="33.44" departSpeed="0.00" departDelay="0.82" arrival="306.00" arrivalLane="nt4_np5_0" arrivalPos="75.00" arrivalSpeed="19.18" duration="237.00" routeLength="1314.45" waitingTime="94.00" waitingCount="8" stopTime="0.00" timeLoss="143.66" rerouteNo="0" devices="tripinfo_f_0_0.5" vType="type1" speedFactor="0.99" vaporized=""/>
    <tripinfo id="f_0_2.7" depart="58.00" departLane="np2_nt2_0" departPos="40.37" departSpeed="0.00" departDelay="0.73" arrival="323.00" arrivalLane="nt15_np10_0" arrivalPos="75.00" arrivalSpeed="7.93" duration="265.00" routeLength="910.71" waitingTime="129.00" waitingCount="9" stopTime="0.00" timeLoss="178.23" rerouteNo="0" devices="tripinfo_f_0_2.7" vType="type1" speedFactor="0.88" vaporized=""/>
    <tripinfo id="f_0_0.6" depart="82.00" departLane="np13_nt13_0" departPos="43.73" departSpeed="0.00" departDelay="0.18" arrival="324.00" arrivalLane="nt4_np5_0" arrivalPos="75.00" arrivalSpeed="19.07" duration="242.00" routeLength="1304.16" waitingTime="99.00" waitingCount="10" stopTime="0.00" timeLoss="153.28" rerouteNo="0" devices="tripinfo_f_0_0.6" vType="type1" speedFactor="1.02" vaporized=""/>
    <tripinfo id="f_0_2.8" depart="66.00" departLane="np2_nt2_0" departPos="19.51" departSpeed="0.00" departDelay="0.54" arrival="326.00" arrivalLane="nt15_np10_0" arrivalPos="75.00" arrivalSpeed="9.31" duration="260.00" routeLength="931.57" waitingTime="120.00" waitingCount="9" stopTime="0.00" timeLoss="184.21" rerouteNo="0" devices="tripinfo_f_0_2.8" vType="type1" speedFactor="1.03" vaporized=""/>
    <tripinfo id="f_0_1.3" depart="41.00" departLane="np16_nt1_0" departPos="34.93" departSpeed="0.00" departDelay="0.09" arrival="328.00" arrivalLane="nt16_np8_0" arrivalPos="75.00" arrivalSpeed="24.59" duration="287.00" routeLength="1312.95" waitingTime="147.00" waitingCount="12" stopTime="0.00" timeLoss="213.96" rerouteNo="0" devices="tripinfo_f_0_1.3" vType="type1" speedFactor="1.25" vaporized=""/>
    <tripinfo id="f_0_2.9" depart="74.00" departLane="np2_nt2_0" departPos="45.16" departSpeed="0.00" departDelay="0.36" arrival="329.00" arrivalLane="nt15_np10_0" arrivalPos="75.00" arrivalSpeed="8.44" duration="255.00" routeLength="905.92" waitingTime="111.00" waitingCount="9" stopTime="0.00" timeLoss="177.08" rerouteNo="0" devices="tripinfo_f_0_2.9" vType="type1" speedFactor="0.97" vaporized=""/>
    <tripinfo id="f_0_3.9" depart="74.00" departLane="np3_nt3_0" departPos="0.00" departSpeed="0.00" departDelay="0.36" arrival="330.00" arrivalLane="nt14_np11_0" arrivalPos="75.00" arrivalSpeed="8.75" duration="256.00" routeLength="951.09" waitingTime="122.00" waitingCount="9" stopTime="0.00" timeLoss="169.30" rerouteNo="0" devices="tripinfo_f_0_3.9" vType="type1" speedFactor="0.93" vaporized=""/>
    <tripinfo id="f_0_2.10" depart="82.00" departLane="np2_nt2_0" departPos="55.38" departSpeed="0.00" departDelay="0.18" arrival="335.00" arrivalLane="nt15_np10_0" arrivalPos="75.00" arrivalSpeed="7.52" duration="253.00" routeLength="895.70" waitingTime="94.00" waitingCount="12" stopTime="0.00" timeLoss="167.49" rerouteNo="0" devices="tripinfo_f_0_2.10" vType="type1" speedFactor="0.87" vaporized=""/>
    <tripinfo id="f_0_1.4" depart="55.00" departLane="np16_nt1_0" departPos="35.54" departSpeed="0.00" departDelay="0.46" arrival="339.00" arrivalLane="nt16_np8_0" arrivalPos="75.00" arrivalSpeed="16.87" duration="284.00" routeLength="1312.34" waitingTime="108.00" waitingCount="10" stopTime="0.00" timeLoss="185.53" rerouteNo="0" devices="tripinfo_f_0_1.4" vType="type1" speedFactor="0.93" vaporized=""/>
    <tripinfo id="f_0_0.7" depart="96.00" departLane="np13_nt13_0" departPos="18.13" departSpeed="0.00" departDelay="0.55" arrival="348.00" arrivalLane="nt4_np5_0" arrivalPos="75.00" arrivalSpeed="18.57" duration="252.00" routeLength="1329.76" waitingTime="101.00" waitingCount="11" stopTime="0.00" timeLoss="156.49" rerouteNo="0" devices="tripinfo_f_0_0.7" vType="type1" speedFactor="0.97" vaporized=""/>
    <tripinfo id="f_0_2.11" depart="90.00" departLane="np2_nt2_0" departPos="29.15" departSpeed="0.00" departDelay="0.00" arrival="352.00" arrivalLane="nt15_np10_0" arrivalPos="75.00" arrivalSpeed="8.99" duration="262.00" routeLength="921.93" waitingTime="92.00" waitingCount="11" stopTime="0.00" timeLoss="180.06" rerouteNo="0" devices="tripinfo_f_0_2.11" vType="type1" speedFactor="0.94" vaporized=""/>
    <tripinfo id="f_0_2.12" depart="99.00" departLane="np2_nt2_0" departPos="25.30" departSpeed="0.00" departDelay="0.82" arrival="354.00" arrivalLane="nt15_np10_0" arrivalPos="75.00" arrivalSpeed="10.22" duration="255.00" routeLength="925.78" waitingTime="80.00" waitingCount="11" stopTime="0.00" timeLoss="182.68" rerouteNo="0" devices="tripinfo_f_0_2.12" vType="type1" speedFactor="1.07" vaporized=""/>
    <tripinfo id="f_0_0.8" depart="110.00" departLane="np13_nt13_0" departPos="48.77" departSpeed="0.00" departDelay="0.91" arrival="368.00" arrivalLane="nt4_np5_0" arrivalPos="75.00" arrivalSpeed="18.71" duration="258.00" routeLength="1299.12" waitingTime="110.00" waitingCount="9" stopTime="0.00" timeLoss="171.18" rerouteNo="0" devices="tripinfo_f_0_0.8" vType="type1" speedFactor="1.05" vaporized=""/>
    <tripinfo id="f_0_1.5" depart="69.00" departLane="np16_nt1_0" departPos="16.24" departSpeed="0.00" departDelay="0.82" arrival="369.00" arrivalLane="nt16_np8_0" arrivalPos="75.00" arrivalSpeed="16.02" duration="300.00" routeLength="1331.64" waitingTime="99.00" waitingCount="12" stopTime="0.00" timeLoss="194.43" rerouteNo="0" devices="tripinfo_f_0_1.5" vType="type1" speedFactor="0.88" vaporized=""/>
    <tripinfo id="f_0_2.13" depart="107.00" departLane="np2_nt2_0" departPos="10.87" departSpeed="0.00" departDelay="0.63" arrival="370.00" arrivalLane="nt15_np10_0" arrivalPos="75.00" arrivalSpeed="8.20" duration="263.00" routeLength="940.21" waitingTime="66.00" waitingCount="11" stopTime="0.00" timeLoss="162.56" rerouteNo="0" devices="tripinfo_f_0_2.13" vType="type1" speedFactor="0.79" vaporized=""/>
    <tripinfo id="f_0_3.10" depart="82.00" departLane="np3_nt3_0" departPos="0.00" departSpeed="0.00" departDelay="0.18" arrival="371.00" arrivalLane="nt14_np11_0" arrivalPos="75.00" arrivalSpeed="12.74" duration="289.00" routeLength="951.09" waitingTime="151.00" waitingCount="9" stopTime="0.00" timeLoss="222.00" rerouteNo="0" devices="tripinfo_f_0_3.10" vType="type1" speedFactor="1.20" vaporized=""/>
    <tripinfo id="f_0_0.9" depart="123.00" departLane="np13_nt13_0" departPos="22.96" departSpeed="0.00" departDelay="0.28" arrival="371.00" arrivalLane="nt4_np5_0" arrivalPos="75.00" arrivalSpeed="14.25" duration="248.00" routeLength="1324.93" waitingTime="85.00" waitingCount="7" stopTime="0.00" timeLoss="129.54" rerouteNo="0" devices="tripinfo_f_0_0.9" vType="type1" speedFactor="0.78" vaporized=""/>
    <tripinfo id="f_0_0.10" depart="137.00" departLane="np13_nt13_0" departPos="52.31" departSpeed="0.00" departDelay="0.64" arrival="372.00" arrivalLane="nt4_np5_0" arrivalPos="75.00" arrivalSpeed="18.32" duration="235.00" routeLength="1295.58" waitingTime="75.00" waitingCount="7" stopTime="0.00" timeLoss="141.26" rerouteNo="0" devices="tripinfo_f_0_0.10" vType="type1" speedFactor="0.97" vaporized=""/>
    <tripinfo id="f_0_0.11" depart="150.00" departLane="np13_nt13_0" departPos="37.04" departSpeed="0.00" departDelay="0.00" arrival="374.00" arrivalLane="nt4_np5_0" arrivalPos="75.00" arrivalSpeed="17.66" duration="224.00" routeLength="1310.85" waitingTime="82.00" waitingCount="8" stopTime="0.00" timeLoss="131.41" rerouteNo="0" devices="tripinfo_f_0_0.11" vType="type1" speedFactor="0.98" vaporized=""/>
    <tripinfo id="f_0_0.12" depart="164.00" departLane="np13_nt13_0" departPos="55.06" departSpeed="0.00" departDelay="0.37" arrival="376.00" arrivalLane="nt4_np5_0" arrivalPos="75.00" arrivalSpeed="17.15" duration="212.00" routeLength="1292.83" waitingTime="74.00" waitingCount="8" stopTime="0.00" timeLoss="119.12" rerouteNo="0" devices="tripinfo_f_0_0.12" vType="type1" speedFactor="0.98" vaporized=""/>
    <tripinfo id="f_0_0.13" depart="178.00" departLane="np13_nt13_0" departPos="57.28" departSpeed="0.00" departDelay="0.73" arrival="377.00" arrivalLane="nt4_np5_0" arrivalPos="75.00" arrivalSpeed="17.99" duration="199.00" routeLength="1290.61" waitingTime="51.00" waitingCount="9" stopTime="0.00" timeLoss="100.00" rerouteNo="0" devices="tripinfo_f_0_0.13" vType="type1" speedFactor="0.91" vaporized=""/>
    <tripinfo id="f_0_2.14" depart="115.00" departLane="np2_nt2_0" departPos="40.69" departSpeed="0.00" departDelay="0.45" arrival="378.00" arrivalLane="nt15_np10_0" arrivalPos="75.00" arrivalSpeed="10.47" duration="263.00" routeLength="910.39" waitingTime="90.00" waitingCount="10" stopTime="0.00" timeLoss="185.97" rerouteNo="0" devices="tripinfo_f_0_2.14" vType="type1" speedFactor="0.98" vaporized=""/>
    <tripinfo id="f_0_0.14" depart="191.00" departLane="np13_nt13_0" departPos="28.96" departSpeed="0.00" departDelay="0.10" arrival="379.00" arrivalLane="nt4_np5_0" arrivalPos="75.00" arrivalSpeed="18.43" duration="188.00" routeLength="1318.93" waitingTime="42.00" waitingCount="8" stopTime="0.00" timeLoss="92.30" rerouteNo="0" devices="tripinfo_f_0_0.14" vType="type1" speedFactor="0.96" vaporized=""/>
    <tripinfo id="f_0_3.11" depart="90.00" departLane="np3_nt3_0" departPos="6.86" departSpeed="0.00" departDelay="0.00" arrival="381.00" arrivalLane="nt14_np11_0" arrivalPos="75.00" arrivalSpeed="9.92" duration="291.00" routeLength="944.23" waitingTime="157.00" waitingCount="12" stopTime="0.00" timeLoss="217.57" rerouteNo="0" devices="tripinfo_f_0_3.11" vType="type1" speedFactor="1.08" vaporized=""/>
    <tripinfo id="f_0_3.12" depart="99.00" departLane="np3_nt3_0" departPos="0.90" departSpeed="0.00" departDelay="0.82" arrival="393.00" arrivalLane="nt14_np11_0" arrivalPos="75.00" arrivalSpeed="10.28" duration="294.00" routeLength="950.19" waitingTime="141.00" waitingCount="13" stopTime="0.00" timeLoss="212.46" rerouteNo="0" devices="tripinfo_f_0_3.12" vType="type1" speedFactor="0.98" vaporized=""/>
    <tripinfo id="f_0_3.13" depart="113.00" departLane="np3_nt3_0" departPos="0.00" departSpeed="0.00" departDelay="6.63" arrival="412.00" arrivalLane="nt14_np11_0" arrivalPos="75.00" arrivalSpeed="10.11" duration="299.00" routeLength="951.09" waitingTime="139.00" waitingCount="14" stopTime="0.00" timeLoss="214.68" rerouteNo="0" devices="tripinfo_f_0_3.13" vType="type1" speedFactor="0.95" vaporized=""/>
    <tripinfo id="f_0_3.14" depart="122.00" departLane="np3_nt3_0" departPos="0.00" departSpeed="0.00" departDelay="7.45" arrival="414.00" arrivalLane="nt14_np11_0" arrivalPos="75.00" arrivalSpeed="11.40" duration="292.00" routeLength="951.09" waitingTime="146.00" waitingCount="13" stopTime="0.00" timeLoss="218.23" rerouteNo="0" devices="tripinfo_f_0_3.14" vType="type1" speedFactor="1.08" vaporized=""/>
    <tripinfo id="f_0_0.15" depart="205.00" departLane="np13_nt13_0" departPos="40.08" departSpeed="0.00" departDelay="0.46" arrival="444.00" arrivalLane="nt4_np5_0" arrivalPos="75.00" arrivalSpeed="16.38" duration="239.00" routeLength="1307.81" waitingTime="109.00" waitingCount="5" stopTime="0.00" timeLoss="140.13" rerouteNo="0" devices="tripinfo_f_0_0.15" vType="type1" speedFactor="0.92" vaporized=""/>
    <tripinfo id="f_0_3.15" depart="125.00" departLane="np3_nt3_0" departPos="0.00" departSpeed="0.00" departDelay="2.27" arrival="447.00" arrivalLane="nt14_np11_0" arrivalPos="75.00" arrivalSpeed="9.90" duration="322.00" routeLength="951.09" waitingTime="175.00" waitingCount="12" stopTime="0.00" timeLoss="241.55" rerouteNo="0" devices="tripinfo_f_0_3.15" vType="type1" speedFactor="0.99" vaporized=""/>
    <tripinfo id="f_0_3.16" depart="158.00" departLane="np3_nt3_0" departPos="0.00" departSpeed="0.00" departDelay="27.09" arrival="451.00" arrivalLane="nt14_np11_0" arrivalPos="75.00" arrivalSpeed="7.14" duration="293.00" routeLength="951.09" waitingTime="140.00" waitingCount="9" stopTime="0.00" timeLoss="200.35" rerouteNo="0" devices="tripinfo_f_0_3.16" vType="type1" speedFactor="0.87" vaporized=""/>
    <tripinfo id="f_0_0.16" depart="219.00" departLane="np13_nt13_0" departPos="53.39" departSpeed="0.00" departDelay="0.82" arrival="459.00" arrivalLane="nt4_np5_0" arrivalPos="75.00" arrivalSpeed="21.41" duration="240.00" routeLength="1294.50" waitingTime="115.00" waitingCount="5" stopTime="0.00" timeLoss="156.41" rerouteNo="0" devices="tripinfo_f_0_0.16" vType="type1" speedFactor="1.08" vaporized=""/>
    <tripinfo id="f_0_1.6" depart="82.00" departLane="np16_nt1_0" departPos="33.45" departSpeed="0.00" departDelay="0.18" arrival="466.00" arrivalLane="nt16_np8_0" arrivalPos="75.00" arrivalSpeed="18.16" duration="384.00" routeLength="1314.43" waitingTime="206.00" waitingCount="10" stopTime="0.00" timeLoss="286.93" rerouteNo="0" devices="tripinfo_f_0_1.6" vType="type1" speedFactor="0.95" vaporized=""/>
    <tripinfo id="f_0_0.17" depart="232.00" departLane="np13_nt13_0" departPos="46.32" departSpeed="0.00" departDelay="0.19" arrival="489.00" arrivalLane="nt4_np5_0" arrivalPos="75.00" arrivalSpeed="18.05" duration="257.00" routeLength="1301.57" waitingTime="118.00" waitingCount="6" stopTime="0.00" timeLoss="157.25" rerouteNo="0" devices="tripinfo_f_0_0.17" vType="type1" speedFactor="0.92" vaporized=""/>
    <tripinfo id="f_0_0.18" depart="246.00" departLane="np13_nt13_0" departPos="21.80" departSpeed="0.00" departDelay="0.55" arrival="495.00" arrivalLane="nt4_np5_0" arrivalPos="75.00" arrivalSpeed="19.27" duration="249.00" routeLength="1326.09" waitingTime="114.00" waitingCount="6" stopTime="0.00" timeLoss="157.82" rerouteNo="0" devices="tripinfo_f_0_0.18" vType="type1" speedFactor="1.01" vaporized=""/>
    <tripinfo id="f_0_2.15" depart="123.00" departLane="np2_nt2_0" departPos="37.33" departSpeed="0.00" departDelay="0.27" arrival="498.00" arrivalLane="nt15_np10_0" arrivalPos="75.00" arrivalSpeed="11.06" duration="375.00" routeLength="913.75" waitingTime="219.00" waitingCount="10" stopTime="0.00" timeLoss="298.61" rerouteNo="0" devices="tripinfo_f_0_2.15" vType="type1" speedFactor="1.01" vaporized=""/>
    <tripinfo id="f_0_3.17" depart="174.00" departLane="np3_nt3_0" departPos="0.00" departSpeed="0.00" departDelay="34.91" arrival="502.00" arrivalLane="nt14_np11_0" arrivalPos="75.00" arrivalSpeed="10.60" duration="328.00" routeLength="951.09" waitingTime="175.00" waitingCount="11" stopTime="0.00" timeLoss="245.57" rerouteNo="0" devices="tripinfo_f_0_3.17" vType="type1" speedFactor="0.97" vaporized=""/>
    <tripinfo id="f_0_3.18" depart="188.00" departLane="np3_nt3_0" departPos="0.00" departSpeed="0.00" departDelay="40.72" arrival="506.00" arrivalLane="nt14_np11_0" arrivalPos="75.00" arrivalSpeed="7.02" duration="318.00" routeLength="951.09" waitingTime="162.00" waitingCount="9" stopTime="0.00" timeLoss="224.97" rerouteNo="0" devices="tripinfo_f_0_3.18" vType="type1" speedFactor="0.86" vaporized=""/>
    <tripinfo id="f_0_3.19" depart="203.00" departLane="np3_nt3_0" departPos="0.00" departSpeed="0.00" departDelay="47.54" arrival="512.00" arrivalLane="nt14_np11_0" arrivalPos="75.00" arrivalSpeed="10.15" duration="309.00" routeLength="951.09" waitingTime="154.00" waitingCount="9" stopTime="0.00" timeLoss="227.53" rerouteNo="0" devices="tripinfo_f_0_3.19" vType="type1" speedFactor="0.98" vaporized=""/>
    <tripinfo id="f_0_3.20" depart="227.00" departLane="np3_nt3_0" departPos="0.49" departSpeed="0.00" departDelay="63.36" arrival="515.00" arrivalLane="nt14_np11_0" arrivalPos="75.00" arrivalSpeed="9.09" duration="288.00" routeLength="950.60" waitingTime="134.00" waitingCount="8" stopTime="0.00" timeLoss="203.61" rerouteNo="0" devices="tripinfo_f_0_3.20" vType="type1" speedFactor="0.95" vaporized=""/>
    <tripinfo id="f_0_3.21" depart="230.00" departLane="np3_nt3_0" departPos="0.00" departSpeed="0.00" departDelay="58.18" arrival="522.00" arrivalLane="nt14_np11_0" arrivalPos="75.00" arrivalSpeed="10.64" duration="292.00" routeLength="951.09" waitingTime="129.00" waitingCount="10" stopTime="0.00" timeLoss="210.59" rerouteNo="0" devices="tripinfo_f_0_3.21" vType="type1" speedFactor="0.98" vaporized=""/>
    <tripinfo id="f_0_3.22" depart="234.00" departLane="np3_nt3_0" departPos="0.00" departSpeed="0.00" departDelay="54.00" arrival="525.00" arrivalLane="nt14_np11_0" arrivalPos="75.00" arrivalSpeed="9.62" duration="291.00" routeLength="951.09" waitingTime="129.00" waitingCount="12" stopTime="0.00" timeLoss="207.23" rerouteNo="0" devices="tripinfo_f_0_3.22" vType="type1" speedFactor="0.96" vaporized=""/>
    <tripinfo id="f_0_0.19" depart="260.00" departLane="np13_nt13_0" departPos="11.41" departSpeed="0.00" departDelay="0.92" arrival="553.00" arrivalLane="nt4_np5_0" arrivalPos="75.00" arrivalSpeed="23.46" duration="293.00" routeLength="1336.48" waitingTime="171.00" waitingCount="8" stopTime="0.00" timeLoss="214.98" rerouteNo="0" devices="tripinfo_f_0_0.19" vType="type1" speedFactor="1.19" vaporized=""/>
    <tripinfo id="f_0_2.16" depart="131.00" departLane="np2_nt2_0" departPos="16.89" departSpeed="0.00" departDelay="0.09" arrival="557.00" arrivalLane="nt15_np10_0" arrivalPos="75.00" arrivalSpeed="11.11" duration="426.00" routeLength="934.19" waitingTime="260.00" waitingCount="12" stopTime="0.00" timeLoss="351.56" rerouteNo="0" devices="tripinfo_f_0_2.16" vType="type1" speedFactor="1.07" vaporized=""/>
    <tripinfo id="f_0_3.23" depart="278.00" departLane="np3_nt3_0" departPos="0.00" departSpeed="0.00" departDelay="89.81" arrival="558.00" arrivalLane="nt14_np11_0" arrivalPos="75.00" arrivalSpeed="9.04" duration="280.00" routeLength="951.09" waitingTime="108.00" waitingCount="10" stopTime="0.00" timeLoss="188.04" rerouteNo="0" devices="tripinfo_f_0_3.23" vType="type1" speedFactor="0.87" vaporized=""/>
    <tripinfo id="f_0_2.17" depart="140.00" departLane="np2_nt2_0" departPos="53.70" departSpeed="0.00" departDelay="0.91" arrival="559.00" arrivalLane="nt15_np10_0" arrivalPos="75.00" arrivalSpeed="9.66" duration="419.00" routeLength="897.38" waitingTime="263.00" waitingCount="9" stopTime="0.00" timeLoss="345.79" rerouteNo="0" devices="tripinfo_f_0_2.17" vType="type1" speedFactor="1.02" vaporized=""/>
    <tripinfo id="f_0_3.24" depart="297.00" departLane="np3_nt3_0" departPos="0.03" departSpeed="0.00" departDelay="100.63" arrival="560.00" arrivalLane="nt14_np11_0" arrivalPos="75.00" arrivalSpeed="12.19" duration="263.00" routeLength="951.06" waitingTime="94.00" waitingCount="9" stopTime="0.00" timeLoss="193.57" rerouteNo="0" devices="tripinfo_f_0_3.24" vType="type1" speedFactor="1.15" vaporized=""/>
    <tripinfo id="f_0_3.25" depart="300.00" departLane="np3_nt3_0" departPos="0.00" departSpeed="0.00" departDelay="95.45" arrival="576.00" arrivalLane="nt14_np11_0" arrivalPos="75.00" arrivalSpeed="10.37" duration="276.00" routeLength="951.09" waitingTime="112.00" waitingCount="11" stopTime="0.00" timeLoss="204.01" rerouteNo="0" devices="tripinfo_f_0_3.25" vType="type1" speedFactor="1.11" vaporized=""/>