<?xml version="1.0" encoding="UTF-8"?>

<!-- generated on 2023-08-30 12:35:51 by Eclipse SUMO libsumo Version 1.18.0
<configuration xmlns:xsi="http://www.w3.org/2001/XMLSchema-instance" xsi:noNamespaceSchemaLocation="http://sumo.dlr.de/xsd/libsumoConfiguration.xsd">

    <input>
        <net-file value="/home/stefan/RESCO/./environments/arterial4x4/arterial4x4.net.xml"/>
        <route-files value="/home/stefan/RESCO/./environments/arterial4x4/arterial4x4_47.rou.xml"/>
    </input>

    <output>
        <tripinfo-output value="/home/stefan/results/ITRPO-tr0-arterial4x4-0-drq_norm-wait_norm/tripinfo_47.xml"/>
        <tripinfo-output.write-unfinished value="true"/>
    </output>

    <processing>
        <time-to-teleport value="-1"/>
    </processing>

    <report>
        <no-warnings value="True"/>
        <no-step-log value="True"/>
    </report>

    <random_number>
        <random value="true"/>
    </random_number>

</configuration>
-->

<tripinfos xmlns:xsi="http://www.w3.org/2001/XMLSchema-instance" xsi:noNamespaceSchemaLocation="http://sumo.dlr.de/xsd/tripinfo_file.xsd">
    <tripinfo id="f_0_3.0" depart="0.00" departLane="np3_nt3_0" departPos="62.08" departSpeed="0.00" departDelay="0.00" arrival="116.00" arrivalLane="nt14_np11_0" arrivalPos="75.00" arrivalSpeed="11.14" duration="116.00" routeLength="889.01" waitingTime="27.00" waitingCount="4" stopTime="0.00" timeLoss="48.20" rerouteNo="0" devices="tripinfo_f_0_3.0" vType="type1" speedFactor="1.10" vaporized=""/>
    <tripinfo id="f_0_3.1" depart="9.00" departLane="np3_nt3_0" departPos="23.36" departSpeed="0.00" departDelay="0.82" arrival="178.00" arrivalLane="nt14_np11_0" arrivalPos="75.00" arrivalSpeed="9.62" duration="169.00" routeLength="927.73" waitingTime="60.00" waitingCount="5" stopTime="0.00" timeLoss="92.61" rerouteNo="0" devices="tripinfo_f_0_3.1" vType="type1" speedFactor="1.02" vaporized=""/>
    <tripinfo id="f_0_2.0" depart="0.00" departLane="np2_nt2_0" departPos="31.06" departSpeed="0.00" departDelay="0.00" arrival="186.00" arrivalLane="nt15_np10_0" arrivalPos="75.00" arrivalSpeed="9.24" duration="186.00" routeLength="920.02" waitingTime="77.00" waitingCount="3" stopTime="0.00" timeLoss="101.84" rerouteNo="0" devices="tripinfo_f_0_2.0" vType="type1" speedFactor="0.92" vaporized=""/>
    <tripinfo id="f_0_2.1" depart="9.00" departLane="np2_nt2_0" departPos="10.01" departSpeed="0.00" departDelay="0.82" arrival="188.00" arrivalLane="nt15_np10_0" arrivalPos="75.00" arrivalSpeed="10.11" duration="179.00" routeLength="941.07" waitingTime="72.00" waitingCount="3" stopTime="0.00" timeLoss="98.90" rerouteNo="0" devices="tripinfo_f_0_2.1" vType="type1" speedFactor="0.99" vaporized=""/>
    <tripinfo id="f_0_3.2" depart="17.00" departLane="np3_nt3_0" departPos="31.81" departSpeed="0.00" departDelay="0.64" arrival="189.00" arrivalLane="nt14_np11_0" arrivalPos="75.00" arrivalSpeed="8.21" duration="172.00" routeLength="919.28" waitingTime="50.00" waitingCount="6" stopTime="0.00" timeLoss="86.21" rerouteNo="0" devices="tripinfo_f_0_3.2" vType="type1" speedFactor="0.90" vaporized=""/>
    <tripinfo id="f_0_0.0" depart="0.00" departLane="np13_nt13_0" departPos="17.69" departSpeed="0.00" departDelay="0.00" arrival="192.00" arrivalLane="nt4_np5_0" arrivalPos="75.00" arrivalSpeed="16.71" duration="192.00" routeLength="1330.20" waitingTime="62.00" waitingCount="3" stopTime="0.00" timeLoss="95.27" rerouteNo="0" devices="tripinfo_f_0_0.0" vType="type1" speedFactor="0.96" vaporized=""/>
    <tripinfo id="f_0_1.0" depart="0.00" departLane="np16_nt1_0" departPos="9.86" departSpeed="0.00" departDelay="0.00" arrival="216.00" arrivalLane="nt16_np8_0" arrivalPos="75.00" arrivalSpeed="19.33" duration="216.00" routeLength="1338.02" waitingTime="85.00" waitingCount="7" stopTime="0.00" timeLoss="122.46" rerouteNo="0" devices="tripinfo_f_0_1.0" vType="type1" speedFactor="1.00" vaporized=""/>
    <tripinfo id="f_0_1.1" depart="14.00" departLane="np16_nt1_0" departPos="51.07" departSpeed="0.00" departDelay="0.36" arrival="222.00" arrivalLane="nt16_np8_0" arrivalPos="75.00" arrivalSpeed="20.09" duration="208.00" routeLength="1296.81" waitingTime="77.00" waitingCount="7" stopTime="0.00" timeLoss="117.99" rerouteNo="0" devices="tripinfo_f_0_1.1" vType="type1" speedFactor="1.01" vaporized=""/>
    <tripinfo id="f_0_2.2" depart="17.00" departLane="np2_nt2_0" departPos="46.55" departSpeed="0.00" departDelay="0.64" arrival="222.00" arrivalLane="nt15_np10_0" arrivalPos="75.00" arrivalSpeed="10.28" duration="205.00" routeLength="904.53" waitingTime="75.00" waitingCount="10" stopTime="0.00" timeLoss="130.47" rerouteNo="0" devices="tripinfo_f_0_2.2" vType="type1" speedFactor="1.02" vaporized=""/>
    <tripinfo id="f_0_2.3" depart="25.00" departLane="np2_nt2_0" departPos="16.13" departSpeed="0.00" departDelay="0.45" arrival="228.00" arrivalLane="nt15_np10_0" arrivalPos="75.00" arrivalSpeed="8.62" duration="203.00" routeLength="934.95" waitingTime="53.00" waitingCount="8" stopTime="0.00" timeLoss="103.25" rerouteNo="0" devices="tripinfo_f_0_2.3" vType="type1" speedFactor="0.79" vaporized=""/>
    <tripinfo id="f_0_0.1" depart="14.00" departLane="np13_nt13_0" departPos="50.13" departSpeed="0.00" departDelay="0.36" arrival="233.00" arrivalLane="nt4_np5_0" arrivalPos="75.00" arrivalSpeed="20.43" duration="219.00" routeLength="1297.76" waitingTime="96.00" waitingCount="6" stopTime="0.00" timeLoss="137.09" rerouteNo="0" devices="tripinfo_f_0_0.1" vType="type1" speedFactor="1.11" vaporized=""/>
    <tripinfo id="f_0_0.2" depart="28.00" departLane="np13_nt13_0" departPos="62.07" departSpeed="0.00" departDelay="0.73" arrival="239.00" arrivalLane="nt4_np5_0" arrivalPos="75.00" arrivalSpeed="19.58" duration="211.00" routeLength="1285.82" waitingTime="91.00" waitingCount="7" stopTime="0.00" timeLoss="125.05" rerouteNo="0" devices="tripinfo_f_0_0.2" vType="type1" speedFactor="1.04" vaporized=""/>
    <tripinfo id="f_0_3.3" depart="25.00" departLane="np3_nt3_0" departPos="39.19" departSpeed="0.00" departDelay="0.45" arrival="254.00" arrivalLane="nt14_np11_0" arrivalPos="75.00" arrivalSpeed="7.85" duration="229.00" routeLength="911.90" waitingTime="111.00" waitingCount="6" stopTime="0.00" timeLoss="144.75" rerouteNo="0" devices="tripinfo_f_0_3.3" vType="type1" speedFactor="0.91" vaporized=""/>
    <tripinfo id="f_0_2.4" depart="33.00" departLane="np2_nt2_0" departPos="43.40" departSpeed="0.00" departDelay="0.27" arrival="260.00" arrivalLane="nt15_np10_0" arrivalPos="75.00" arrivalSpeed="7.74" duration="227.00" routeLength="907.68" waitingTime="83.00" waitingCount="7" stopTime="0.00" timeLoss="131.16" rerouteNo="0" devices="tripinfo_f_0_2.4" vType="type1" speedFactor="0.79" vaporized=""/>
    <tripinfo id="f_0_0.3" depart="41.00" departLane="np13_nt13_0" departPos="2.65" departSpeed="0.00" departDelay="0.09" arrival="264.00" arrivalLane="nt4_np5_0" arrivalPos="75.00" arrivalSpeed="15.19" duration="223.00" routeLength="1345.24" waitingTime="77.00" waitingCount="5" stopTime="0.00" timeLoss="112.33" rerouteNo="0" devices="tripinfo_f_0_0.3" vType="type1" speedFactor="0.84" vaporized=""/>
    <tripinfo id="f_0_1.2" depart="28.00" departLane="np16_nt1_0" departPos="43.34" departSpeed="0.00" departDelay="0.73" arrival="269.00" arrivalLane="nt16_np8_0" arrivalPos="75.00" arrivalSpeed="19.10" duration="241.00" routeLength="1304.54" waitingTime="94.00" waitingCount="6" stopTime="0.00" timeLoss="145.73" rerouteNo="0" devices="tripinfo_f_0_1.2" vType="type1" speedFactor="0.96" vaporized=""/>
    <tripinfo id="f_0_3.4" depart="33.00" departLane="np3_nt3_0" departPos="37.73" departSpeed="0.00" departDelay="0.27" arrival="271.00" arrivalLane="nt14_np11_0" arrivalPos="75.00" arrivalSpeed="10.81" duration="238.00" routeLength="913.36" waitingTime="122.00" waitingCount="7" stopTime="0.00" timeLoss="168.26" rerouteNo="0" devices="tripinfo_f_0_3.4" vType="type1" speedFactor="1.09" vaporized=""/>
    <tripinfo id="f_0_3.5" depart="41.00" departLane="np3_nt3_0" departPos="12.16" departSpeed="0.00" departDelay="0.09" arrival="273.00" arrivalLane="nt14_np11_0" arrivalPos="75.00" arrivalSpeed="13.15" duration="232.00" routeLength="938.93" waitingTime="115.00" waitingCount="7" stopTime="0.00" timeLoss="170.62" rerouteNo="0" devices="tripinfo_f_0_3.5" vType="type1" speedFactor="1.29" vaporized=""/>
    <tripinfo id="f_0_3.6" depart="50.00" departLane="np3_nt3_0" departPos="2.94" departSpeed="0.00" departDelay="0.91" arrival="275.00" arrivalLane="nt14_np11_0" arrivalPos="75.00" arrivalSpeed="10.13" duration="225.00" routeLength="948.15" waitingTime="105.00" waitingCount="7" stopTime="0.00" timeLoss="152.63" rerouteNo="0" devices="tripinfo_f_0_3.6" vType="type1" speedFactor="1.10" vaporized=""/>
    <tripinfo id="f_0_3.7" depart="58.00" departLane="np3_nt3_0" departPos="28.39" departSpeed="0.00" departDelay="0.73" arrival="278.00" arrivalLane="nt14_np11_0" arrivalPos="75.00" arrivalSpeed="11.33" duration="220.00" routeLength="922.70" waitingTime="97.00" waitingCount="6" stopTime="0.00" timeLoss="145.40" rerouteNo="0" devices="tripinfo_f_0_3.7" vType="type1" speedFactor="1.04" vaporized=""/>
    <tripinfo id="f_0_0.4" depart="55.00" departLane="np13_nt13_0" departPos="60.72" departSpeed="0.00" departDelay="0.46" arrival="283.00" arrivalLane="nt4_np5_0" arrivalPos="75.00" arrivalSpeed="19.43" duration="228.00" routeLength="1287.17" waitingTime="101.00" waitingCount="7" stopTime="0.00" timeLoss="142.06" rerouteNo="0" devices="tripinfo_f_0_0.4" vType="type1" speedFactor="1.05" vaporized=""/>
    <tripinfo id="f_0_2.5" depart="41.00" departLane="np2_nt2_0" departPos="8.97" departSpeed="0.00" departDelay="0.09" arrival="284.00" arrivalLane="nt15_np10_0" arrivalPos="75.00" arrivalSpeed="8.77" duration="243.00" routeLength="942.11" waitingTime="106.00" waitingCount="9" stopTime="0.00" timeLoss="154.21" rerouteNo="0" devices="tripinfo_f_0_2.5" vType="type1" speedFactor="0.89" vaporized=""/>
    <tripinfo id="f_0_2.6" depart="50.00" departLane="np2_nt2_0" departPos="43.93" departSpeed="0.00" departDelay="0.91" arrival="286.00" arrivalLane="nt15_np10_0" arrivalPos="75.00" arrivalSpeed="9.52" duration="236.00" routeLength="907.15" waitingTime="99.00" waitingCount="10" stopTime="0.00" timeLoss="149.13" rerouteNo="0" devices="tripinfo_f_0_2.6" vType="type1" speedFactor="0.88" vaporized=""/>
    <tripinfo id="f_0_2.7" depart="58.00" departLane="np2_nt2_0" departPos="26.42" departSpeed="0.00" departDelay="0.73" arrival="288.00" arrivalLane="nt15_np10_0" arrivalPos="75.00" arrivalSpeed="8.71" duration="230.00" routeLength="924.66" waitingTime="89.00" waitingCount="8" stopTime="0.00" timeLoss="150.87" rerouteNo="0" devices="tripinfo_f_0_2.7" vType="type1" speedFactor="0.98" vaporized=""/>
    <tripinfo id="f_0_1.3" depart="41.00" departLane="np16_nt1_0" departPos="67.77" departSpeed="0.00" departDelay="0.09" arrival="289.00" arrivalLane="nt16_np8_0" arrivalPos="75.00" arrivalSpeed="18.76" duration="248.00" routeLength="1280.11" waitingTime="106.00" waitingCount="5" stopTime="0.00" timeLoss="157.54" rerouteNo="0" devices="tripinfo_f_0_1.3" vType="type1" speedFactor="1.00" vaporized=""/>
    <tripinfo id="f_0_3.8" depart="66.00" departLane="np3_nt3_0" departPos="45.70" departSpeed="0.00" departDelay="0.54" arrival="302.00" arrivalLane="nt14_np11_0" arrivalPos="75.00" arrivalSpeed="10.29" duration="236.00" routeLength="905.39" waitingTime="110.00" waitingCount="7" stopTime="0.00" timeLoss="166.95" rerouteNo="0" devices="tripinfo_f_0_3.8" vType="type1" speedFactor="1.11" vaporized=""/>
    <tripinfo id="f_0_0.5" depart="69.00" departLane="np13_nt13_0" departPos="58.18" departSpeed="0.00" departDelay="0.82" arrival="303.00" arrivalLane="nt4_np5_0" arrivalPos="75.00" arrivalSpeed="19.14" duration="234.00" routeLength="1289.71" waitingTime="102.00" waitingCount="7" stopTime="0.00" timeLoss="149.81" rerouteNo="0" devices="tripinfo_f_0_0.5" vType="type1" speedFactor="1.07" vaporized=""/>
    <tripinfo id="f_0_0.6" depart="82.00" departLane="np13_nt13_0" departPos="22.56" departSpeed="0.00" departDelay="0.18" arrival="305.00" arrivalLane="nt4_np5_0" arrivalPos="75.00" arrivalSpeed="17.73" duration="223.00" routeLength="1325.33" waitingTime="80.00" waitingCount="8" stopTime="0.00" timeLoss="124.63" rerouteNo="0" devices="tripinfo_f_0_0.6" vType="type1" speedFactor="0.94" vaporized=""/>
    <tripinfo id="f_0_3.9" depart="74.00" departLane="np3_nt3_0" departPos="18.39" departSpeed="0.00" departDelay="0.36" arrival="317.00" arrivalLane="nt14_np11_0" arrivalPos="75.00" arrivalSpeed="10.62" duration="243.00" routeLength="932.70" waitingTime="117.00" waitingCount="9" stopTime="0.00" timeLoss="169.26" rerouteNo="0" devices="tripinfo_f_0_3.9" vType="type1" speedFactor="1.06" vaporized=""/>
    <tripinfo id="f_0_2.8" depart="66.00" departLane="np2_nt2_0" departPos="23.67" departSpeed="0.00" departDelay="0.54" arrival="327.00" arrivalLane="nt15_np10_0" arrivalPos="75.00" arrivalSpeed="8.86" duration="261.00" routeLength="927.41" waitingTime="129.00" waitingCount="8" stopTime="0.00" timeLoss="185.83" rerouteNo="0" devices="tripinfo_f_0_2.8" vType="type1" speedFactor="1.03" vaporized=""/>
    <tripinfo id="f_0_0.7" depart="96.00" departLane="np13_nt13_0" departPos="5.86" departSpeed="0.00" departDelay="0.55" arrival="343.00" arrivalLane="nt4_np5_0" arrivalPos="75.00" arrivalSpeed="19.22" duration="247.00" routeLength="1342.03" waitingTime="104.00" waitingCount="9" stopTime="0.00" timeLoss="160.31" rerouteNo="0" devices="tripinfo_f_0_0.7" vType="type1" speedFactor="1.07" vaporized=""/>
    <tripinfo id="f_0_2.9" depart="74.00" departLane="np2_nt2_0" departPos="4.87" departSpeed="0.00" departDelay="0.36" arrival="347.00" arrivalLane="nt15_np10_0" arrivalPos="75.00" arrivalSpeed="9.87" duration="273.00" routeLength="946.21" waitingTime="137.00" waitingCount="9" stopTime="0.00" timeLoss="192.57" rerouteNo="0" devices="tripinfo_f_0_2.9" vType="type1" speedFactor="0.99" vaporized=""/>
    <tripinfo id="f_0_3.10" depart="82.00" departLane="np3_nt3_0" departPos="55.73" departSpeed="0.00" departDelay="0.18" arrival="356.00" arrivalLane="nt14_np11_0" arrivalPos="75.00" arrivalSpeed="11.22" duration="274.00" routeLength="895.36" waitingTime="141.00" waitingCount="10" stopTime="0.00" timeLoss="207.35" rerouteNo="0" devices="tripinfo_f_0_3.10" vType="type1" speedFactor="1.13" vaporized=""/>
    <tripinfo id="f_0_3.11" depart="90.00" departLane="np3_nt3_0" departPos="4.63" departSpeed="0.00" departDelay="0.00" arrival="360.00" arrivalLane="nt14_np11_0" arrivalPos="75.00" arrivalSpeed="10.03" duration="270.00" routeLength="946.46" waitingTime="126.00" waitingCount="10" stopTime="0.00" timeLoss="185.82" rerouteNo="0" devices="tripinfo_f_0_3.11" vType="type1" speedFactor="0.94" vaporized=""/>
    <tripinfo id="f_0_2.10" depart="82.00" departLane="np2_nt2_0" departPos="12.14" departSpeed="0.00" departDelay="0.18" arrival="363.00" arrivalLane="nt15_np10_0" arrivalPos="75.00" arrivalSpeed="10.64" duration="281.00" routeLength="938.94" waitingTime="139.00" waitingCount="9" stopTime="0.00" timeLoss="200.61" rerouteNo="0" devices="tripinfo_f_0_2.10" vType="type1" speedFactor="0.99" vaporized=""/>
    <tripinfo id="f_0_0.8" depart="110.00" departLane="np13_nt13_0" departPos="46.73" departSpeed="0.00" departDelay="0.91" arrival="363.00" arrivalLane="nt4_np5_0" arrivalPos="75.00" arrivalSpeed="19.97" duration="253.00" routeLength="1301.16" waitingTime="109.00" waitingCount="12" stopTime="0.00" timeLoss="167.56" rerouteNo="0" devices="tripinfo_f_0_0.8" vType="type1" speedFactor="1.06" vaporized=""/>
    <tripinfo id="f_0_0.9" depart="123.00" departLane="np13_nt13_0" departPos="43.00" departSpeed="0.00" departDelay="0.28" arrival="365.00" arrivalLane="nt4_np5_0" arrivalPos="75.00" arrivalSpeed="19.79" duration="242.00" routeLength="1304.89" waitingTime="100.00" waitingCount="8" stopTime="0.00" timeLoss="156.80" rerouteNo="0" devices="tripinfo_f_0_0.9" vType="type1" speedFactor="1.07" vaporized=""/>
    <tripinfo id="f_0_0.10" depart="137.00" departLane="np13_nt13_0" departPos="24.98" departSpeed="0.00" departDelay="0.64" arrival="366.00" arrivalLane="nt4_np5_0" arrivalPos="75.00" arrivalSpeed="20.38" duration="229.00" routeLength="1322.91" waitingTime="87.00" waitingCount="9" stopTime="0.00" timeLoss="141.51" rerouteNo="0" devices="tripinfo_f_0_0.10" vType="type1" speedFactor="1.05" vaporized=""/>
    <tripinfo id="f_0_0.11" depart="150.00" departLane="np13_nt13_0" departPos="23.22" departSpeed="0.00" departDelay="0.00" arrival="368.00" arrivalLane="nt4_np5_0" arrivalPos="75.00" arrivalSpeed="20.09" duration="218.00" routeLength="1324.67" waitingTime="71.00" waitingCount="9" stopTime="0.00" timeLoss="129.79" rerouteNo="0" devices="tripinfo_f_0_0.11" vType="type1" speedFactor="1.05" vaporized=""/>
    <tripinfo id="f_0_0.12" depart="164.00" departLane="np13_nt13_0" departPos="6.34" departSpeed="0.00" departDelay="0.37" arrival="370.00" arrivalLane="nt4_np5_0" arrivalPos="75.00" arrivalSpeed="19.44" duration="206.00" routeLength="1341.55" waitingTime="50.00" waitingCount="7" stopTime="0.00" timeLoss="114.73" rerouteNo="0" devices="tripinfo_f_0_0.12" vType="type1" speedFactor="1.02" vaporized=""/>
    <tripinfo id="f_0_0.13" depart="178.00" departLane="np13_nt13_0" departPos="26.31" departSpeed="0.00" departDelay="0.73" arrival="371.00" arrivalLane="nt4_np5_0" arrivalPos="75.00" arrivalSpeed="19.27" duration="193.00" routeLength="1321.58" waitingTime="45.00" waitingCount="6" stopTime="0.00" timeLoss="105.05" rerouteNo="0" devices="tripinfo_f_0_0.13" vType="type1" speedFactor="1.04" vaporized=""/>
    <tripinfo id="f_0_0.14" depart="191.00" departLane="np13_nt13_0" departPos="58.23" departSpeed="0.00" departDelay="0.10" arrival="374.00" arrivalLane="nt4_np5_0" arrivalPos="75.00" arrivalSpeed="20.25" duration="183.00" routeLength="1289.66" waitingTime="50.00" waitingCount="7" stopTime="0.00" timeLoss="101.50" rerouteNo="0" devices="tripinfo_f_0_0.14" vType="type1" speedFactor="1.11" vaporized=""/>
    <tripinfo id="f_0_2.11" depart="90.00" departLane="np2_nt2_0" departPos="42.15" departSpeed="0.00" departDelay="0.00" arrival="413.00" arrivalLane="nt15_np10_0" arrivalPos="75.00" arrivalSpeed="9.85" duration="323.00" routeLength="908.93" waitingTime="192.00" waitingCount="10" stopTime="0.00" timeLoss="247.19" rerouteNo="0" devices="tripinfo_f_0_2.11" vType="type1" speedFactor="1.01" vaporized=""/>
    <tripinfo id="f_0_1.4" depart="55.00" departLane="np16_nt1_0" departPos="57.08" departSpeed="0.00" departDelay="0.46" arrival="438.00" arrivalLane="nt16_np8_0" arrivalPos="75.00" arrivalSpeed="21.08" duration="383.00" routeLength="1290.80" waitingTime="229.00" waitingCount="13" stopTime="0.00" timeLoss="302.49" rerouteNo="0" devices="tripinfo_f_0_1.4" vType="type1" speedFactor="1.12" vaporized=""/>
    <tripinfo id="f_0_0.15" depart="205.00" departLane="np13_nt13_0" departPos="30.72" departSpeed="0.00" departDelay="0.46" arrival="439.00" arrivalLane="nt4_np5_0" arrivalPos="75.00" arrivalSpeed="14.31" duration="234.00" routeLength="1317.17" waitingTime="82.00" waitingCount="6" stopTime="0.00" timeLoss="117.78" rerouteNo="0" devices="tripinfo_f_0_0.15" vType="type1" speedFactor="0.79" vaporized=""/>
    <tripinfo id="f_0_1.5" depart="69.00" departLane="np16_nt1_0" departPos="54.15" departSpeed="0.00" departDelay="0.82" arrival="447.00" arrivalLane="nt16_np8_0" arrivalPos="75.00" arrivalSpeed="13.92" duration="378.00" routeLength="1293.73" waitingTime="195.00" waitingCount="11" stopTime="0.00" timeLoss="264.29" rerouteNo="0" devices="tripinfo_f_0_1.5" vType="type1" speedFactor="0.80" vaporized=""/>
    <tripinfo id="f_0_1.12" depart="164.00" departLane="np16_nt1_0" departPos="22.01" departSpeed="0.00" departDelay="0.37" arrival="448.00" arrivalLane="nt16_np8_0" arrivalPos="75.00" arrivalSpeed="19.38" duration="284.00" routeLength="1325.87" waitingTime="137.00" waitingCount="11" stopTime="0.00" timeLoss="193.76" rerouteNo="0" devices="tripinfo_f_0_1.12" vType="type1" speedFactor="1.01" vaporized=""/>
    <tripinfo id="f_0_1.6" depart="82.00" departLane="np16_nt1_0" departPos="34.67" departSpeed="0.00" departDelay="0.18" arrival="455.00" arrivalLane="nt16_np8_0" arrivalPos="75.00" arrivalSpeed="16.61" duration="373.00" routeLength="1313.21" waitingTime="192.00" waitingCount="13" stopTime="0.00" timeLoss="274.30" rerouteNo="0" devices="tripinfo_f_0_1.6" vType="type1" speedFactor="0.93" vaporized=""/>
    <tripinfo id="f_0_0.16" depart="219.00" departLane="np13_nt13_0" departPos="54.42" departSpeed="0.00" departDelay="0.82" arrival="464.00" arrivalLane="nt4_np5_0" arrivalPos="75.00" arrivalSpeed="16.12" duration="245.00" routeLength="1293.47" waitingTime="97.00" waitingCount="5" stopTime="0.00" timeLoss="138.68" rerouteNo="0" devices="tripinfo_f_0_0.16" vType="type1" speedFactor="0.85" vaporized=""/>
    <tripinfo id="f_0_3.12" depart="99.00" departLane="np3_nt3_0" departPos="32.66" departSpeed="0.00" departDelay="0.82" arrival="478.00" arrivalLane="nt14_np11_0" arrivalPos="75.00" arrivalSpeed="8.84" duration="379.00" routeLength="918.43" waitingTime="238.00" waitingCount="11" stopTime="0.00" timeLoss="298.80" rerouteNo="0" devices="tripinfo_f_0_3.12" vType="type1" speedFactor="0.96" vaporized=""/>
    <tripinfo id="f_0_0.17" depart="232.00" departLane="np13_nt13_0" departPos="40.30" departSpeed="0.00" departDelay="0.19" arrival="484.00" arrivalLane="nt4_np5_0" arrivalPos="75.00" arrivalSpeed="19.61" duration="252.00" routeLength="1307.59" waitingTime="117.00" waitingCount="7" stopTime="0.00" timeLoss="162.29" rerouteNo="0" devices="tripinfo_f_0_0.17" vType="type1" speedFactor="1.02" vaporized=""/>
    <tripinfo id="f_0_0.18" depart="246.00" departLane="np13_nt13_0" departPos="56.92" departSpeed="0.00" departDelay="0.55" arrival="485.00" arrivalLane="nt4_np5_0" arrivalPos="75.00" arrivalSpeed="19.60" duration="239.00" routeLength="1290.97" waitingTime="110.00" waitingCount="6" stopTime="0.00" timeLoss="151.74" rerouteNo="0" devices="tripinfo_f_0_0.18" vType="type1" speedFactor="1.03" vaporized=""/>
    <tripinfo id="f_0_2.12" depart="99.00" departLane="np2_nt2_0" departPos="30.45" departSpeed="0.00" departDelay="0.82" arrival="492.00" arrivalLane="nt15_np10_0" arrivalPos="75.00" arrivalSpeed="7.34" duration="393.00" routeLength="920.63" waitingTime="213.00" waitingCount="12" stopTime="0.00" timeLoss="288.87" rerouteNo="0" devices="tripinfo_f_0_2.12" vType="type1" speedFactor="0.75" vaporized=""/>
    <tripinfo id="f_0_2.13" depart="107.00" departLane="np2_nt2_0" departPos="8.90" departSpeed="0.00" departDelay="0.63" arrival="542.00" arrivalLane="nt15_np10_0" arrivalPos="75.00" arrivalSpeed="10.91" duration="435.00" routeLength="942.18" waitingTime="256.00" waitingCount="13" stopTime="0.00" timeLoss="355.10" rerouteNo="0" devices="tripinfo_f_0_2.13" vType="type1" speedFactor="0.99" vaporized=""/>
    <tripinfo id="f_0_0.19" depart="260.00" departLane="np13_nt13_0" departPos="54.97" departSpeed="0.00" departDelay="0.92" arrival="548.00" arrivalLane="nt4_np5_0" arrivalPos="75.00" arrivalSpeed="18.13" duration="288.00" routeLength="1292.92" waitingTime="152.00" waitingCount="9" stopTime="0.00" timeLoss="199.44" rerouteNo="0" devices="tripinfo_f_0_0.19" vType="type1" speedFactor="1.02" vaporized=""/>
    <tripinfo id="f_0_0.20" depart="273.00" departLane="np13_nt13_0" departPos="61.58" departSpeed="0.00" departDelay="0.28" arrival="550.00" arrivalLane="nt4_np5_0" arrivalPos="75.00" arrivalSpeed="22.45" duration="277.00" routeLength="1286.31" waitingTime="137.00" waitingCount="7" stopTime="0.00" timeLoss="200.20" rerouteNo="0" devices="tripinfo_f_0_0.20" vType="type1" speedFactor="1.18" vaporized=""/>
    <tripinfo id="f_0_0.21" depart="287.00" departLane="np13_nt13_0" departPos="11.07" departSpeed="0.00" departDelay="0.64" arrival="551.00" arrivalLane="nt4_np5_0" arrivalPos="75.00" arrivalSpeed="19.64" duration="264.00" routeLength="1336.82" waitingTime="127.00" waitingCount="8" stopTime="0.00" timeLoss="177.12" rerouteNo="0" devices="tripinfo_f_0_0.21" vType="type1" speedFactor="1.06" vaporized=""/>
    <tripinfo id="f_0_0.22" depart="300.00" departLane="np13_nt13_0" departPos="57.51" departSpeed="0.00" departDelay="0.01" arrival="553.00" arrivalLane="nt4_np5_0" arrivalPos="75.00" arrivalSpeed="20.87" duration="253.00" routeLength="1290.38" waitingTime="115.00" waitingCount="7" stopTime="0.00" timeLoss="171.41" rerouteNo="0" devices="tripinfo_f_0_0.22" vType="type1" speedFactor="1.11" vaporized=""/>
    <tripinfo id="f_0_1.7" depart="96.00" departLane="np16_nt1_0" departPos="15.73" departSpeed="0.00" departDelay="0.55" arrival="563.00" arrivalLane="nt16_np8_0" arrivalPos="75.00" arrivalSpeed="22.07" duration="467.00" routeLength="1332.15" waitingTime="268.00" waitingCount="14" stopTime="0.00" timeLoss="390.78" rerouteNo="0" devices="tripinfo_f_0_1.7" vType="type1" speedFactor="1.22" vaporized=""/>
    <tripinfo id="f_0_2.26" depart="213.00" departLane="np2_nt2_0" departPos="7.69" departSpeed="0.00" departDelay="0.27" arrival="576.00" arrivalLane="nt15_np10_0" arrivalPos="75.00" arrivalSpeed="9.94" duration="363.00" routeLength="943.39" waitingTime="222.00" waitingCount="11" stopTime="0.00" timeLoss="289.03" rerouteNo="0" devices="tripinfo_f_0_2.26" vType="type1" speedFactor="1.07" vaporized=""/>
    <tripinfo id="f_0_2.14" depart="115.00" departLane="np2_nt2_0" departPos="31.98" departSpeed="0.00" departDelay="0.45" arrival="579.00" arrivalLane="nt15_np10_0" arrivalPos="75.00" arrivalSpeed="10.28" duration="464.00" routeLength="919.10" waitingTime="274.00" waitingCount="15" stopTime="0.00" timeLoss="386.42" rerouteNo="0" devices="tripinfo_f_0_2.14" vType="type1" speedFactor="1.00" vaporized=""/>
    <tripinfo id="f_1_0.0" depart="300.00" departLane="np13_nt13_0" departPos="35.84" departSpeed="0.00" departDelay="0.00" arrival="579.00" arrivalLane="nt4_np5_0" arrivalPos="75.00" arrivalSpeed="16.28" duration="279.00" routeLength="1312.05" waitingTime="108.00" waitingCount="10" stopTime="0.00" timeLoss="169.64" rerouteNo="0" devices="tripinfo_f_1_0.0" vType="type1" speedFactor="0.84" vaporized=""/>
    <tripinfo id="f_0_3.13" depart="107.00" departLane="np3_nt3_0" departPos="22.44" departSpeed="0.00" departDelay="0.63" arrival="582.00" arrivalLane="nt14_np11_0" arrivalPos="75.00" arrivalSpeed="10.97" duration="475.00" routeLength="928.65" waitingTime="329.00" waitingCount="11" stopTime="0.00" timeLoss="400.40" rerouteNo="0" devices="tripinfo_f_0_3.13" vType="type1" speedFactor="1.04" vaporized=""/>
    <tripinfo id="f_1_0.1" depart="308.00" departLane="np13_nt13_0" departPos="13.29" departSpeed="0.00" departDelay="0.19" arrival="614.00" arrivalLane="nt4_np5_0" arrivalPos="75.00" arrivalSpeed="14.42" duration="306.00" routeLength="1334.60" waitingTime="130.00" waitingCount="8" stopTime="0.00" timeLoss="186.30" rerouteNo="0" devices="tripinfo_f_1_0.1" vType="type1" speedFactor="0.77" vaporized=""/>
    <tripinfo id="f_1_0.2" depart="316.00" departLane="np13_nt13_0" departPos="32.44" departSpeed="0.00" departDelay="0.38" arrival="616.00" arrivalLane="nt4_np5_0" arrivalPos="75.00" arrivalSpeed="19.37" duration="300.00" routeLength="1315.45" waitingTime="128.00" waitingCount="9" stopTime="0.00" timeLoss="214.26" rerouteNo="0" devices="tripinfo_f_1_0.2" vType="type1" speedFactor="1.07" vaporized=""/>
    <tripinfo id="f_0_2.27" depart="221.00" departLane="np2_nt2_0" departPos="29.80" departSpeed="0.00" departDelay="0.09" arrival="618.00" arrivalLane="nt15_np10_0" arrivalPos="75.00" arrivalSpeed="8.17" duration="397.00" routeLength="921.28" waitingTime="244.00" waitingCount="11" stopTime="0.00" timeLoss="314.06" rerouteNo="0" devices="tripinfo_f_0_2.27" vType="type1" speedFactor="0.93" vaporized=""/>
    <tripinfo id="f_0_2.15" depart="123.00" departLane="np2_nt2_0" departPos="42.47" departSpeed="0.00" departDelay="0.27" arrival="620.00" arrivalLane="nt15_np10_0" arrivalPos="75.00" arrivalSpeed="9.40" duration="497.00" routeLength="908.61" waitingTime="289.00" waitingCount="16" stopTime="0.00" timeLoss="415.94" rerouteNo="0" devices="tripinfo_f_0_2.15" vType="type1" speedFactor="0.94" vaporized=""/>
    <tripinfo id="f_0_1.14" depart="191.00" departLane="np16_nt1_0" departPos="17.77" departSpeed="0.00" departDelay="0.10" arrival="631.00" arrivalLane="nt16_np8_0" arrivalPos="75.00" arrivalSpeed="16.93" duration="440.00" routeLength="1330.11" waitingTime="258.00" waitingCount="14" stopTime="0.00" timeLoss="339.94" rerouteNo="0" devices="tripinfo_f_0_1.14" vType="type1" speedFactor="0.92" vaporized=""/>
    <tripinfo id="f_0_1.8" depart="110.00" departLane="np16_nt1_0" departPos="38.18" departSpeed="0.00" departDelay="0.91" arrival="633.00" arrivalLane="nt16_np8_0" arrivalPos="75.00" arrivalSpeed="19.07" duration="523.00" routeLength="1309.70" waitingTime="285.00" waitingCount="16" stopTime="0.00" timeLoss="428.58" rerouteNo="0" devices="tripinfo_f_0_1.8" vType="type1" speedFactor="0.97" vaporized=""/>
    <tripinfo id="f_0_1.15" depart="205.00" departLane="np16_nt1_0" departPos="3.34" departSpeed="0.00" departDelay="0.46" arrival="637.00" arrivalLane="nt16_np8_0" arrivalPos="75.00" arrivalSpeed="15.94" duration="432.00" routeLength="1344.54" waitingTime="234.00" waitingCount="13" stopTime="0.00" timeLoss="329.42" rerouteNo="0" devices="tripinfo_f_0_1.15" vType="type1" speedFactor="0.90" vaporized=""/>
    <tripinfo id="f_0_1.11" depart="150.00" departLane="np16_nt1_0" departPos="53.22" departSpeed="0.00" departDelay="0.00" arrival="641.00" arrivalLane="nt16_np8_0" arrivalPos="75.00" arrivalSpeed="20.06" duration="491.00" routeLength="1294.66" waitingTime="276.00" waitingCount="15" stopTime="0.00" timeLoss="407.94" rerouteNo="0" devices="tripinfo_f_0_1.11" vType="type1" speedFactor="1.09" vaporized=""/>