<?xml version="1.0" encoding="UTF-8"?>

<!-- generated on 2023-08-30 12:38:00 by Eclipse SUMO libsumo Version 1.18.0
<configuration xmlns:xsi="http://www.w3.org/2001/XMLSchema-instance" xsi:noNamespaceSchemaLocation="http://sumo.dlr.de/xsd/libsumoConfiguration.xsd">

    <input>
        <net-file value="/home/stefan/RESCO/./environments/arterial4x4/arterial4x4.net.xml"/>
        <route-files value="/home/stefan/RESCO/./environments/arterial4x4/arterial4x4_53.rou.xml"/>
    </input>

    <output>
        <tripinfo-output value="/home/stefan/results/ITRPO-tr0-arterial4x4-0-drq_norm-wait_norm/tripinfo_53.xml"/>
        <tripinfo-output.write-unfinished value="true"/>
    </output>

    <processing>
        <time-to-teleport value="-1"/>
    </processing>

    <report>
        <no-warnings value="True"/>
        <no-step-log value="True"/>
    </report>

    <random_number>
        <random value="true"/>
    </random_number>

</configuration>
-->

<tripinfos xmlns:xsi="http://www.w3.org/2001/XMLSchema-instance" xsi:noNamespaceSchemaLocation="http://sumo.dlr.de/xsd/tripinfo_file.xsd">
    <tripinfo id="f_0_2.0" depart="0.00" departLane="np2_nt2_0" departPos="60.44" departSpeed="0.00" departDelay="0.00" arrival="122.00" arrivalLane="nt15_np10_0" arrivalPos="75.00" arrivalSpeed="10.76" duration="122.00" routeLength="890.64" waitingTime="23.00" waitingCount="4" stopTime="0.00" timeLoss="50.91" rerouteNo="0" devices="tripinfo_f_0_2.0" vType="type1" speedFactor="1.05" vaporized=""/>
    <tripinfo id="f_0_3.0" depart="0.00" departLane="np3_nt3_0" departPos="13.94" departSpeed="0.00" departDelay="0.00" arrival="142.00" arrivalLane="nt14_np11_0" arrivalPos="75.00" arrivalSpeed="9.42" duration="142.00" routeLength="937.15" waitingTime="43.00" waitingCount="3" stopTime="0.00" timeLoss="68.96" rerouteNo="0" devices="tripinfo_f_0_3.0" vType="type1" speedFactor="1.07" vaporized=""/>
    <tripinfo id="f_0_0.0" depart="0.00" departLane="np13_nt13_0" departPos="62.91" departSpeed="0.00" departDelay="0.00" arrival="147.00" arrivalLane="nt4_np5_0" arrivalPos="75.00" arrivalSpeed="19.57" duration="147.00" routeLength="1284.98" waitingTime="23.00" waitingCount="4" stopTime="0.00" timeLoss="57.42" rerouteNo="0" devices="tripinfo_f_0_0.0" vType="type1" speedFactor="1.01" vaporized=""/>
    <tripinfo id="f_0_0.1" depart="14.00" departLane="np13_nt13_0" departPos="65.04" departSpeed="0.00" departDelay="0.36" arrival="188.00" arrivalLane="nt4_np5_0" arrivalPos="75.00" arrivalSpeed="19.44" duration="174.00" routeLength="1282.85" waitingTime="54.00" waitingCount="5" stopTime="0.00" timeLoss="86.38" rerouteNo="0" devices="tripinfo_f_0_0.1" vType="type1" speedFactor="1.02" vaporized=""/>
    <tripinfo id="f_0_3.1" depart="9.00" departLane="np3_nt3_0" departPos="25.38" departSpeed="0.00" departDelay="0.82" arrival="197.00" arrivalLane="nt14_np11_0" arrivalPos="75.00" arrivalSpeed="9.72" duration="188.00" routeLength="925.71" waitingTime="77.00" waitingCount="5" stopTime="0.00" timeLoss="111.05" rerouteNo="0" devices="tripinfo_f_0_3.1" vType="type1" speedFactor="1.01" vaporized=""/>
    <tripinfo id="f_0_3.2" depart="17.00" departLane="np3_nt3_0" departPos="1.69" departSpeed="0.00" departDelay="0.64" arrival="199.00" arrivalLane="nt14_np11_0" arrivalPos="75.00" arrivalSpeed="9.78" duration="182.00" routeLength="949.40" waitingTime="66.00" waitingCount="7" stopTime="0.00" timeLoss="107.88" rerouteNo="0" devices="tripinfo_f_0_3.2" vType="type1" speedFactor="1.07" vaporized=""/>
    <tripinfo id="f_0_2.1" depart="9.00" departLane="np2_nt2_0" departPos="19.16" departSpeed="0.00" departDelay="0.82" arrival="207.00" arrivalLane="nt15_np10_0" arrivalPos="75.00" arrivalSpeed="10.74" duration="198.00" routeLength="931.92" waitingTime="90.00" waitingCount="6" stopTime="0.00" timeLoss="122.07" rerouteNo="0" devices="tripinfo_f_0_2.1" vType="type1" speedFactor="1.03" vaporized=""/>
    <tripinfo id="f_0_0.2" depart="28.00" departLane="np13_nt13_0" departPos="37.15" departSpeed="0.00" departDelay="0.73" arrival="213.00" arrivalLane="nt4_np5_0" arrivalPos="75.00" arrivalSpeed="18.68" duration="185.00" routeLength="1310.74" waitingTime="63.00" waitingCount="4" stopTime="0.00" timeLoss="90.50" rerouteNo="0" devices="tripinfo_f_0_0.2" vType="type1" speedFactor="0.97" vaporized=""/>
    <tripinfo id="f_0_1.0" depart="0.00" departLane="np16_nt1_0" departPos="51.36" departSpeed="0.00" departDelay="0.00" arrival="214.00" arrivalLane="nt16_np8_0" arrivalPos="75.00" arrivalSpeed="16.81" duration="214.00" routeLength="1296.52" waitingTime="72.00" waitingCount="3" stopTime="0.00" timeLoss="106.82" rerouteNo="0" devices="tripinfo_f_0_1.0" vType="type1" speedFactor="0.84" vaporized=""/>
    <tripinfo id="f_0_3.3" depart="25.00" departLane="np3_nt3_0" departPos="20.02" departSpeed="0.00" departDelay="0.45" arrival="218.00" arrivalLane="nt14_np11_0" arrivalPos="75.00" arrivalSpeed="10.06" duration="193.00" routeLength="931.07" waitingTime="67.00" waitingCount="6" stopTime="0.00" timeLoss="112.20" rerouteNo="0" devices="tripinfo_f_0_3.3" vType="type1" speedFactor="0.97" vaporized=""/>
    <tripinfo id="f_0_3.4" depart="33.00" departLane="np3_nt3_0" departPos="26.01" departSpeed="0.00" departDelay="0.27" arrival="220.00" arrivalLane="nt14_np11_0" arrivalPos="75.00" arrivalSpeed="10.91" duration="187.00" routeLength="925.08" waitingTime="61.00" waitingCount="7" stopTime="0.00" timeLoss="114.35" rerouteNo="0" devices="tripinfo_f_0_3.4" vType="type1" speedFactor="1.07" vaporized=""/>
    <tripinfo id="f_0_0.3" depart="41.00" departLane="np13_nt13_0" departPos="35.33" departSpeed="0.00" departDelay="0.09" arrival="220.00" arrivalLane="nt4_np5_0" arrivalPos="75.00" arrivalSpeed="16.60" duration="179.00" routeLength="1312.56" waitingTime="49.00" waitingCount="5" stopTime="0.00" timeLoss="83.23" rerouteNo="0" devices="tripinfo_f_0_0.3" vType="type1" speedFactor="0.95" vaporized=""/>
    <tripinfo id="f_0_3.5" depart="41.00" departLane="np3_nt3_0" departPos="21.05" departSpeed="0.00" departDelay="0.09" arrival="239.00" arrivalLane="nt14_np11_0" arrivalPos="75.00" arrivalSpeed="7.80" duration="198.00" routeLength="930.04" waitingTime="55.00" waitingCount="6" stopTime="0.00" timeLoss="112.45" rerouteNo="0" devices="tripinfo_f_0_3.5" vType="type1" speedFactor="0.92" vaporized=""/>
    <tripinfo id="f_0_3.6" depart="50.00" departLane="np3_nt3_0" departPos="15.74" departSpeed="0.00" departDelay="0.91" arrival="241.00" arrivalLane="nt14_np11_0" arrivalPos="75.00" arrivalSpeed="9.11" duration="191.00" routeLength="935.35" waitingTime="48.00" waitingCount="5" stopTime="0.00" timeLoss="113.29" rerouteNo="0" devices="tripinfo_f_0_3.6" vType="type1" speedFactor="1.02" vaporized=""/>
    <tripinfo id="f_0_3.7" depart="58.00" departLane="np3_nt3_0" departPos="31.19" departSpeed="0.00" departDelay="0.73" arrival="242.00" arrivalLane="nt14_np11_0" arrivalPos="75.00" arrivalSpeed="11.42" duration="184.00" routeLength="919.90" waitingTime="47.00" waitingCount="6" stopTime="0.00" timeLoss="110.62" rerouteNo="0" devices="tripinfo_f_0_3.7" vType="type1" speedFactor="1.05" vaporized=""/>
    <tripinfo id="f_0_0.4" depart="55.00" departLane="np13_nt13_0" departPos="60.54" departSpeed="0.00" departDelay="0.46" arrival="264.00" arrivalLane="nt4_np5_0" arrivalPos="75.00" arrivalSpeed="17.63" duration="209.00" routeLength="1287.35" waitingTime="71.00" waitingCount="6" stopTime="0.00" timeLoss="116.76" rerouteNo="0" devices="tripinfo_f_0_0.4" vType="type1" speedFactor="0.98" vaporized=""/>
    <tripinfo id="f_0_0.5" depart="69.00" departLane="np13_nt13_0" departPos="24.63" departSpeed="0.00" departDelay="0.82" arrival="273.00" arrivalLane="nt4_np5_0" arrivalPos="75.00" arrivalSpeed="17.36" duration="204.00" routeLength="1323.26" waitingTime="74.00" waitingCount="5" stopTime="0.00" timeLoss="108.96" rerouteNo="0" devices="tripinfo_f_0_0.5" vType="type1" speedFactor="0.96" vaporized=""/>
    <tripinfo id="f_0_0.6" depart="82.00" departLane="np13_nt13_0" departPos="0.67" departSpeed="0.00" departDelay="0.18" arrival="275.00" arrivalLane="nt4_np5_0" arrivalPos="75.00" arrivalSpeed="19.05" duration="193.00" routeLength="1347.22" waitingTime="65.00" waitingCount="5" stopTime="0.00" timeLoss="99.49" rerouteNo="0" devices="tripinfo_f_0_0.6" vType="type1" speedFactor="0.99" vaporized=""/>
    <tripinfo id="f_0_3.8" depart="66.00" departLane="np3_nt3_0" departPos="58.65" departSpeed="0.00" departDelay="0.54" arrival="277.00" arrivalLane="nt14_np11_0" arrivalPos="75.00" arrivalSpeed="10.09" duration="211.00" routeLength="892.44" waitingTime="114.00" waitingCount="5" stopTime="0.00" timeLoss="137.08" rerouteNo="0" devices="tripinfo_f_0_3.8" vType="type1" speedFactor="1.01" vaporized=""/>
    <tripinfo id="f_0_0.7" depart="96.00" departLane="np13_nt13_0" departPos="8.04" departSpeed="0.00" departDelay="0.55" arrival="279.00" arrivalLane="nt4_np5_0" arrivalPos="75.00" arrivalSpeed="20.64" duration="183.00" routeLength="1339.85" waitingTime="54.00" waitingCount="5" stopTime="0.00" timeLoss="100.60" rerouteNo="0" devices="tripinfo_f_0_0.7" vType="type1" speedFactor="1.13" vaporized=""/>
    <tripinfo id="f_0_2.2" depart="17.00" departLane="np2_nt2_0" departPos="45.69" departSpeed="0.00" departDelay="0.64" arrival="292.00" arrivalLane="nt15_np10_0" arrivalPos="75.00" arrivalSpeed="6.04" duration="275.00" routeLength="905.39" waitingTime="131.00" waitingCount="8" stopTime="0.00" timeLoss="174.02" rerouteNo="0" devices="tripinfo_f_0_2.2" vType="type1" speedFactor="0.75" vaporized=""/>
    <tripinfo id="f_0_0.8" depart="110.00" departLane="np13_nt13_0" departPos="29.07" departSpeed="0.00" departDelay="0.91" arrival="292.00" arrivalLane="nt4_np5_0" arrivalPos="75.00" arrivalSpeed="18.98" duration="182.00" routeLength="1318.82" waitingTime="64.00" waitingCount="3" stopTime="0.00" timeLoss="89.40" rerouteNo="0" devices="tripinfo_f_0_0.8" vType="type1" speedFactor="0.99" vaporized=""/>
    <tripinfo id="f_0_0.9" depart="123.00" departLane="np13_nt13_0" departPos="27.09" departSpeed="0.00" departDelay="0.28" arrival="293.00" arrivalLane="nt4_np5_0" arrivalPos="75.00" arrivalSpeed="20.63" duration="170.00" routeLength="1320.80" waitingTime="51.00" waitingCount="3" stopTime="0.00" timeLoss="82.89" rerouteNo="0" devices="tripinfo_f_0_0.9" vType="type1" speedFactor="1.05" vaporized=""/>
    <tripinfo id="f_0_2.3" depart="25.00" departLane="np2_nt2_0" departPos="19.86" departSpeed="0.00" departDelay="0.45" arrival="294.00" arrivalLane="nt15_np10_0" arrivalPos="75.00" arrivalSpeed="12.30" duration="269.00" routeLength="931.22" waitingTime="125.00" waitingCount="8" stopTime="0.00" timeLoss="198.44" rerouteNo="0" devices="tripinfo_f_0_2.3" vType="type1" speedFactor="1.12" vaporized=""/>
    <tripinfo id="f_0_3.9" depart="74.00" departLane="np3_nt3_0" departPos="13.10" departSpeed="0.00" departDelay="0.36" arrival="302.00" arrivalLane="nt14_np11_0" arrivalPos="75.00" arrivalSpeed="10.22" duration="228.00" routeLength="937.99" waitingTime="119.00" waitingCount="6" stopTime="0.00" timeLoss="148.54" rerouteNo="0" devices="tripinfo_f_0_3.9" vType="type1" speedFactor="0.99" vaporized=""/>
    <tripinfo id="f_0_3.10" depart="82.00" departLane="np3_nt3_0" departPos="30.47" departSpeed="0.00" departDelay="0.18" arrival="305.00" arrivalLane="nt14_np11_0" arrivalPos="75.00" arrivalSpeed="8.67" duration="223.00" routeLength="920.62" waitingTime="111.00" waitingCount="6" stopTime="0.00" timeLoss="144.62" rerouteNo="0" devices="tripinfo_f_0_3.10" vType="type1" speedFactor="0.99" vaporized=""/>
    <tripinfo id="f_0_2.4" depart="33.00" departLane="np2_nt2_0" departPos="51.35" departSpeed="0.00" departDelay="0.27" arrival="308.00" arrivalLane="nt15_np10_0" arrivalPos="75.00" arrivalSpeed="8.95" duration="275.00" routeLength="899.73" waitingTime="150.00" waitingCount="10" stopTime="0.00" timeLoss="198.51" rerouteNo="0" devices="tripinfo_f_0_2.4" vType="type1" speedFactor="0.99" vaporized=""/>
    <tripinfo id="f_0_2.5" depart="41.00" departLane="np2_nt2_0" departPos="49.68" departSpeed="0.00" departDelay="0.09" arrival="310.00" arrivalLane="nt15_np10_0" arrivalPos="75.00" arrivalSpeed="10.21" duration="269.00" routeLength="901.40" waitingTime="135.00" waitingCount="10" stopTime="0.00" timeLoss="191.91" rerouteNo="0" devices="tripinfo_f_0_2.5" vType="type1" speedFactor="0.98" vaporized=""/>
    <tripinfo id="f_0_3.11" depart="90.00" departLane="np3_nt3_0" departPos="27.72" departSpeed="0.00" departDelay="0.00" arrival="334.00" arrivalLane="nt14_np11_0" arrivalPos="75.00" arrivalSpeed="8.02" duration="244.00" routeLength="923.37" waitingTime="114.00" waitingCount="7" stopTime="0.00" timeLoss="152.44" rerouteNo="0" devices="tripinfo_f_0_3.11" vType="type1" speedFactor="0.85" vaporized=""/>
    <tripinfo id="f_0_2.6" depart="50.00" departLane="np2_nt2_0" departPos="58.11" departSpeed="0.00" departDelay="0.91" arrival="336.00" arrivalLane="nt15_np10_0" arrivalPos="75.00" arrivalSpeed="10.72" duration="286.00" routeLength="892.97" waitingTime="170.00" waitingCount="9" stopTime="0.00" timeLoss="218.02" rerouteNo="0" devices="tripinfo_f_0_2.6" vType="type1" speedFactor="1.10" vaporized=""/>
    <tripinfo id="f_0_3.12" depart="99.00" departLane="np3_nt3_0" departPos="17.23" departSpeed="0.00" departDelay="0.82" arrival="336.00" arrivalLane="nt14_np11_0" arrivalPos="75.00" arrivalSpeed="11.42" duration="237.00" routeLength="933.86" waitingTime="99.00" waitingCount="7" stopTime="0.00" timeLoss="166.46" rerouteNo="0" devices="tripinfo_f_0_3.12" vType="type1" speedFactor="1.11" vaporized=""/>
    <tripinfo id="f_0_1.9" depart="123.00" departLane="np16_nt1_0" departPos="13.90" departSpeed="0.00" departDelay="0.28" arrival="347.00" arrivalLane="nt16_np8_0" arrivalPos="75.00" arrivalSpeed="18.83" duration="224.00" routeLength="1333.98" waitingTime="95.00" waitingCount="6" stopTime="0.00" timeLoss="135.66" rerouteNo="0" devices="tripinfo_f_0_1.9" vType="type1" speedFactor="1.05" vaporized=""/>
    <tripinfo id="f_0_0.10" depart="137.00" departLane="np13_nt13_0" departPos="6.41" departSpeed="0.00" departDelay="0.64" arrival="379.00" arrivalLane="nt4_np5_0" arrivalPos="75.00" arrivalSpeed="17.48" duration="242.00" routeLength="1341.48" waitingTime="92.00" waitingCount="5" stopTime="0.00" timeLoss="141.44" rerouteNo="0" devices="tripinfo_f_0_0.10" vType="type1" speedFactor="0.93" vaporized=""/>
    <tripinfo id="f_0_0.11" depart="150.00" departLane="np13_nt13_0" departPos="53.76" departSpeed="0.00" departDelay="0.00" arrival="381.00" arrivalLane="nt4_np5_0" arrivalPos="75.00" arrivalSpeed="18.05" duration="231.00" routeLength="1294.13" waitingTime="91.00" waitingCount="7" stopTime="0.00" timeLoss="138.05" rerouteNo="0" devices="tripinfo_f_0_0.11" vType="type1" speedFactor="0.98" vaporized=""/>
    <tripinfo id="f_0_0.12" depart="164.00" departLane="np13_nt13_0" departPos="9.76" departSpeed="0.00" departDelay="0.37" arrival="382.00" arrivalLane="nt4_np5_0" arrivalPos="75.00" arrivalSpeed="19.75" duration="218.00" routeLength="1338.13" waitingTime="87.00" waitingCount="7" stopTime="0.00" timeLoss="133.98" rerouteNo="0" devices="tripinfo_f_0_0.12" vType="type1" speedFactor="1.10" vaporized=""/>
    <tripinfo id="f_0_2.7" depart="58.00" departLane="np2_nt2_0" departPos="21.44" departSpeed="0.00" departDelay="0.73" arrival="383.00" arrivalLane="nt15_np10_0" arrivalPos="75.00" arrivalSpeed="10.74" duration="325.00" routeLength="929.64" waitingTime="186.00" waitingCount="10" stopTime="0.00" timeLoss="252.80" rerouteNo="0" devices="tripinfo_f_0_2.7" vType="type1" speedFactor="1.08" vaporized=""/>
    <tripinfo id="f_0_1.1" depart="14.00" departLane="np16_nt1_0" departPos="26.78" departSpeed="0.00" departDelay="0.36" arrival="387.00" arrivalLane="nt16_np8_0" arrivalPos="75.00" arrivalSpeed="18.80" duration="373.00" routeLength="1321.10" waitingTime="219.00" waitingCount="10" stopTime="0.00" timeLoss="286.03" rerouteNo="0" devices="tripinfo_f_0_1.1" vType="type1" speedFactor="1.05" vaporized=""/>
    <tripinfo id="f_0_3.13" depart="107.00" departLane="np3_nt3_0" departPos="2.03" departSpeed="0.00" departDelay="0.63" arrival="388.00" arrivalLane="nt14_np11_0" arrivalPos="75.00" arrivalSpeed="7.91" duration="281.00" routeLength="949.06" waitingTime="151.00" waitingCount="9" stopTime="0.00" timeLoss="196.27" rerouteNo="0" devices="tripinfo_f_0_3.13" vType="type1" speedFactor="0.94" vaporized=""/>
    <tripinfo id="f_0_3.14" depart="115.00" departLane="np3_nt3_0" departPos="1.76" departSpeed="0.00" departDelay="0.45" arrival="390.00" arrivalLane="nt14_np11_0" arrivalPos="75.00" arrivalSpeed="8.81" duration="275.00" routeLength="949.33" waitingTime="136.00" waitingCount="11" stopTime="0.00" timeLoss="193.98" rerouteNo="0" devices="tripinfo_f_0_3.14" vType="type1" speedFactor="0.99" vaporized=""/>
    <tripinfo id="f_0_3.15" depart="123.00" departLane="np3_nt3_0" departPos="0.00" departSpeed="0.00" departDelay="0.27" arrival="406.00" arrivalLane="nt14_np11_0" arrivalPos="75.00" arrivalSpeed="10.90" duration="283.00" routeLength="951.09" waitingTime="137.00" waitingCount="11" stopTime="0.00" timeLoss="210.35" rerouteNo="0" devices="tripinfo_f_0_3.15" vType="type1" speedFactor="1.10" vaporized=""/>
    <tripinfo id="f_0_3.16" depart="131.00" departLane="np3_nt3_0" departPos="0.00" departSpeed="0.00" departDelay="0.09" arrival="409.00" arrivalLane="nt14_np11_0" arrivalPos="75.00" arrivalSpeed="10.15" duration="278.00" routeLength="951.09" waitingTime="129.00" waitingCount="11" stopTime="0.00" timeLoss="198.47" rerouteNo="0" devices="tripinfo_f_0_3.16" vType="type1" speedFactor="1.00" vaporized=""/>
    <tripinfo id="f_0_3.17" depart="140.00" departLane="np3_nt3_0" departPos="0.00" departSpeed="0.00" departDelay="0.91" arrival="412.00" arrivalLane="nt14_np11_0" arrivalPos="75.00" arrivalSpeed="8.55" duration="272.00" routeLength="951.09" waitingTime="123.00" waitingCount="9" stopTime="0.00" timeLoss="190.86" rerouteNo="0" devices="tripinfo_f_0_3.17" vType="type1" speedFactor="0.99" vaporized=""/>
    <tripinfo id="f_0_1.10" depart="137.00" departLane="np16_nt1_0" departPos="15.94" departSpeed="0.00" departDelay="0.64" arrival="413.00" arrivalLane="nt16_np8_0" arrivalPos="75.00" arrivalSpeed="22.92" duration="276.00" routeLength="1331.94" waitingTime="143.00" waitingCount="8" stopTime="0.00" timeLoss="197.27" rerouteNo="0" devices="tripinfo_f_0_1.10" vType="type1" speedFactor="1.17" vaporized=""/>
    <tripinfo id="f_0_3.20" depart="178.00" departLane="np3_nt3_0" departPos="20.80" departSpeed="0.00" departDelay="14.36" arrival="414.00" arrivalLane="nt14_np11_0" arrivalPos="75.00" arrivalSpeed="10.65" duration="236.00" routeLength="930.29" waitingTime="104.00" waitingCount="9" stopTime="0.00" timeLoss="160.80" rerouteNo="0" devices="tripinfo_f_0_3.20" vType="type1" speedFactor="1.04" vaporized=""/>
    <tripinfo id="f_0_2.8" depart="66.00" departLane="np2_nt2_0" departPos="15.84" departSpeed="0.00" departDelay="0.54" arrival="425.00" arrivalLane="nt15_np10_0" arrivalPos="75.00" arrivalSpeed="8.61" duration="359.00" routeLength="935.24" waitingTime="201.00" waitingCount="10" stopTime="0.00" timeLoss="276.49" rerouteNo="0" devices="tripinfo_f_0_2.8" vType="type1" speedFactor="0.95" vaporized=""/>
    <tripinfo id="f_0_3.18" depart="168.00" departLane="np3_nt3_0" departPos="0.00" departSpeed="0.00" departDelay="20.72" arrival="444.00" arrivalLane="nt14_np11_0" arrivalPos="75.00" arrivalSpeed="7.30" duration="276.00" routeLength="951.09" waitingTime="111.00" waitingCount="10" stopTime="0.00" timeLoss="184.74" rerouteNo="0" devices="tripinfo_f_0_3.18" vType="type1" speedFactor="0.88" vaporized=""/>
    <tripinfo id="f_0_3.22" depart="197.00" departLane="np3_nt3_0" departPos="28.70" departSpeed="0.00" departDelay="17.00" arrival="445.00" arrivalLane="nt14_np11_0" arrivalPos="75.00" arrivalSpeed="10.64" duration="248.00" routeLength="922.39" waitingTime="107.00" waitingCount="11" stopTime="0.00" timeLoss="173.83" rerouteNo="0" devices="tripinfo_f_0_3.22" vType="type1" speedFactor="1.03" vaporized=""/>
    <tripinfo id="f_0_3.19" depart="178.00" departLane="np3_nt3_0" departPos="1.08" departSpeed="0.00" departDelay="22.54" arrival="451.00" arrivalLane="nt14_np11_0" arrivalPos="75.00" arrivalSpeed="9.74" duration="273.00" routeLength="950.01" waitingTime="107.00" waitingCount="11" stopTime="0.00" timeLoss="197.98" rerouteNo="0" devices="tripinfo_f_0_3.19" vType="type1" speedFactor="1.06" vaporized=""/>
    <tripinfo id="f_0_3.21" depart="184.00" departLane="np3_nt3_0" departPos="0.00" departSpeed="0.00" departDelay="12.18" arrival="454.00" arrivalLane="nt14_np11_0" arrivalPos="75.00" arrivalSpeed="9.54" duration="270.00" routeLength="951.09" waitingTime="96.00" waitingCount="12" stopTime="0.00" timeLoss="189.85" rerouteNo="0" devices="tripinfo_f_0_3.21" vType="type1" speedFactor="0.99" vaporized=""/>
    <tripinfo id="f_0_0.13" depart="178.00" departLane="np13_nt13_0" departPos="54.03" departSpeed="0.00" departDelay="0.73" arrival="458.00" arrivalLane="nt4_np5_0" arrivalPos="75.00" arrivalSpeed="18.71" duration="280.00" routeLength="1293.86" waitingTime="147.00" waitingCount="7" stopTime="0.00" timeLoss="188.42" rerouteNo="0" devices="tripinfo_f_0_0.13" vType="type1" speedFactor="0.99" vaporized=""/>
    <tripinfo id="f_0_3.23" depart="198.00" departLane="np3_nt3_0" departPos="0.00" departSpeed="0.00" departDelay="9.81" arrival="458.00" arrivalLane="nt14_np11_0" arrivalPos="75.00" arrivalSpeed="7.47" duration="260.00" routeLength="951.09" waitingTime="87.00" waitingCount="12" stopTime="0.00" timeLoss="170.68" rerouteNo="0" devices="tripinfo_f_0_3.23" vType="type1" speedFactor="0.89" vaporized=""/>
    <tripinfo id="f_0_0.14" depart="191.00" departLane="np13_nt13_0" departPos="15.73" departSpeed="0.00" departDelay="0.10" arrival="460.00" arrivalLane="nt4_np5_0" arrivalPos="75.00" arrivalSpeed="17.33" duration="269.00" routeLength="1332.16" waitingTime="129.00" waitingCount="6" stopTime="0.00" timeLoss="172.80" rerouteNo="0" devices="tripinfo_f_0_0.14" vType="type1" speedFactor="0.96" vaporized=""/>
    <tripinfo id="f_0_3.24" depart="203.00" departLane="np3_nt3_0" departPos="0.00" departSpeed="0.00" departDelay="6.63" arrival="460.00" arrivalLane="nt14_np11_0" arrivalPos="75.00" arrivalSpeed="11.09" duration="257.00" routeLength="951.09" waitingTime="99.00" waitingCount="10" stopTime="0.00" timeLoss="177.40" rerouteNo="0" devices="tripinfo_f_0_3.24" vType="type1" speedFactor="1.01" vaporized=""/>
    <tripinfo id="f_0_0.15" depart="205.00" departLane="np13_nt13_0" departPos="8.26" departSpeed="0.00" departDelay="0.46" arrival="478.00" arrivalLane="nt4_np5_0" arrivalPos="75.00" arrivalSpeed="16.35" duration="273.00" routeLength="1339.63" waitingTime="129.00" waitingCount="7" stopTime="0.00" timeLoss="173.99" rerouteNo="0" devices="tripinfo_f_0_0.15" vType="type1" speedFactor="0.94" vaporized=""/>
    <tripinfo id="f_0_0.16" depart="219.00" departLane="np13_nt13_0" departPos="40.36" departSpeed="0.00" departDelay="0.82" arrival="480.00" arrivalLane="nt4_np5_0" arrivalPos="75.00" arrivalSpeed="20.55" duration="261.00" routeLength="1307.53" waitingTime="122.00" waitingCount="7" stopTime="0.00" timeLoss="181.01" rerouteNo="0" devices="tripinfo_f_0_0.16" vType="type1" speedFactor="1.14" vaporized=""/>
    <tripinfo id="f_0_3.25" depart="212.00" departLane="np3_nt3_0" departPos="0.00" departSpeed="0.00" departDelay="7.45" arrival="482.00" arrivalLane="nt14_np11_0" arrivalPos="75.00" arrivalSpeed="11.13" duration="270.00" routeLength="951.09" waitingTime="116.00" waitingCount="11" stopTime="0.00" timeLoss="192.44" rerouteNo="0" devices="tripinfo_f_0_3.25" vType="type1" speedFactor="1.03" vaporized=""/>
    <tripinfo id="f_0_2.9" depart="74.00" departLane="np2_nt2_0" departPos="11.52" departSpeed="0.00" departDelay="0.36" arrival="484.00" arrivalLane="nt15_np10_0" arrivalPos="75.00" arrivalSpeed="6.94" duration="410.00" routeLength="939.56" waitingTime="239.00" waitingCount="11" stopTime="0.00" timeLoss="316.52" rerouteNo="0" devices="tripinfo_f_0_2.9" vType="type1" speedFactor="0.84" vaporized=""/>
    <tripinfo id="f_0_3.26" depart="216.00" departLane="np3_nt3_0" departPos="0.00" departSpeed="0.00" departDelay="3.27" arrival="484.00" arrivalLane="nt14_np11_0" arrivalPos="75.00" arrivalSpeed="9.91" duration="268.00" routeLength="951.09" waitingTime="104.00" waitingCount="10" stopTime="0.00" timeLoss="187.17" rerouteNo="0" devices="tripinfo_f_0_3.26" vType="type1" speedFactor="0.99" vaporized=""/>
    <tripinfo id="f_0_3.27" depart="227.00" departLane="np3_nt3_0" departPos="0.00" departSpeed="0.00" departDelay="6.09" arrival="486.00" arrivalLane="nt14_np11_0" arrivalPos="75.00" arrivalSpeed="11.17" duration="259.00" routeLength="951.09" waitingTime="96.00" waitingCount="11" stopTime="0.00" timeLoss="182.79" rerouteNo="0" devices="tripinfo_f_0_3.27" vType="type1" speedFactor="1.05" vaporized=""/>
    <tripinfo id="f_0_3.28" depart="231.00" departLane="np3_nt3_0" departPos="0.00" departSpeed="0.00" departDelay="1.90" arrival="488.00" arrivalLane="nt14_np11_0" arrivalPos="75.00" arrivalSpeed="12.47" duration="257.00" routeLength="951.09" waitingTime="90.00" waitingCount="10" stopTime="0.00" timeLoss="187.62" rerouteNo="0" devices="tripinfo_f_0_3.28" vType="type1" speedFactor="1.16" vaporized=""/>
    <tripinfo id="f_0_1.11" depart="150.00" departLane="np16_nt1_0" departPos="13.30" departSpeed="0.00" departDelay="0.00" arrival="492.00" arrivalLane="nt16_np8_0" arrivalPos="75.00" arrivalSpeed="18.95" duration="342.00" routeLength="1334.58" waitingTime="192.00" waitingCount="10" stopTime="0.00" timeLoss="252.49" rerouteNo="0" devices="tripinfo_f_0_1.11" vType="type1" speedFactor="1.04" vaporized=""/>
    <tripinfo id="f_0_2.23" depart="189.00" departLane="np2_nt2_0" departPos="44.89" departSpeed="0.00" departDelay="0.81" arrival="499.00" arrivalLane="nt15_np10_0" arrivalPos="75.00" arrivalSpeed="7.39" duration="310.00" routeLength="906.19" waitingTime="169.00" waitingCount="10" stopTime="0.00" timeLoss="216.21" rerouteNo="0" devices="tripinfo_f_0_2.23" vType="type1" speedFactor="0.81" vaporized=""/>
    <tripinfo id="f_0_0.17" depart="232.00" departLane="np13_nt13_0" departPos="2.61" departSpeed="0.00" departDelay="0.19" arrival="500.00" arrivalLane="nt4_np5_0" arrivalPos="75.00" arrivalSpeed="16.68" duration="268.00" routeLength="1345.28" waitingTime="121.00" waitingCount="8" stopTime="0.00" timeLoss="164.45" rerouteNo="0" devices="tripinfo_f_0_0.17" vType="type1" speedFactor="0.90" vaporized=""/>
    <tripinfo id="f_0_2.10" depart="82.00" departLane="np2_nt2_0" departPos="57.79" departSpeed="0.00" departDelay="0.18" arrival="501.00" arrivalLane="nt15_np10_0" arrivalPos="75.00" arrivalSpeed="9.76" duration="419.00" routeLength="893.29" waitingTime="265.00" waitingCount="13" stopTime="0.00" timeLoss="348.73" rerouteNo="0" devices="tripinfo_f_0_2.10" vType="type1" speedFactor="1.07" vaporized=""/>
    <tripinfo id="f_0_0.18" depart="246.00" departLane="np13_nt13_0" departPos="27.33" departSpeed="0.00" departDelay="0.55" arrival="514.00" arrivalLane="nt4_np5_0" arrivalPos="75.00" arrivalSpeed="20.67" duration="268.00" routeLength="1320.56" waitingTime="124.00" waitingCount="8" stopTime="0.00" timeLoss="183.95" rerouteNo="0" devices="tripinfo_f_0_0.18" vType="type1" speedFactor="1.09" vaporized=""/>
    <tripinfo id="f_0_3.29" depart="253.00" departLane="np3_nt3_0" departPos="0.00" departSpeed="0.00" departDelay="15.72" arrival="522.00" arrivalLane="nt14_np11_0" arrivalPos="75.00" arrivalSpeed="10.55" duration="269.00" routeLength="951.09" waitingTime="99.00" waitingCount="11" stopTime="0.00" timeLoss="191.87" rerouteNo="0" devices="tripinfo_f_0_3.29" vType="type1" speedFactor="1.04" vaporized=""/>
    <tripinfo id="f_0_0.19" depart="260.00" departLane="np13_nt13_0" departPos="24.86" departSpeed="0.00" departDelay="0.92" arrival="533.00" arrivalLane="nt4_np5_0" arrivalPos="75.00" arrivalSpeed="17.12" duration="273.00" routeLength="1323.03" waitingTime="119.00" waitingCount="11" stopTime="0.00" timeLoss="171.71" rerouteNo="0" devices="tripinfo_f_0_0.19" vType="type1" speedFactor="0.91" vaporized=""/>
    <tripinfo id="f_0_0.20" depart="273.00" departLane="np13_nt13_0" departPos="3.78" departSpeed="0.00" departDelay="0.28" arrival="535.00" arrivalLane="nt4_np5_0" arrivalPos="75.00" arrivalSpeed="19.79" duration="262.00" routeLength="1344.11" waitingTime="105.00" waitingCount="8" stopTime="0.00" timeLoss="174.96" rerouteNo="0" devices="tripinfo_f_0_0.20" vType="type1" speedFactor="1.07" vaporized=""/>
    <tripinfo id="f_0_2.22" depart="180.00" departLane="np2_nt2_0" departPos="36.96" departSpeed="0.00" departDelay="0.00" arrival="552.00" arrivalLane="nt15_np10_0" arrivalPos="75.00" arrivalSpeed="10.96" duration="372.00" routeLength="914.12" waitingTime="256.00" waitingCount="10" stopTime="0.00" timeLoss="295.07" rerouteNo="0" devices="tripinfo_f_0_2.22" vType="type1" speedFactor="1.00" vaporized=""/>
    <tripinfo id="f_0_3.30" depart="256.00" departLane="np3_nt3_0" departPos="0.46" departSpeed="0.00" departDelay="10.54" arrival="552.00" arrivalLane="nt14_np11_0" arrivalPos="75.00" arrivalSpeed="9.19" duration="296.00" routeLength="950.63" waitingTime="114.00" waitingCount="12" stopTime="0.00" timeLoss="220.22" rerouteNo="0" devices="tripinfo_f_0_3.30" vType="type1" speedFactor="1.05" vaporized=""/>
    <tripinfo id="f_0_0.21" depart="287.00" departLane="np13_nt13_0" departPos="12.34" departSpeed="0.00" departDelay="0.64" arrival="554.00" arrivalLane="nt4_np5_0" arrivalPos="75.00" arrivalSpeed="17.44" duration="267.00" routeLength="1335.55" waitingTime="103.00" waitingCount="11" stopTime="0.00" timeLoss="172.28" rerouteNo="0" devices="tripinfo_f_0_0.21" vType="type1" speedFactor="0.99" vaporized=""/>