<?xml version="1.0" encoding="UTF-8"?>

<!-- generated on 2023-08-30 12:43:17 by Eclipse SUMO libsumo Version 1.18.0
<configuration xmlns:xsi="http://www.w3.org/2001/XMLSchema-instance" xsi:noNamespaceSchemaLocation="http://sumo.dlr.de/xsd/libsumoConfiguration.xsd">

    <input>
        <net-file value="/home/stefan/RESCO/./environments/arterial4x4/arterial4x4.net.xml"/>
        <route-files value="/home/stefan/RESCO/./environments/arterial4x4/arterial4x4_67.rou.xml"/>
    </input>

    <output>
        <tripinfo-output value="/home/stefan/results/ITRPO-tr0-arterial4x4-0-drq_norm-wait_norm/tripinfo_67.xml"/>
        <tripinfo-output.write-unfinished value="true"/>
    </output>

    <processing>
        <time-to-teleport value="-1"/>
    </processing>

    <report>
        <no-warnings value="True"/>
        <no-step-log value="True"/>
    </report>

    <random_number>
        <random value="true"/>
    </random_number>

</configuration>
-->

<tripinfos xmlns:xsi="http://www.w3.org/2001/XMLSchema-instance" xsi:noNamespaceSchemaLocation="http://sumo.dlr.de/xsd/tripinfo_file.xsd">
    <tripinfo id="f_0_2.0" depart="0.00" departLane="np2_nt2_0" departPos="8.68" departSpeed="0.00" departDelay="0.00" arrival="116.00" arrivalLane="nt15_np10_0" arrivalPos="75.00" arrivalSpeed="12.84" duration="116.00" routeLength="942.40" waitingTime="27.00" waitingCount="4" stopTime="0.00" timeLoss="48.60" rerouteNo="0" devices="tripinfo_f_0_2.0" vType="type1" speedFactor="1.17" vaporized=""/>
    <tripinfo id="f_0_2.1" depart="9.00" departLane="np2_nt2_0" departPos="45.65" departSpeed="0.00" departDelay="0.82" arrival="162.00" arrivalLane="nt15_np10_0" arrivalPos="75.00" arrivalSpeed="10.17" duration="153.00" routeLength="905.43" waitingTime="55.00" waitingCount="3" stopTime="0.00" timeLoss="76.74" rerouteNo="0" devices="tripinfo_f_0_2.1" vType="type1" speedFactor="1.00" vaporized=""/>
    <tripinfo id="f_0_0.0" depart="0.00" departLane="np13_nt13_0" departPos="23.80" departSpeed="0.00" departDelay="0.00" arrival="184.00" arrivalLane="nt4_np5_0" arrivalPos="75.00" arrivalSpeed="13.83" duration="184.00" routeLength="1324.09" waitingTime="28.00" waitingCount="4" stopTime="0.00" timeLoss="66.04" rerouteNo="0" devices="tripinfo_f_0_0.0" vType="type1" speedFactor="0.78" vaporized=""/>
    <tripinfo id="f_0_2.2" depart="17.00" departLane="np2_nt2_0" departPos="22.08" departSpeed="0.00" departDelay="0.64" arrival="195.00" arrivalLane="nt15_np10_0" arrivalPos="75.00" arrivalSpeed="12.63" duration="178.00" routeLength="929.00" waitingTime="59.00" waitingCount="4" stopTime="0.00" timeLoss="116.27" rerouteNo="0" devices="tripinfo_f_0_2.2" vType="type1" speedFactor="1.27" vaporized=""/>
    <tripinfo id="f_0_3.0" depart="0.00" departLane="np3_nt3_0" departPos="30.14" departSpeed="0.00" departDelay="0.00" arrival="204.00" arrivalLane="nt14_np11_0" arrivalPos="75.00" arrivalSpeed="8.68" duration="204.00" routeLength="920.95" waitingTime="90.00" waitingCount="4" stopTime="0.00" timeLoss="114.24" rerouteNo="0" devices="tripinfo_f_0_3.0" vType="type1" speedFactor="0.87" vaporized=""/>
    <tripinfo id="f_0_0.1" depart="14.00" departLane="np13_nt13_0" departPos="45.09" departSpeed="0.00" departDelay="0.36" arrival="213.00" arrivalLane="nt4_np5_0" arrivalPos="75.00" arrivalSpeed="17.93" duration="199.00" routeLength="1302.80" waitingTime="72.00" waitingCount="6" stopTime="0.00" timeLoss="102.96" rerouteNo="0" devices="tripinfo_f_0_0.1" vType="type1" speedFactor="0.94" vaporized=""/>
    <tripinfo id="f_0_1.0" depart="0.00" departLane="np16_nt1_0" departPos="33.90" departSpeed="0.00" departDelay="0.00" arrival="214.00" arrivalLane="nt16_np8_0" arrivalPos="75.00" arrivalSpeed="15.75" duration="214.00" routeLength="1313.98" waitingTime="73.00" waitingCount="7" stopTime="0.00" timeLoss="110.55" rerouteNo="0" devices="tripinfo_f_0_1.0" vType="type1" speedFactor="0.89" vaporized=""/>
    <tripinfo id="f_0_2.3" depart="25.00" departLane="np2_nt2_0" departPos="32.11" departSpeed="0.00" departDelay="0.45" arrival="224.00" arrivalLane="nt15_np10_0" arrivalPos="75.00" arrivalSpeed="8.78" duration="199.00" routeLength="918.97" waitingTime="79.00" waitingCount="5" stopTime="0.00" timeLoss="108.73" rerouteNo="0" devices="tripinfo_f_0_2.3" vType="type1" speedFactor="0.86" vaporized=""/>
    <tripinfo id="f_0_2.4" depart="33.00" departLane="np2_nt2_0" departPos="51.85" departSpeed="0.00" departDelay="0.27" arrival="225.00" arrivalLane="nt15_np10_0" arrivalPos="75.00" arrivalSpeed="10.30" duration="192.00" routeLength="899.23" waitingTime="76.00" waitingCount="7" stopTime="0.00" timeLoss="120.73" rerouteNo="0" devices="tripinfo_f_0_2.4" vType="type1" speedFactor="1.05" vaporized=""/>
    <tripinfo id="f_0_2.5" depart="41.00" departLane="np2_nt2_0" departPos="33.86" departSpeed="0.00" departDelay="0.09" arrival="227.00" arrivalLane="nt15_np10_0" arrivalPos="75.00" arrivalSpeed="9.80" duration="186.00" routeLength="917.22" waitingTime="62.00" waitingCount="8" stopTime="0.00" timeLoss="111.92" rerouteNo="0" devices="tripinfo_f_0_2.5" vType="type1" speedFactor="1.03" vaporized=""/>
    <tripinfo id="f_0_2.6" depart="50.00" departLane="np2_nt2_0" departPos="24.93" departSpeed="0.00" departDelay="0.91" arrival="231.00" arrivalLane="nt15_np10_0" arrivalPos="75.00" arrivalSpeed="8.29" duration="181.00" routeLength="926.15" waitingTime="44.00" waitingCount="8" stopTime="0.00" timeLoss="94.91" rerouteNo="0" devices="tripinfo_f_0_2.6" vType="type1" speedFactor="0.90" vaporized=""/>
    <tripinfo id="f_0_2.7" depart="58.00" departLane="np2_nt2_0" departPos="38.41" departSpeed="0.00" departDelay="0.73" arrival="233.00" arrivalLane="nt15_np10_0" arrivalPos="75.00" arrivalSpeed="9.84" duration="175.00" routeLength="912.67" waitingTime="38.00" waitingCount="5" stopTime="0.00" timeLoss="91.02" rerouteNo="0" devices="tripinfo_f_0_2.7" vType="type1" speedFactor="0.92" vaporized=""/>
    <tripinfo id="f_0_0.2" depart="28.00" departLane="np13_nt13_0" departPos="55.35" departSpeed="0.00" departDelay="0.73" arrival="247.00" arrivalLane="nt4_np5_0" arrivalPos="75.00" arrivalSpeed="21.51" duration="219.00" routeLength="1292.54" waitingTime="102.00" waitingCount="6" stopTime="0.00" timeLoss="141.65" rerouteNo="0" devices="tripinfo_f_0_0.2" vType="type1" speedFactor="1.17" vaporized=""/>
    <tripinfo id="f_0_0.3" depart="41.00" departLane="np13_nt13_0" departPos="8.94" departSpeed="0.00" departDelay="0.09" arrival="250.00" arrivalLane="nt4_np5_0" arrivalPos="75.00" arrivalSpeed="21.68" duration="209.00" routeLength="1338.95" waitingTime="94.00" waitingCount="5" stopTime="0.00" timeLoss="126.66" rerouteNo="0" devices="tripinfo_f_0_0.3" vType="type1" speedFactor="1.12" vaporized=""/>
    <tripinfo id="f_0_3.1" depart="9.00" departLane="np3_nt3_0" departPos="1.86" departSpeed="0.00" departDelay="0.82" arrival="257.00" arrivalLane="nt14_np11_0" arrivalPos="75.00" arrivalSpeed="9.92" duration="248.00" routeLength="949.23" waitingTime="131.00" waitingCount="6" stopTime="0.00" timeLoss="171.41" rerouteNo="0" devices="tripinfo_f_0_3.1" vType="type1" speedFactor="1.04" vaporized=""/>
    <tripinfo id="f_0_3.2" depart="17.00" departLane="np3_nt3_0" departPos="41.93" departSpeed="0.00" departDelay="0.64" arrival="259.00" arrivalLane="nt14_np11_0" arrivalPos="75.00" arrivalSpeed="9.54" duration="242.00" routeLength="909.16" waitingTime="125.00" waitingCount="5" stopTime="0.00" timeLoss="166.40" rerouteNo="0" devices="tripinfo_f_0_3.2" vType="type1" speedFactor="1.01" vaporized=""/>
    <tripinfo id="f_0_3.3" depart="25.00" departLane="np3_nt3_0" departPos="39.87" departSpeed="0.00" departDelay="0.45" arrival="262.00" arrivalLane="nt14_np11_0" arrivalPos="75.00" arrivalSpeed="8.91" duration="237.00" routeLength="911.22" waitingTime="113.00" waitingCount="4" stopTime="0.00" timeLoss="154.64" rerouteNo="0" devices="tripinfo_f_0_3.3" vType="type1" speedFactor="0.94" vaporized=""/>
    <tripinfo id="f_0_3.4" depart="33.00" departLane="np3_nt3_0" departPos="20.73" departSpeed="0.00" departDelay="0.27" arrival="263.00" arrivalLane="nt14_np11_0" arrivalPos="75.00" arrivalSpeed="12.25" duration="230.00" routeLength="930.36" waitingTime="116.00" waitingCount="6" stopTime="0.00" timeLoss="165.26" rerouteNo="0" devices="tripinfo_f_0_3.4" vType="type1" speedFactor="1.20" vaporized=""/>
    <tripinfo id="f_0_1.1" depart="14.00" departLane="np16_nt1_0" departPos="27.86" departSpeed="0.00" departDelay="0.36" arrival="273.00" arrivalLane="nt16_np8_0" arrivalPos="75.00" arrivalSpeed="17.73" duration="259.00" routeLength="1320.02" waitingTime="93.00" waitingCount="10" stopTime="0.00" timeLoss="163.46" rerouteNo="0" devices="tripinfo_f_0_1.1" vType="type1" speedFactor="0.96" vaporized=""/>
    <tripinfo id="f_0_3.5" depart="41.00" departLane="np3_nt3_0" departPos="24.88" departSpeed="0.00" departDelay="0.09" arrival="273.00" arrivalLane="nt14_np11_0" arrivalPos="75.00" arrivalSpeed="8.36" duration="232.00" routeLength="926.21" waitingTime="115.00" waitingCount="8" stopTime="0.00" timeLoss="152.35" rerouteNo="0" devices="tripinfo_f_0_3.5" vType="type1" speedFactor="0.98" vaporized=""/>
    <tripinfo id="f_0_1.2" depart="28.00" departLane="np16_nt1_0" departPos="21.49" departSpeed="0.00" departDelay="0.73" arrival="275.00" arrivalLane="nt16_np8_0" arrivalPos="75.00" arrivalSpeed="20.29" duration="247.00" routeLength="1326.39" waitingTime="73.00" waitingCount="10" stopTime="0.00" timeLoss="156.97" rerouteNo="0" devices="tripinfo_f_0_1.2" vType="type1" speedFactor="1.03" vaporized=""/>
    <tripinfo id="f_0_0.4" depart="55.00" departLane="np13_nt13_0" departPos="60.45" departSpeed="0.00" departDelay="0.46" arrival="275.00" arrivalLane="nt4_np5_0" arrivalPos="75.00" arrivalSpeed="17.73" duration="220.00" routeLength="1287.44" waitingTime="94.00" waitingCount="7" stopTime="0.00" timeLoss="126.14" rerouteNo="0" devices="tripinfo_f_0_0.4" vType="type1" speedFactor="0.95" vaporized=""/>
    <tripinfo id="f_0_0.5" depart="69.00" departLane="np13_nt13_0" departPos="0.93" departSpeed="0.00" departDelay="0.82" arrival="277.00" arrivalLane="nt4_np5_0" arrivalPos="75.00" arrivalSpeed="21.55" duration="208.00" routeLength="1346.96" waitingTime="77.00" waitingCount="7" stopTime="0.00" timeLoss="124.97" rerouteNo="0" devices="tripinfo_f_0_0.5" vType="type1" speedFactor="1.13" vaporized=""/>
    <tripinfo id="f_0_1.3" depart="41.00" departLane="np16_nt1_0" departPos="37.51" departSpeed="0.00" departDelay="0.09" arrival="284.00" arrivalLane="nt16_np8_0" arrivalPos="75.00" arrivalSpeed="18.37" duration="243.00" routeLength="1310.37" waitingTime="63.00" waitingCount="13" stopTime="0.00" timeLoss="151.04" rerouteNo="0" devices="tripinfo_f_0_1.3" vType="type1" speedFactor="1.00" vaporized=""/>
    <tripinfo id="f_0_3.6" depart="50.00" departLane="np3_nt3_0" departPos="15.77" departSpeed="0.00" departDelay="0.91" arrival="287.00" arrivalLane="nt14_np11_0" arrivalPos="75.00" arrivalSpeed="10.61" duration="237.00" routeLength="935.32" waitingTime="117.00" waitingCount="10" stopTime="0.00" timeLoss="159.97" rerouteNo="0" devices="tripinfo_f_0_3.6" vType="type1" speedFactor="1.02" vaporized=""/>
    <tripinfo id="f_0_0.6" depart="82.00" departLane="np13_nt13_0" departPos="7.31" departSpeed="0.00" departDelay="0.18" arrival="287.00" arrivalLane="nt4_np5_0" arrivalPos="75.00" arrivalSpeed="23.09" duration="205.00" routeLength="1340.58" waitingTime="85.00" waitingCount="7" stopTime="0.00" timeLoss="126.81" rerouteNo="0" devices="tripinfo_f_0_0.6" vType="type1" speedFactor="1.19" vaporized=""/>
    <tripinfo id="f_0_3.7" depart="58.00" departLane="np3_nt3_0" departPos="8.11" departSpeed="0.00" departDelay="0.73" arrival="289.00" arrivalLane="nt14_np11_0" arrivalPos="75.00" arrivalSpeed="9.72" duration="231.00" routeLength="942.98" waitingTime="102.00" waitingCount="8" stopTime="0.00" timeLoss="156.12" rerouteNo="0" devices="tripinfo_f_0_3.7" vType="type1" speedFactor="1.06" vaporized=""/>
    <tripinfo id="f_0_1.4" depart="55.00" departLane="np16_nt1_0" departPos="67.12" departSpeed="0.00" departDelay="0.46" arrival="298.00" arrivalLane="nt16_np8_0" arrivalPos="75.00" arrivalSpeed="23.36" duration="243.00" routeLength="1280.76" waitingTime="65.00" waitingCount="13" stopTime="0.00" timeLoss="166.50" rerouteNo="0" devices="tripinfo_f_0_1.4" vType="type1" speedFactor="1.18" vaporized=""/>
    <tripinfo id="f_0_0.7" depart="96.00" departLane="np13_nt13_0" departPos="49.83" departSpeed="0.00" departDelay="0.55" arrival="304.00" arrivalLane="nt4_np5_0" arrivalPos="75.00" arrivalSpeed="18.52" duration="208.00" routeLength="1298.06" waitingTime="66.00" waitingCount="8" stopTime="0.00" timeLoss="117.05" rerouteNo="0" devices="tripinfo_f_0_0.7" vType="type1" speedFactor="1.00" vaporized=""/>
    <tripinfo id="f_0_3.8" depart="66.00" departLane="np3_nt3_0" departPos="25.75" departSpeed="0.00" departDelay="0.54" arrival="312.00" arrivalLane="nt14_np11_0" arrivalPos="75.00" arrivalSpeed="10.16" duration="246.00" routeLength="925.34" waitingTime="116.00" waitingCount="9" stopTime="0.00" timeLoss="165.87" rerouteNo="0" devices="tripinfo_f_0_3.8" vType="type1" speedFactor="0.96" vaporized=""/>
    <tripinfo id="f_0_3.9" depart="74.00" departLane="np3_nt3_0" departPos="24.65" departSpeed="0.00" departDelay="0.36" arrival="319.00" arrivalLane="nt14_np11_0" arrivalPos="75.00" arrivalSpeed="7.04" duration="245.00" routeLength="926.44" waitingTime="95.00" waitingCount="5" stopTime="0.00" timeLoss="131.96" rerouteNo="0" devices="tripinfo_f_0_3.9" vType="type1" speedFactor="0.69" vaporized=""/>
    <tripinfo id="f_0_2.8" depart="66.00" departLane="np2_nt2_0" departPos="33.63" departSpeed="0.00" departDelay="0.54" arrival="327.00" arrivalLane="nt15_np10_0" arrivalPos="75.00" arrivalSpeed="9.12" duration="261.00" routeLength="917.45" waitingTime="100.00" waitingCount="12" stopTime="0.00" timeLoss="183.68" rerouteNo="0" devices="tripinfo_f_0_2.8" vType="type1" speedFactor="0.99" vaporized=""/>
    <tripinfo id="f_0_2.9" depart="74.00" departLane="np2_nt2_0" departPos="42.26" departSpeed="0.00" departDelay="0.36" arrival="331.00" arrivalLane="nt15_np10_0" arrivalPos="75.00" arrivalSpeed="7.79" duration="257.00" routeLength="908.82" waitingTime="86.00" waitingCount="9" stopTime="0.00" timeLoss="171.43" rerouteNo="0" devices="tripinfo_f_0_2.9" vType="type1" speedFactor="0.89" vaporized=""/>
    <tripinfo id="f_0_3.10" depart="82.00" departLane="np3_nt3_0" departPos="9.16" departSpeed="0.00" departDelay="0.18" arrival="338.00" arrivalLane="nt14_np11_0" arrivalPos="75.00" arrivalSpeed="9.96" duration="256.00" routeLength="941.93" waitingTime="106.00" waitingCount="6" stopTime="0.00" timeLoss="169.51" rerouteNo="0" devices="tripinfo_f_0_3.10" vType="type1" speedFactor="0.91" vaporized=""/>
    <tripinfo id="f_0_3.11" depart="90.00" departLane="np3_nt3_0" departPos="7.77" departSpeed="0.00" departDelay="0.00" arrival="340.00" arrivalLane="nt14_np11_0" arrivalPos="75.00" arrivalSpeed="10.53" duration="250.00" routeLength="943.32" waitingTime="113.00" waitingCount="8" stopTime="0.00" timeLoss="176.12" rerouteNo="0" devices="tripinfo_f_0_3.11" vType="type1" speedFactor="1.07" vaporized=""/>
    <tripinfo id="f_0_0.8" depart="110.00" departLane="np13_nt13_0" departPos="50.84" departSpeed="0.00" departDelay="0.91" arrival="343.00" arrivalLane="nt4_np5_0" arrivalPos="75.00" arrivalSpeed="22.93" duration="233.00" routeLength="1297.05" waitingTime="86.00" waitingCount="9" stopTime="0.00" timeLoss="154.10" rerouteNo="0" devices="tripinfo_f_0_0.8" vType="type1" speedFactor="1.15" vaporized=""/>
    <tripinfo id="f_0_0.9" depart="123.00" departLane="np13_nt13_0" departPos="16.67" departSpeed="0.00" departDelay="0.28" arrival="359.00" arrivalLane="nt4_np5_0" arrivalPos="75.00" arrivalSpeed="19.74" duration="236.00" routeLength="1331.22" waitingTime="82.00" waitingCount="8" stopTime="0.00" timeLoss="151.46" rerouteNo="0" devices="tripinfo_f_0_0.9" vType="type1" speedFactor="1.10" vaporized=""/>
    <tripinfo id="f_0_0.10" depart="137.00" departLane="np13_nt13_0" departPos="0.59" departSpeed="0.00" departDelay="0.64" arrival="361.00" arrivalLane="nt4_np5_0" arrivalPos="75.00" arrivalSpeed="16.45" duration="224.00" routeLength="1347.30" waitingTime="81.00" waitingCount="6" stopTime="0.00" timeLoss="120.66" rerouteNo="0" devices="tripinfo_f_0_0.10" vType="type1" speedFactor="0.90" vaporized=""/>
    <tripinfo id="f_0_2.10" depart="82.00" departLane="np2_nt2_0" departPos="32.41" departSpeed="0.00" departDelay="0.18" arrival="362.00" arrivalLane="nt15_np10_0" arrivalPos="75.00" arrivalSpeed="9.23" duration="280.00" routeLength="918.67" waitingTime="122.00" waitingCount="11" stopTime="0.00" timeLoss="202.00" rerouteNo="0" devices="tripinfo_f_0_2.10" vType="type1" speedFactor="0.99" vaporized=""/>
    <tripinfo id="f_0_3.12" depart="99.00" departLane="np3_nt3_0" departPos="5.12" departSpeed="0.00" departDelay="0.82" arrival="367.00" arrivalLane="nt14_np11_0" arrivalPos="75.00" arrivalSpeed="9.61" duration="268.00" routeLength="945.97" waitingTime="145.00" waitingCount="7" stopTime="0.00" timeLoss="187.34" rerouteNo="0" devices="tripinfo_f_0_3.12" vType="type1" speedFactor="0.98" vaporized=""/>
    <tripinfo id="f_0_2.11" depart="90.00" departLane="np2_nt2_0" departPos="42.26" departSpeed="0.00" departDelay="0.00" arrival="368.00" arrivalLane="nt15_np10_0" arrivalPos="75.00" arrivalSpeed="7.80" duration="278.00" routeLength="908.82" waitingTime="109.00" waitingCount="10" stopTime="0.00" timeLoss="178.89" rerouteNo="0" devices="tripinfo_f_0_2.11" vType="type1" speedFactor="0.77" vaporized=""/>
    <tripinfo id="f_0_3.13" depart="107.00" departLane="np3_nt3_0" departPos="0.00" departSpeed="0.00" departDelay="0.63" arrival="369.00" arrivalLane="nt14_np11_0" arrivalPos="75.00" arrivalSpeed="12.64" duration="262.00" routeLength="951.09" waitingTime="143.00" waitingCount="9" stopTime="0.00" timeLoss="193.65" rerouteNo="0" devices="tripinfo_f_0_3.13" vType="type1" speedFactor="1.17" vaporized=""/>
    <tripinfo id="f_0_2.12" depart="99.00" departLane="np2_nt2_0" departPos="16.85" departSpeed="0.00" departDelay="0.82" arrival="387.00" arrivalLane="nt15_np10_0" arrivalPos="75.00" arrivalSpeed="11.11" duration="288.00" routeLength="934.23" waitingTime="123.00" waitingCount="11" stopTime="0.00" timeLoss="212.73" rerouteNo="0" devices="tripinfo_f_0_2.12" vType="type1" speedFactor="1.05" vaporized=""/>
    <tripinfo id="f_0_2.13" depart="107.00" departLane="np2_nt2_0" departPos="16.65" departSpeed="0.00" departDelay="0.63" arrival="396.00" arrivalLane="nt15_np10_0" arrivalPos="75.00" arrivalSpeed="11.99" duration="289.00" routeLength="934.43" waitingTime="125.00" waitingCount="13" stopTime="0.00" timeLoss="219.41" rerouteNo="0" devices="tripinfo_f_0_2.13" vType="type1" speedFactor="1.13" vaporized=""/>
    <tripinfo id="f_0_0.11" depart="150.00" departLane="np13_nt13_0" departPos="0.60" departSpeed="0.00" departDelay="0.00" arrival="398.00" arrivalLane="nt4_np5_0" arrivalPos="75.00" arrivalSpeed="18.17" duration="248.00" routeLength="1347.29" waitingTime="94.00" waitingCount="8" stopTime="0.00" timeLoss="146.83" rerouteNo="0" devices="tripinfo_f_0_0.11" vType="type1" speedFactor="0.92" vaporized=""/>
    <tripinfo id="f_0_0.12" depart="164.00" departLane="np13_nt13_0" departPos="2.29" departSpeed="0.00" departDelay="0.37" arrival="400.00" arrivalLane="nt4_np5_0" arrivalPos="75.00" arrivalSpeed="22.68" duration="236.00" routeLength="1345.60" waitingTime="109.00" waitingCount="7" stopTime="0.00" timeLoss="154.64" rerouteNo="0" devices="tripinfo_f_0_0.12" vType="type1" speedFactor="1.14" vaporized=""/>
    <tripinfo id="f_0_0.13" depart="178.00" departLane="np13_nt13_0" departPos="11.87" departSpeed="0.00" departDelay="0.73" arrival="402.00" arrivalLane="nt4_np5_0" arrivalPos="75.00" arrivalSpeed="17.84" duration="224.00" routeLength="1336.02" waitingTime="92.00" waitingCount="6" stopTime="0.00" timeLoss="130.98" rerouteNo="0" devices="tripinfo_f_0_0.13" vType="type1" speedFactor="1.01" vaporized=""/>
    <tripinfo id="f_0_3.14" depart="123.00" departLane="np3_nt3_0" departPos="0.00" departSpeed="0.00" departDelay="8.45" arrival="403.00" arrivalLane="nt14_np11_0" arrivalPos="75.00" arrivalSpeed="8.38" duration="280.00" routeLength="951.09" waitingTime="148.00" waitingCount="8" stopTime="0.00" timeLoss="192.78" rerouteNo="0" devices="tripinfo_f_0_3.14" vType="type1" speedFactor="0.92" vaporized=""/>
    <tripinfo id="f_0_1.5" depart="69.00" departLane="np16_nt1_0" departPos="44.07" departSpeed="0.00" departDelay="0.82" arrival="409.00" arrivalLane="nt16_np8_0" arrivalPos="75.00" arrivalSpeed="19.56" duration="340.00" routeLength="1303.81" waitingTime="148.00" waitingCount="14" stopTime="0.00" timeLoss="251.43" rerouteNo="0" devices="tripinfo_f_0_1.5" vType="type1" speedFactor="1.03" vaporized=""/>
    <tripinfo id="f_0_1.6" depart="82.00" departLane="np16_nt1_0" departPos="59.47" departSpeed="0.00" departDelay="0.18" arrival="410.00" arrivalLane="nt16_np8_0" arrivalPos="75.00" arrivalSpeed="18.47" duration="328.00" routeLength="1288.41" waitingTime="125.00" waitingCount="15" stopTime="0.00" timeLoss="238.49" rerouteNo="0" devices="tripinfo_f_0_1.6" vType="type1" speedFactor="1.01" vaporized=""/>
    <tripinfo id="f_0_0.14" depart="191.00" departLane="np13_nt13_0" departPos="9.90" departSpeed="0.00" departDelay="0.10" arrival="412.00" arrivalLane="nt4_np5_0" arrivalPos="75.00" arrivalSpeed="15.97" duration="221.00" routeLength="1337.99" waitingTime="72.00" waitingCount="6" stopTime="0.00" timeLoss="117.65" rerouteNo="0" devices="tripinfo_f_0_0.14" vType="type1" speedFactor="0.89" vaporized=""/>
    <tripinfo id="f_0_0.15" depart="205.00" departLane="np13_nt13_0" departPos="5.97" departSpeed="0.00" departDelay="0.46" arrival="414.00" arrivalLane="nt4_np5_0" arrivalPos="75.00" arrivalSpeed="19.95" duration="209.00" routeLength="1341.92" waitingTime="70.00" waitingCount="7" stopTime="0.00" timeLoss="120.34" rerouteNo="0" devices="tripinfo_f_0_0.15" vType="type1" speedFactor="1.05" vaporized=""/>
    <tripinfo id="f_0_2.14" depart="115.00" departLane="np2_nt2_0" departPos="50.10" departSpeed="0.00" departDelay="0.45" arrival="418.00" arrivalLane="nt15_np10_0" arrivalPos="75.00" arrivalSpeed="8.16" duration="303.00" routeLength="900.98" waitingTime="128.00" waitingCount="11" stopTime="0.00" timeLoss="220.46" rerouteNo="0" devices="tripinfo_f_0_2.14" vType="type1" speedFactor="0.91" vaporized=""/>
    <tripinfo id="f_0_2.15" depart="123.00" departLane="np2_nt2_0" departPos="51.70" departSpeed="0.00" departDelay="0.27" arrival="420.00" arrivalLane="nt15_np10_0" arrivalPos="75.00" arrivalSpeed="11.53" duration="297.00" routeLength="899.38" waitingTime="127.00" waitingCount="13" stopTime="0.00" timeLoss="234.01" rerouteNo="0" devices="tripinfo_f_0_2.15" vType="type1" speedFactor="1.20" vaporized=""/>
    <tripinfo id="f_0_2.16" depart="131.00" departLane="np2_nt2_0" departPos="34.62" departSpeed="0.00" departDelay="0.09" arrival="425.00" arrivalLane="nt15_np10_0" arrivalPos="75.00" arrivalSpeed="11.88" duration="294.00" routeLength="916.46" waitingTime="119.00" waitingCount="11" stopTime="0.00" timeLoss="230.12" rerouteNo="0" devices="tripinfo_f_0_2.16" vType="type1" speedFactor="1.20" vaporized=""/>
    <tripinfo id="f_0_3.15" depart="157.00" departLane="np3_nt3_0" departPos="0.00" departSpeed="0.00" departDelay="34.27" arrival="428.00" arrivalLane="nt14_np11_0" arrivalPos="75.00" arrivalSpeed="8.62" duration="271.00" routeLength="951.09" waitingTime="139.00" waitingCount="8" stopTime="0.00" timeLoss="182.70" rerouteNo="0" devices="tripinfo_f_0_3.15" vType="type1" speedFactor="0.90" vaporized=""/>
    <tripinfo id="f_0_0.16" depart="219.00" departLane="np13_nt13_0" departPos="3.08" departSpeed="0.00" departDelay="0.82" arrival="429.00" arrivalLane="nt4_np5_0" arrivalPos="75.00" arrivalSpeed="18.31" duration="210.00" routeLength="1344.81" waitingTime="58.00" waitingCount="8" stopTime="0.00" timeLoss="112.86" rerouteNo="0" devices="tripinfo_f_0_0.16" vType="type1" speedFactor="0.96" vaporized=""/>
    <tripinfo id="f_0_1.7" depart="96.00" departLane="np16_nt1_0" departPos="66.17" departSpeed="0.00" departDelay="0.55" arrival="441.00" arrivalLane="nt16_np8_0" arrivalPos="75.00" arrivalSpeed="17.76" duration="345.00" routeLength="1281.71" waitingTime="130.00" waitingCount="14" stopTime="0.00" timeLoss="250.39" rerouteNo="0" devices="tripinfo_f_0_1.7" vType="type1" speedFactor="0.96" vaporized=""/>
    <tripinfo id="f_0_0.17" depart="232.00" departLane="np13_nt13_0" departPos="43.91" departSpeed="0.00" departDelay="0.19" arrival="443.00" arrivalLane="nt4_np5_0" arrivalPos="75.00" arrivalSpeed="20.70" duration="211.00" routeLength="1303.98" waitingTime="68.00" waitingCount="10" stopTime="0.00" timeLoss="125.46" rerouteNo="0" devices="tripinfo_f_0_0.17" vType="type1" speedFactor="1.06" vaporized=""/>
    <tripinfo id="f_0_1.8" depart="110.00" departLane="np16_nt1_0" departPos="42.76" departSpeed="0.00" departDelay="0.91" arrival="446.00" arrivalLane="nt16_np8_0" arrivalPos="75.00" arrivalSpeed="20.35" duration="336.00" routeLength="1305.12" waitingTime="106.00" waitingCount="14" stopTime="0.00" timeLoss="247.62" rerouteNo="0" devices="tripinfo_f_0_1.8" vType="type1" speedFactor="1.03" vaporized=""/>
    <tripinfo id="f_0_0.18" depart="246.00" departLane="np13_nt13_0" departPos="23.29" departSpeed="0.00" departDelay="0.55" arrival="447.00" arrivalLane="nt4_np5_0" arrivalPos="75.00" arrivalSpeed="12.93" duration="201.00" routeLength="1324.60" waitingTime="28.00" waitingCount="6" stopTime="0.00" timeLoss="78.88" rerouteNo="0" devices="tripinfo_f_0_0.18" vType="type1" speedFactor="0.76" vaporized=""/>
    <tripinfo id="f_0_2.17" depart="140.00" departLane="np2_nt2_0" departPos="17.68" departSpeed="0.00" departDelay="0.91" arrival="448.00" arrivalLane="nt15_np10_0" arrivalPos="75.00" arrivalSpeed="10.88" duration="308.00" routeLength="933.40" waitingTime="86.00" waitingCount="13" stopTime="0.00" timeLoss="231.22" rerouteNo="0" devices="tripinfo_f_0_2.17" vType="type1" speedFactor="1.02" vaporized=""/>
    <tripinfo id="f_0_0.19" depart="260.00" departLane="np13_nt13_0" departPos="47.65" departSpeed="0.00" departDelay="0.92" arrival="448.00" arrivalLane="nt4_np5_0" arrivalPos="75.00" arrivalSpeed="16.42" duration="188.00" routeLength="1300.24" waitingTime="38.00" waitingCount="5" stopTime="0.00" timeLoss="97.38" rerouteNo="0" devices="tripinfo_f_0_0.19" vType="type1" speedFactor="1.01" vaporized=""/>
    <tripinfo id="f_0_0.20" depart="273.00" departLane="np13_nt13_0" departPos="43.90" departSpeed="0.00" departDelay="0.28" arrival="450.00" arrivalLane="nt4_np5_0" arrivalPos="75.00" arrivalSpeed="18.48" duration="177.00" routeLength="1303.99" waitingTime="38.00" waitingCount="6" stopTime="0.00" timeLoss="89.68" rerouteNo="0" devices="tripinfo_f_0_0.20" vType="type1" speedFactor="1.05" vaporized=""/>
    <tripinfo id="f_0_0.21" depart="287.00" departLane="np13_nt13_0" departPos="65.50" departSpeed="0.00" departDelay="0.64" arrival="455.00" arrivalLane="nt4_np5_0" arrivalPos="75.00" arrivalSpeed="20.75" duration="168.00" routeLength="1282.39" waitingTime="34.00" waitingCount="6" stopTime="0.00" timeLoss="82.06" rerouteNo="0" devices="tripinfo_f_0_0.21" vType="type1" speedFactor="1.06" vaporized=""/>
    <tripinfo id="f_0_3.16" depart="160.00" departLane="np3_nt3_0" departPos="0.00" departSpeed="0.00" departDelay="29.09" arrival="457.00" arrivalLane="nt14_np11_0" arrivalPos="75.00" arrivalSpeed="10.61" duration="297.00" routeLength="951.09" waitingTime="157.00" waitingCount="10" stopTime="0.00" timeLoss="217.48" rerouteNo="0" devices="tripinfo_f_0_3.16" vType="type1" speedFactor="1.01" vaporized=""/>
    <tripinfo id="f_0_2.18" depart="148.00" departLane="np2_nt2_0" departPos="52.76" departSpeed="0.00" departDelay="0.72" arrival="457.00" arrivalLane="nt15_np10_0" arrivalPos="75.00" arrivalSpeed="9.23" duration="309.00" routeLength="898.32" waitingTime="89.00" waitingCount="13" stopTime="0.00" timeLoss="235.77" rerouteNo="0" devices="tripinfo_f_0_2.18" vType="type1" speedFactor="1.03" vaporized=""/>
    <tripinfo id="f_0_2.19" depart="156.00" departLane="np2_nt2_0" departPos="33.42" departSpeed="0.00" departDelay="0.54" arrival="459.00" arrivalLane="nt15_np10_0" arrivalPos="75.00" arrivalSpeed="10.18" duration="303.00" routeLength="917.66" waitingTime="111.00" waitingCount="13" stopTime="0.00" timeLoss="230.52" rerouteNo="0" devices="tripinfo_f_0_2.19" vType="type1" speedFactor="1.07" vaporized=""/>
    <tripinfo id="f_0_3.17" depart="162.00" departLane="np3_nt3_0" departPos="0.00" departSpeed="0.00" departDelay="22.91" arrival="460.00" arrivalLane="nt14_np11_0" arrivalPos="75.00" arrivalSpeed="8.04" duration="298.00" routeLength="951.09" waitingTime="147.00" waitingCount="10" stopTime="0.00" timeLoss="212.44" rerouteNo="0" devices="tripinfo_f_0_3.17" vType="type1" speedFactor="0.94" vaporized=""/>
    <tripinfo id="f_0_1.13" depart="178.00" departLane="np16_nt1_0" departPos="22.67" departSpeed="0.00" departDelay="0.73" arrival="463.00" arrivalLane="nt16_np8_0" arrivalPos="75.00" arrivalSpeed="19.48" duration="285.00" routeLength="1325.21" waitingTime="81.00" waitingCount="16" stopTime="0.00" timeLoss="193.93" rerouteNo="0" devices="tripinfo_f_0_1.13" vType="type1" speedFactor="1.01" vaporized=""/>
    <tripinfo id="f_0_2.20" depart="164.00" departLane="np2_nt2_0" departPos="57.92" departSpeed="0.00" departDelay="0.36" arrival="471.00" arrivalLane="nt15_np10_0" arrivalPos="75.00" arrivalSpeed="10.91" duration="307.00" routeLength="893.16" waitingTime="109.00" waitingCount="14" stopTime="0.00" timeLoss="237.82" rerouteNo="0" devices="tripinfo_f_0_2.20" vType="type1" speedFactor="1.08" vaporized=""/>