<?xml version="1.0" encoding="UTF-8"?>

<!-- generated on 2023-08-30 12:53:28 by Eclipse SUMO libsumo Version 1.18.0
<configuration xmlns:xsi="http://www.w3.org/2001/XMLSchema-instance" xsi:noNamespaceSchemaLocation="http://sumo.dlr.de/xsd/libsumoConfiguration.xsd">

    <input>
        <net-file value="/home/stefan/RESCO/./environments/arterial4x4/arterial4x4.net.xml"/>
        <route-files value="/home/stefan/RESCO/./environments/arterial4x4/arterial4x4_98.rou.xml"/>
    </input>

    <output>
        <tripinfo-output value="/home/stefan/results/ITRPO-tr0-arterial4x4-0-drq_norm-wait_norm/tripinfo_98.xml"/>
        <tripinfo-output.write-unfinished value="true"/>
    </output>

    <processing>
        <time-to-teleport value="-1"/>
    </processing>

    <report>
        <no-warnings value="True"/>
        <no-step-log value="True"/>
    </report>

    <random_number>
        <random value="true"/>
    </random_number>

</configuration>
-->

<tripinfos xmlns:xsi="http://www.w3.org/2001/XMLSchema-instance" xsi:noNamespaceSchemaLocation="http://sumo.dlr.de/xsd/tripinfo_file.xsd">
    <tripinfo id="f_0_3.0" depart="0.00" departLane="np3_nt3_0" departPos="56.06" departSpeed="0.00" departDelay="0.00" arrival="113.00" arrivalLane="nt14_np11_0" arrivalPos="75.00" arrivalSpeed="9.64" duration="113.00" routeLength="895.03" waitingTime="9.00" waitingCount="4" stopTime="0.00" timeLoss="32.90" rerouteNo="0" devices="tripinfo_f_0_3.0" vType="type1" speedFactor="0.94" vaporized=""/>
    <tripinfo id="f_0_2.0" depart="0.00" departLane="np2_nt2_0" departPos="45.76" departSpeed="0.00" departDelay="0.00" arrival="127.00" arrivalLane="nt15_np10_0" arrivalPos="75.00" arrivalSpeed="8.78" duration="127.00" routeLength="905.32" waitingTime="26.00" waitingCount="3" stopTime="0.00" timeLoss="49.31" rerouteNo="0" devices="tripinfo_f_0_2.0" vType="type1" speedFactor="0.97" vaporized=""/>
    <tripinfo id="f_0_3.1" depart="9.00" departLane="np3_nt3_0" departPos="10.86" departSpeed="0.00" departDelay="0.82" arrival="136.00" arrivalLane="nt14_np11_0" arrivalPos="75.00" arrivalSpeed="9.82" duration="127.00" routeLength="940.23" waitingTime="28.00" waitingCount="3" stopTime="0.00" timeLoss="51.44" rerouteNo="0" devices="tripinfo_f_0_3.1" vType="type1" speedFactor="1.05" vaporized=""/>
    <tripinfo id="f_0_3.2" depart="17.00" departLane="np3_nt3_0" departPos="42.38" departSpeed="0.00" departDelay="0.64" arrival="172.00" arrivalLane="nt14_np11_0" arrivalPos="75.00" arrivalSpeed="9.43" duration="155.00" routeLength="908.71" waitingTime="49.00" waitingCount="5" stopTime="0.00" timeLoss="80.76" rerouteNo="0" devices="tripinfo_f_0_3.2" vType="type1" speedFactor="1.03" vaporized=""/>
    <tripinfo id="f_0_3.3" depart="25.00" departLane="np3_nt3_0" departPos="13.96" departSpeed="0.00" departDelay="0.45" arrival="174.00" arrivalLane="nt14_np11_0" arrivalPos="75.00" arrivalSpeed="9.33" duration="149.00" routeLength="937.13" waitingTime="38.00" waitingCount="4" stopTime="0.00" timeLoss="69.64" rerouteNo="0" devices="tripinfo_f_0_3.3" vType="type1" speedFactor="0.99" vaporized=""/>
    <tripinfo id="f_0_0.0" depart="0.00" departLane="np13_nt13_0" departPos="20.38" departSpeed="0.00" departDelay="0.00" arrival="183.00" arrivalLane="nt4_np5_0" arrivalPos="75.00" arrivalSpeed="17.08" duration="183.00" routeLength="1327.51" waitingTime="57.00" waitingCount="4" stopTime="0.00" timeLoss="87.39" rerouteNo="0" devices="tripinfo_f_0_0.0" vType="type1" speedFactor="0.96" vaporized=""/>
    <tripinfo id="f_0_3.4" depart="33.00" departLane="np3_nt3_0" departPos="41.86" departSpeed="0.00" departDelay="0.27" arrival="186.00" arrivalLane="nt14_np11_0" arrivalPos="75.00" arrivalSpeed="10.92" duration="153.00" routeLength="909.23" waitingTime="49.00" waitingCount="4" stopTime="0.00" timeLoss="81.57" rerouteNo="0" devices="tripinfo_f_0_3.4" vType="type1" speedFactor="1.07" vaporized=""/>
    <tripinfo id="f_0_2.1" depart="9.00" departLane="np2_nt2_0" departPos="9.42" departSpeed="0.00" departDelay="0.82" arrival="213.00" arrivalLane="nt15_np10_0" arrivalPos="75.00" arrivalSpeed="8.17" duration="204.00" routeLength="941.66" waitingTime="90.00" waitingCount="4" stopTime="0.00" timeLoss="115.01" rerouteNo="0" devices="tripinfo_f_0_2.1" vType="type1" speedFactor="0.89" vaporized=""/>
    <tripinfo id="f_0_2.2" depart="17.00" departLane="np2_nt2_0" departPos="25.29" departSpeed="0.00" departDelay="0.64" arrival="215.00" arrivalLane="nt15_np10_0" arrivalPos="75.00" arrivalSpeed="10.15" duration="198.00" routeLength="925.79" waitingTime="87.00" waitingCount="3" stopTime="0.00" timeLoss="120.33" rerouteNo="0" devices="tripinfo_f_0_2.2" vType="type1" speedFactor="1.01" vaporized=""/>
    <tripinfo id="f_0_3.5" depart="41.00" departLane="np3_nt3_0" departPos="2.81" departSpeed="0.00" departDelay="0.09" arrival="225.00" arrivalLane="nt14_np11_0" arrivalPos="75.00" arrivalSpeed="8.38" duration="184.00" routeLength="948.28" waitingTime="57.00" waitingCount="4" stopTime="0.00" timeLoss="88.05" rerouteNo="0" devices="tripinfo_f_0_3.5" vType="type1" speedFactor="0.83" vaporized=""/>
    <tripinfo id="f_0_3.6" depart="50.00" departLane="np3_nt3_0" departPos="27.13" departSpeed="0.00" departDelay="0.91" arrival="236.00" arrivalLane="nt14_np11_0" arrivalPos="75.00" arrivalSpeed="10.87" duration="186.00" routeLength="923.96" waitingTime="59.00" waitingCount="5" stopTime="0.00" timeLoss="117.90" rerouteNo="0" devices="tripinfo_f_0_3.6" vType="type1" speedFactor="1.14" vaporized=""/>
    <tripinfo id="f_0_3.7" depart="58.00" departLane="np3_nt3_0" departPos="4.64" departSpeed="0.00" departDelay="0.73" arrival="239.00" arrivalLane="nt14_np11_0" arrivalPos="75.00" arrivalSpeed="10.60" duration="181.00" routeLength="946.45" waitingTime="53.00" waitingCount="5" stopTime="0.00" timeLoss="105.81" rerouteNo="0" devices="tripinfo_f_0_3.7" vType="type1" speedFactor="1.06" vaporized=""/>
    <tripinfo id="f_0_3.8" depart="66.00" departLane="np3_nt3_0" departPos="7.68" departSpeed="0.00" departDelay="0.54" arrival="242.00" arrivalLane="nt14_np11_0" arrivalPos="75.00" arrivalSpeed="10.07" duration="176.00" routeLength="943.41" waitingTime="42.00" waitingCount="5" stopTime="0.00" timeLoss="95.44" rerouteNo="0" devices="tripinfo_f_0_3.8" vType="type1" speedFactor="0.98" vaporized=""/>
    <tripinfo id="f_0_3.9" depart="74.00" departLane="np3_nt3_0" departPos="13.90" departSpeed="0.00" departDelay="0.36" arrival="248.00" arrivalLane="nt14_np11_0" arrivalPos="75.00" arrivalSpeed="9.74" duration="174.00" routeLength="937.19" waitingTime="61.00" waitingCount="5" stopTime="0.00" timeLoss="94.93" rerouteNo="0" devices="tripinfo_f_0_3.9" vType="type1" speedFactor="0.99" vaporized=""/>
    <tripinfo id="f_0_3.10" depart="82.00" departLane="np3_nt3_0" departPos="21.79" departSpeed="0.00" departDelay="0.18" arrival="253.00" arrivalLane="nt14_np11_0" arrivalPos="75.00" arrivalSpeed="9.21" duration="171.00" routeLength="929.30" waitingTime="52.00" waitingCount="5" stopTime="0.00" timeLoss="86.38" rerouteNo="0" devices="tripinfo_f_0_3.10" vType="type1" speedFactor="0.92" vaporized=""/>
    <tripinfo id="f_0_3.11" depart="90.00" departLane="np3_nt3_0" departPos="25.46" departSpeed="0.00" departDelay="0.00" arrival="255.00" arrivalLane="nt14_np11_0" arrivalPos="75.00" arrivalSpeed="9.61" duration="165.00" routeLength="925.63" waitingTime="56.00" waitingCount="5" stopTime="0.00" timeLoss="93.57" rerouteNo="0" devices="tripinfo_f_0_3.11" vType="type1" speedFactor="1.08" vaporized=""/>
    <tripinfo id="f_0_2.3" depart="25.00" departLane="np2_nt2_0" departPos="4.55" departSpeed="0.00" departDelay="0.45" arrival="268.00" arrivalLane="nt15_np10_0" arrivalPos="75.00" arrivalSpeed="9.35" duration="243.00" routeLength="946.53" waitingTime="120.00" waitingCount="7" stopTime="0.00" timeLoss="159.39" rerouteNo="0" devices="tripinfo_f_0_2.3" vType="type1" speedFactor="0.96" vaporized=""/>
    <tripinfo id="f_0_2.4" depart="33.00" departLane="np2_nt2_0" departPos="43.54" departSpeed="0.00" departDelay="0.27" arrival="270.00" arrivalLane="nt15_np10_0" arrivalPos="75.00" arrivalSpeed="11.13" duration="237.00" routeLength="907.54" waitingTime="120.00" waitingCount="7" stopTime="0.00" timeLoss="170.37" rerouteNo="0" devices="tripinfo_f_0_2.4" vType="type1" speedFactor="1.14" vaporized=""/>
    <tripinfo id="f_0_3.12" depart="99.00" departLane="np3_nt3_0" departPos="19.73" departSpeed="0.00" departDelay="0.82" arrival="276.00" arrivalLane="nt14_np11_0" arrivalPos="75.00" arrivalSpeed="10.83" duration="177.00" routeLength="931.36" waitingTime="66.00" waitingCount="6" stopTime="0.00" timeLoss="108.21" rerouteNo="0" devices="tripinfo_f_0_3.12" vType="type1" speedFactor="1.13" vaporized=""/>
    <tripinfo id="f_0_2.5" depart="41.00" departLane="np2_nt2_0" departPos="39.73" departSpeed="0.00" departDelay="0.09" arrival="282.00" arrivalLane="nt15_np10_0" arrivalPos="75.00" arrivalSpeed="9.69" duration="241.00" routeLength="911.35" waitingTime="123.00" waitingCount="7" stopTime="0.00" timeLoss="169.04" rerouteNo="0" devices="tripinfo_f_0_2.5" vType="type1" speedFactor="1.07" vaporized=""/>
    <tripinfo id="f_0_0.1" depart="14.00" departLane="np13_nt13_0" departPos="9.96" departSpeed="0.00" departDelay="0.36" arrival="288.00" arrivalLane="nt4_np5_0" arrivalPos="75.00" arrivalSpeed="21.72" duration="274.00" routeLength="1337.93" waitingTime="143.00" waitingCount="7" stopTime="0.00" timeLoss="192.03" rerouteNo="0" devices="tripinfo_f_0_0.1" vType="type1" speedFactor="1.13" vaporized=""/>
    <tripinfo id="f_0_0.2" depart="28.00" departLane="np13_nt13_0" departPos="40.30" departSpeed="0.00" departDelay="0.73" arrival="290.00" arrivalLane="nt4_np5_0" arrivalPos="75.00" arrivalSpeed="19.16" duration="262.00" routeLength="1307.59" waitingTime="132.00" waitingCount="7" stopTime="0.00" timeLoss="173.65" rerouteNo="0" devices="tripinfo_f_0_0.2" vType="type1" speedFactor="1.03" vaporized=""/>
    <tripinfo id="f_0_0.3" depart="41.00" departLane="np13_nt13_0" departPos="34.20" departSpeed="0.00" departDelay="0.09" arrival="292.00" arrivalLane="nt4_np5_0" arrivalPos="75.00" arrivalSpeed="20.04" duration="251.00" routeLength="1313.69" waitingTime="120.00" waitingCount="7" stopTime="0.00" timeLoss="166.29" rerouteNo="0" devices="tripinfo_f_0_0.3" vType="type1" speedFactor="1.08" vaporized=""/>
    <tripinfo id="f_0_3.13" depart="107.00" departLane="np3_nt3_0" departPos="25.44" departSpeed="0.00" departDelay="0.63" arrival="303.00" arrivalLane="nt14_np11_0" arrivalPos="75.00" arrivalSpeed="9.10" duration="196.00" routeLength="925.65" waitingTime="71.00" waitingCount="8" stopTime="0.00" timeLoss="112.60" rerouteNo="0" devices="tripinfo_f_0_3.13" vType="type1" speedFactor="0.92" vaporized=""/>
    <tripinfo id="f_0_3.14" depart="115.00" departLane="np3_nt3_0" departPos="10.92" departSpeed="0.00" departDelay="0.45" arrival="305.00" arrivalLane="nt14_np11_0" arrivalPos="75.00" arrivalSpeed="10.37" duration="190.00" routeLength="940.17" waitingTime="61.00" waitingCount="9" stopTime="0.00" timeLoss="110.29" rerouteNo="0" devices="tripinfo_f_0_3.14" vType="type1" speedFactor="0.99" vaporized=""/>
    <tripinfo id="f_0_2.6" depart="50.00" departLane="np2_nt2_0" departPos="63.48" departSpeed="0.00" departDelay="0.91" arrival="312.00" arrivalLane="nt15_np10_0" arrivalPos="75.00" arrivalSpeed="11.12" duration="262.00" routeLength="887.60" waitingTime="137.00" waitingCount="8" stopTime="0.00" timeLoss="188.44" rerouteNo="0" devices="tripinfo_f_0_2.6" vType="type1" speedFactor="1.02" vaporized=""/>
    <tripinfo id="f_0_1.0" depart="0.00" departLane="np16_nt1_0" departPos="59.43" departSpeed="0.00" departDelay="0.00" arrival="322.00" arrivalLane="nt16_np8_0" arrivalPos="75.00" arrivalSpeed="19.80" duration="322.00" routeLength="1288.45" waitingTime="167.00" waitingCount="9" stopTime="0.00" timeLoss="234.65" rerouteNo="0" devices="tripinfo_f_0_1.0" vType="type1" speedFactor="1.04" vaporized=""/>
    <tripinfo id="f_0_1.1" depart="14.00" departLane="np16_nt1_0" departPos="17.49" departSpeed="0.00" departDelay="0.36" arrival="325.00" arrivalLane="nt16_np8_0" arrivalPos="75.00" arrivalSpeed="18.16" duration="311.00" routeLength="1330.39" waitingTime="144.00" waitingCount="9" stopTime="0.00" timeLoss="218.60" rerouteNo="0" devices="tripinfo_f_0_1.1" vType="type1" speedFactor="1.00" vaporized=""/>
    <tripinfo id="f_0_2.7" depart="58.00" departLane="np2_nt2_0" departPos="27.79" departSpeed="0.00" departDelay="0.73" arrival="329.00" arrivalLane="nt15_np10_0" arrivalPos="75.00" arrivalSpeed="9.27" duration="271.00" routeLength="923.29" waitingTime="99.00" waitingCount="12" stopTime="0.00" timeLoss="197.41" rerouteNo="0" devices="tripinfo_f_0_2.7" vType="type1" speedFactor="1.05" vaporized=""/>
    <tripinfo id="f_0_1.2" depart="28.00" departLane="np16_nt1_0" departPos="14.84" departSpeed="0.00" departDelay="0.73" arrival="344.00" arrivalLane="nt16_np8_0" arrivalPos="75.00" arrivalSpeed="17.55" duration="316.00" routeLength="1333.04" waitingTime="134.00" waitingCount="11" stopTime="0.00" timeLoss="219.82" rerouteNo="0" devices="tripinfo_f_0_1.2" vType="type1" speedFactor="0.97" vaporized=""/>
    <tripinfo id="f_0_0.4" depart="55.00" departLane="np13_nt13_0" departPos="27.38" departSpeed="0.00" departDelay="0.46" arrival="344.00" arrivalLane="nt4_np5_0" arrivalPos="75.00" arrivalSpeed="14.05" duration="289.00" routeLength="1320.51" waitingTime="130.00" waitingCount="6" stopTime="0.00" timeLoss="177.76" rerouteNo="0" devices="tripinfo_f_0_0.4" vType="type1" speedFactor="0.83" vaporized=""/>
    <tripinfo id="f_0_1.3" depart="41.00" departLane="np16_nt1_0" departPos="52.70" departSpeed="0.00" departDelay="0.09" arrival="353.00" arrivalLane="nt16_np8_0" arrivalPos="75.00" arrivalSpeed="18.05" duration="312.00" routeLength="1295.18" waitingTime="118.00" waitingCount="13" stopTime="0.00" timeLoss="213.46" rerouteNo="0" devices="tripinfo_f_0_1.3" vType="type1" speedFactor="0.92" vaporized=""/>
    <tripinfo id="f_0_0.5" depart="69.00" departLane="np13_nt13_0" departPos="53.38" departSpeed="0.00" departDelay="0.82" arrival="353.00" arrivalLane="nt4_np5_0" arrivalPos="75.00" arrivalSpeed="17.32" duration="284.00" routeLength="1294.51" waitingTime="132.00" waitingCount="6" stopTime="0.00" timeLoss="186.93" rerouteNo="0" devices="tripinfo_f_0_0.5" vType="type1" speedFactor="0.93" vaporized=""/>
    <tripinfo id="f_0_0.6" depart="82.00" departLane="np13_nt13_0" departPos="59.75" departSpeed="0.00" departDelay="0.18" arrival="355.00" arrivalLane="nt4_np5_0" arrivalPos="75.00" arrivalSpeed="17.29" duration="273.00" routeLength="1288.14" waitingTime="124.00" waitingCount="5" stopTime="0.00" timeLoss="179.23" rerouteNo="0" devices="tripinfo_f_0_0.6" vType="type1" speedFactor="0.96" vaporized=""/>
    <tripinfo id="f_0_3.15" depart="123.00" departLane="np3_nt3_0" departPos="0.00" departSpeed="0.00" departDelay="0.27" arrival="355.00" arrivalLane="nt14_np11_0" arrivalPos="75.00" arrivalSpeed="11.26" duration="232.00" routeLength="951.09" waitingTime="115.00" waitingCount="7" stopTime="0.00" timeLoss="157.45" rerouteNo="0" devices="tripinfo_f_0_3.15" vType="type1" speedFactor="1.07" vaporized=""/>
    <tripinfo id="f_0_0.7" depart="96.00" departLane="np13_nt13_0" departPos="24.08" departSpeed="0.00" departDelay="0.55" arrival="359.00" arrivalLane="nt4_np5_0" arrivalPos="75.00" arrivalSpeed="21.41" duration="263.00" routeLength="1323.81" waitingTime="125.00" waitingCount="7" stopTime="0.00" timeLoss="178.87" rerouteNo="0" devices="tripinfo_f_0_0.7" vType="type1" speedFactor="1.10" vaporized=""/>
    <tripinfo id="f_0_2.8" depart="66.00" departLane="np2_nt2_0" departPos="35.68" departSpeed="0.00" departDelay="0.54" arrival="363.00" arrivalLane="nt15_np10_0" arrivalPos="75.00" arrivalSpeed="8.60" duration="297.00" routeLength="915.40" waitingTime="121.00" waitingCount="11" stopTime="0.00" timeLoss="211.90" rerouteNo="0" devices="tripinfo_f_0_2.8" vType="type1" speedFactor="0.90" vaporized=""/>
    <tripinfo id="f_0_0.8" depart="110.00" departLane="np13_nt13_0" departPos="22.32" departSpeed="0.00" departDelay="0.91" arrival="363.00" arrivalLane="nt4_np5_0" arrivalPos="75.00" arrivalSpeed="18.26" duration="253.00" routeLength="1325.57" waitingTime="114.00" waitingCount="6" stopTime="0.00" timeLoss="155.90" rerouteNo="0" devices="tripinfo_f_0_0.8" vType="type1" speedFactor="0.96" vaporized=""/>
    <tripinfo id="f_0_2.9" depart="74.00" departLane="np2_nt2_0" departPos="24.46" departSpeed="0.00" departDelay="0.36" arrival="378.00" arrivalLane="nt15_np10_0" arrivalPos="75.00" arrivalSpeed="7.82" duration="304.00" routeLength="926.62" waitingTime="107.00" waitingCount="13" stopTime="0.00" timeLoss="220.32" rerouteNo="0" devices="tripinfo_f_0_2.9" vType="type1" speedFactor="0.93" vaporized=""/>
    <tripinfo id="f_0_1.4" depart="55.00" departLane="np16_nt1_0" departPos="54.15" departSpeed="0.00" departDelay="0.46" arrival="379.00" arrivalLane="nt16_np8_0" arrivalPos="75.00" arrivalSpeed="17.18" duration="324.00" routeLength="1293.73" waitingTime="116.00" waitingCount="12" stopTime="0.00" timeLoss="222.28" rerouteNo="0" devices="tripinfo_f_0_1.4" vType="type1" speedFactor="0.90" vaporized=""/>
    <tripinfo id="f_0_2.10" depart="82.00" departLane="np2_nt2_0" departPos="8.00" departSpeed="0.00" departDelay="0.18" arrival="379.00" arrivalLane="nt15_np10_0" arrivalPos="75.00" arrivalSpeed="11.62" duration="297.00" routeLength="943.08" waitingTime="96.00" waitingCount="14" stopTime="0.00" timeLoss="227.71" rerouteNo="0" devices="tripinfo_f_0_2.10" vType="type1" speedFactor="1.14" vaporized=""/>
    <tripinfo id="f_0_0.9" depart="123.00" departLane="np13_nt13_0" departPos="45.53" departSpeed="0.00" departDelay="0.28" arrival="379.00" arrivalLane="nt4_np5_0" arrivalPos="75.00" arrivalSpeed="20.75" duration="256.00" routeLength="1302.36" waitingTime="120.00" waitingCount="9" stopTime="0.00" timeLoss="172.12" rerouteNo="0" devices="tripinfo_f_0_0.9" vType="type1" speedFactor="1.08" vaporized=""/>
    <tripinfo id="f_0_1.5" depart="69.00" departLane="np16_nt1_0" departPos="41.56" departSpeed="0.00" departDelay="0.82" arrival="380.00" arrivalLane="nt16_np8_0" arrivalPos="75.00" arrivalSpeed="19.81" duration="311.00" routeLength="1306.32" waitingTime="109.00" waitingCount="13" stopTime="0.00" timeLoss="224.56" rerouteNo="0" devices="tripinfo_f_0_1.5" vType="type1" speedFactor="1.05" vaporized=""/>
    <tripinfo id="f_0_2.11" depart="90.00" departLane="np2_nt2_0" departPos="34.23" departSpeed="0.00" departDelay="0.00" arrival="381.00" arrivalLane="nt15_np10_0" arrivalPos="75.00" arrivalSpeed="10.43" duration="291.00" routeLength="916.85" waitingTime="86.00" waitingCount="13" stopTime="0.00" timeLoss="220.63" rerouteNo="0" devices="tripinfo_f_0_2.11" vType="type1" speedFactor="1.08" vaporized=""/>
    <tripinfo id="f_0_2.12" depart="99.00" departLane="np2_nt2_0" departPos="33.20" departSpeed="0.00" departDelay="0.82" arrival="383.00" arrivalLane="nt15_np10_0" arrivalPos="75.00" arrivalSpeed="10.26" duration="284.00" routeLength="917.88" waitingTime="82.00" waitingCount="12" stopTime="0.00" timeLoss="215.16" rerouteNo="0" devices="tripinfo_f_0_2.12" vType="type1" speedFactor="1.11" vaporized=""/>
    <tripinfo id="f_0_3.16" depart="131.00" departLane="np3_nt3_0" departPos="5.63" departSpeed="0.00" departDelay="0.09" arrival="399.00" arrivalLane="nt14_np11_0" arrivalPos="75.00" arrivalSpeed="8.86" duration="268.00" routeLength="945.46" waitingTime="120.00" waitingCount="9" stopTime="0.00" timeLoss="173.75" rerouteNo="0" devices="tripinfo_f_0_3.16" vType="type1" speedFactor="0.84" vaporized=""/>
    <tripinfo id="f_0_2.13" depart="107.00" departLane="np2_nt2_0" departPos="27.46" departSpeed="0.00" departDelay="0.63" arrival="407.00" arrivalLane="nt15_np10_0" arrivalPos="75.00" arrivalSpeed="10.13" duration="300.00" routeLength="923.62" waitingTime="88.00" waitingCount="13" stopTime="0.00" timeLoss="227.06" rerouteNo="0" devices="tripinfo_f_0_2.13" vType="type1" speedFactor="1.07" vaporized=""/>
    <tripinfo id="f_0_1.6" depart="82.00" departLane="np16_nt1_0" departPos="23.75" departSpeed="0.00" departDelay="0.18" arrival="408.00" arrivalLane="nt16_np8_0" arrivalPos="75.00" arrivalSpeed="21.64" duration="326.00" routeLength="1324.13" waitingTime="97.00" waitingCount="14" stopTime="0.00" timeLoss="247.14" rerouteNo="0" devices="tripinfo_f_0_1.6" vType="type1" speedFactor="1.17" vaporized=""/>
    <tripinfo id="f_0_2.14" depart="115.00" departLane="np2_nt2_0" departPos="45.78" departSpeed="0.00" departDelay="0.45" arrival="413.00" arrivalLane="nt15_np10_0" arrivalPos="75.00" arrivalSpeed="7.47" duration="298.00" routeLength="905.30" waitingTime="95.00" waitingCount="11" stopTime="0.00" timeLoss="202.08" rerouteNo="0" devices="tripinfo_f_0_2.14" vType="type1" speedFactor="0.79" vaporized=""/>
    <tripinfo id="f_0_3.17" depart="140.00" departLane="np3_nt3_0" departPos="0.00" departSpeed="0.00" departDelay="0.91" arrival="413.00" arrivalLane="nt14_np11_0" arrivalPos="75.00" arrivalSpeed="9.77" duration="273.00" routeLength="951.09" waitingTime="119.00" waitingCount="7" stopTime="0.00" timeLoss="191.20" rerouteNo="0" devices="tripinfo_f_0_3.17" vType="type1" speedFactor="0.98" vaporized=""/>
    <tripinfo id="f_0_3.18" depart="148.00" departLane="np3_nt3_0" departPos="1.59" departSpeed="0.00" departDelay="0.72" arrival="415.00" arrivalLane="nt14_np11_0" arrivalPos="75.00" arrivalSpeed="12.25" duration="267.00" routeLength="949.50" waitingTime="144.00" waitingCount="6" stopTime="0.00" timeLoss="200.35" rerouteNo="0" devices="tripinfo_f_0_3.18" vType="type1" speedFactor="1.20" vaporized=""/>
    <tripinfo id="f_0_2.15" depart="123.00" departLane="np2_nt2_0" departPos="3.80" departSpeed="0.00" departDelay="0.27" arrival="416.00" arrivalLane="nt15_np10_0" arrivalPos="75.00" arrivalSpeed="10.09" duration="293.00" routeLength="947.28" waitingTime="90.00" waitingCount="10" stopTime="0.00" timeLoss="223.35" rerouteNo="0" devices="tripinfo_f_0_2.15" vType="type1" speedFactor="1.13" vaporized=""/>
    <tripinfo id="f_0_2.16" depart="131.00" departLane="np2_nt2_0" departPos="45.72" departSpeed="0.00" departDelay="0.09" arrival="421.00" arrivalLane="nt15_np10_0" arrivalPos="75.00" arrivalSpeed="8.82" duration="290.00" routeLength="905.36" waitingTime="96.00" waitingCount="8" stopTime="0.00" timeLoss="201.54" rerouteNo="0" devices="tripinfo_f_0_2.16" vType="type1" speedFactor="0.86" vaporized=""/>
    <tripinfo id="f_0_0.10" depart="137.00" departLane="np13_nt13_0" departPos="64.97" departSpeed="0.00" departDelay="0.64" arrival="433.00" arrivalLane="nt4_np5_0" arrivalPos="75.00" arrivalSpeed="18.53" duration="296.00" routeLength="1282.92" waitingTime="144.00" waitingCount="10" stopTime="0.00" timeLoss="206.91" rerouteNo="0" devices="tripinfo_f_0_0.10" vType="type1" speedFactor="1.01" vaporized=""/>
    <tripinfo id="f_0_3.19" depart="156.00" departLane="np3_nt3_0" departPos="0.00" departSpeed="0.00" departDelay="0.54" arrival="449.00" arrivalLane="nt14_np11_0" arrivalPos="75.00" arrivalSpeed="8.47" duration="293.00" routeLength="951.09" waitingTime="159.00" waitingCount="6" stopTime="0.00" timeLoss="205.25" rerouteNo="0" devices="tripinfo_f_0_3.19" vType="type1" speedFactor="0.92" vaporized=""/>
    <tripinfo id="f_0_3.20" depart="164.00" departLane="np3_nt3_0" departPos="12.57" departSpeed="0.00" departDelay="0.36" arrival="450.00" arrivalLane="nt14_np11_0" arrivalPos="75.00" arrivalSpeed="10.04" duration="286.00" routeLength="938.52" waitingTime="163.00" waitingCount="6" stopTime="0.00" timeLoss="208.95" rerouteNo="0" devices="tripinfo_f_0_3.20" vType="type1" speedFactor="1.02" vaporized=""/>
    <tripinfo id="f_0_2.17" depart="140.00" departLane="np2_nt2_0" departPos="45.39" departSpeed="0.00" departDelay="0.91" arrival="457.00" arrivalLane="nt15_np10_0" arrivalPos="75.00" arrivalSpeed="9.81" duration="317.00" routeLength="905.69" waitingTime="115.00" waitingCount="10" stopTime="0.00" timeLoss="245.47" rerouteNo="0" devices="tripinfo_f_0_2.17" vType="type1" speedFactor="1.07" vaporized=""/>
    <tripinfo id="f_0_0.11" depart="150.00" departLane="np13_nt13_0" departPos="32.98" departSpeed="0.00" departDelay="0.00" arrival="459.00" arrivalLane="nt4_np5_0" arrivalPos="75.00" arrivalSpeed="15.24" duration="309.00" routeLength="1314.91" waitingTime="131.00" waitingCount="9" stopTime="0.00" timeLoss="200.24" rerouteNo="0" devices="tripinfo_f_0_0.11" vType="type1" speedFactor="0.84" vaporized=""/>
    <tripinfo id="f_0_0.12" depart="164.00" departLane="np13_nt13_0" departPos="54.64" departSpeed="0.00" departDelay="0.37" arrival="460.00" arrivalLane="nt4_np5_0" arrivalPos="75.00" arrivalSpeed="18.40" duration="296.00" routeLength="1293.25" waitingTime="126.00" waitingCount="10" stopTime="0.00" timeLoss="210.52" rerouteNo="0" devices="tripinfo_f_0_0.12" vType="type1" speedFactor="1.05" vaporized=""/>
    <tripinfo id="f_0_0.13" depart="178.00" departLane="np13_nt13_0" departPos="49.69" departSpeed="0.00" departDelay="0.73" arrival="462.00" arrivalLane="nt4_np5_0" arrivalPos="75.00" arrivalSpeed="17.80" duration="284.00" routeLength="1298.20" waitingTime="124.00" waitingCount="8" stopTime="0.00" timeLoss="188.33" rerouteNo="0" devices="tripinfo_f_0_0.13" vType="type1" speedFactor="0.95" vaporized=""/>
    <tripinfo id="f_0_0.14" depart="191.00" departLane="np13_nt13_0" departPos="41.73" departSpeed="0.00" departDelay="0.10" arrival="463.00" arrivalLane="nt4_np5_0" arrivalPos="75.00" arrivalSpeed="20.32" duration="272.00" routeLength="1306.16" waitingTime="112.00" waitingCount="6" stopTime="0.00" timeLoss="189.07" rerouteNo="0" devices="tripinfo_f_0_0.14" vType="type1" speedFactor="1.10" vaporized=""/>
    <tripinfo id="f_0_1.7" depart="96.00" departLane="np16_nt1_0" departPos="27.20" departSpeed="0.00" departDelay="0.55" arrival="464.00" arrivalLane="nt16_np8_0" arrivalPos="75.00" arrivalSpeed="16.51" duration="368.00" routeLength="1320.68" waitingTime="131.00" waitingCount="13" stopTime="0.00" timeLoss="268.31" rerouteNo="0" devices="tripinfo_f_0_1.7" vType="type1" speedFactor="0.93" vaporized=""/>
    <tripinfo id="f_0_2.18" depart="148.00" departLane="np2_nt2_0" departPos="14.09" departSpeed="0.00" departDelay="0.72" arrival="471.00" arrivalLane="nt15_np10_0" arrivalPos="75.00" arrivalSpeed="12.22" duration="323.00" routeLength="936.99" waitingTime="126.00" waitingCount="12" stopTime="0.00" timeLoss="254.89" rerouteNo="0" devices="tripinfo_f_0_2.18" vType="type1" speedFactor="1.17" vaporized=""/>
    <tripinfo id="f_0_0.15" depart="205.00" departLane="np13_nt13_0" departPos="40.28" departSpeed="0.00" departDelay="0.46" arrival="474.00" arrivalLane="nt4_np5_0" arrivalPos="75.00" arrivalSpeed="18.19" duration="269.00" routeLength="1307.61" waitingTime="111.00" waitingCount="7" stopTime="0.00" timeLoss="180.11" rerouteNo="0" devices="tripinfo_f_0_0.15" vType="type1" speedFactor="1.03" vaporized=""/>
    <tripinfo id="f_0_2.19" depart="156.00" departLane="np2_nt2_0" departPos="49.44" departSpeed="0.00" departDelay="0.54" arrival="475.00" arrivalLane="nt15_np10_0" arrivalPos="75.00" arrivalSpeed="9.25" duration="319.00" routeLength="901.64" waitingTime="111.00" waitingCount="10" stopTime="0.00" timeLoss="232.50" rerouteNo="0" devices="tripinfo_f_0_2.19" vType="type1" speedFactor="0.88" vaporized=""/>
    <tripinfo id="f_0_1.8" depart="110.00" departLane="np16_nt1_0" departPos="61.79" departSpeed="0.00" departDelay="0.91" arrival="478.00" arrivalLane="nt16_np8_0" arrivalPos="75.00" arrivalSpeed="21.33" duration="368.00" routeLength="1286.09" waitingTime="132.00" waitingCount="13" stopTime="0.00" timeLoss="283.74" rerouteNo="0" devices="tripinfo_f_0_1.8" vType="type1" speedFactor="1.07" vaporized=""/>
    <tripinfo id="f_0_1.9" depart="123.00" departLane="np16_nt1_0" departPos="21.87" departSpeed="0.00" departDelay="0.28" arrival="480.00" arrivalLane="nt16_np8_0" arrivalPos="75.00" arrivalSpeed="18.61" duration="357.00" routeLength="1326.01" waitingTime="135.00" waitingCount="11" stopTime="0.00" timeLoss="265.03" rerouteNo="0" devices="tripinfo_f_0_1.9" vType="type1" speedFactor="1.00" vaporized=""/>
    <tripinfo id="f_0_2.20" depart="164.00" departLane="np2_nt2_0" departPos="60.91" departSpeed="0.00" departDelay="0.36" arrival="483.00" arrivalLane="nt15_np10_0" arrivalPos="75.00" arrivalSpeed="7.59" duration="319.00" routeLength="890.17" waitingTime="128.00" waitingCount="12" stopTime="0.00" timeLoss="225.86" rerouteNo="0" devices="tripinfo_f_0_2.20" vType="type1" speedFactor="0.80" vaporized=""/>
    <tripinfo id="f_0_0.16" depart="219.00" departLane="np13_nt13_0" departPos="58.54" departSpeed="0.00" departDelay="0.82" arrival="483.00" arrivalLane="nt4_np5_0" arrivalPos="75.00" arrivalSpeed="20.98" duration="264.00" routeLength="1289.35" waitingTime="104.00" waitingCount="10" stopTime="0.00" timeLoss="185.32" rerouteNo="0" devices="tripinfo_f_0_0.16" vType="type1" speedFactor="1.15" vaporized=""/>
    <tripinfo id="f_0_1.10" depart="137.00" departLane="np16_nt1_0" departPos="9.33" departSpeed="0.00" departDelay="0.64" arrival="485.00" arrivalLane="nt16_np8_0" arrivalPos="75.00" arrivalSpeed="16.40" duration="348.00" routeLength="1338.55" waitingTime="139.00" waitingCount="11" stopTime="0.00" timeLoss="249.61" rerouteNo="0" devices="tripinfo_f_0_1.10" vType="type1" speedFactor="0.94" vaporized=""/>
    <tripinfo id="f_0_0.17" depart="232.00" departLane="np13_nt13_0" departPos="35.00" departSpeed="0.00" departDelay="0.19" arrival="485.00" arrivalLane="nt4_np5_0" arrivalPos="75.00" arrivalSpeed="16.98" duration="253.00" routeLength="1312.89" waitingTime="93.00" waitingCount="11" stopTime="0.00" timeLoss="150.88" rerouteNo="0" devices="tripinfo_f_0_0.17" vType="type1" speedFactor="0.89" vaporized=""/>