<?xml version="1.0" encoding="UTF-8"?>

<!-- generated on 2023-08-30 12:45:01 by Eclipse SUMO libsumo Version 1.18.0
<configuration xmlns:xsi="http://www.w3.org/2001/XMLSchema-instance" xsi:noNamespaceSchemaLocation="http://sumo.dlr.de/xsd/libsumoConfiguration.xsd">

    <input>
        <net-file value="/home/stefan/RESCO/./environments/arterial4x4/arterial4x4.net.xml"/>
        <route-files value="/home/stefan/RESCO/./environments/arterial4x4/arterial4x4_72.rou.xml"/>
    </input>

    <output>
        <tripinfo-output value="/home/stefan/results/ITRPO-tr0-arterial4x4-0-drq_norm-wait_norm/tripinfo_72.xml"/>
        <tripinfo-output.write-unfinished value="true"/>
    </output>

    <processing>
        <time-to-teleport value="-1"/>
    </processing>

    <report>
        <no-warnings value="True"/>
        <no-step-log value="True"/>
    </report>

    <random_number>
        <random value="true"/>
    </random_number>

</configuration>
-->

<tripinfos xmlns:xsi="http://www.w3.org/2001/XMLSchema-instance" xsi:noNamespaceSchemaLocation="http://sumo.dlr.de/xsd/tripinfo_file.xsd">
    <tripinfo id="f_0_0.0" depart="0.00" departLane="np13_nt13_0" departPos="63.27" departSpeed="0.00" departDelay="0.00" arrival="118.00" arrivalLane="nt4_np5_0" arrivalPos="75.00" arrivalSpeed="21.12" duration="118.00" routeLength="1284.62" waitingTime="4.00" waitingCount="2" stopTime="0.00" timeLoss="33.23" rerouteNo="0" devices="tripinfo_f_0_0.0" vType="type1" speedFactor="1.07" vaporized=""/>
    <tripinfo id="f_0_2.0" depart="0.00" departLane="np2_nt2_0" departPos="12.89" departSpeed="0.00" departDelay="0.00" arrival="137.00" arrivalLane="nt15_np10_0" arrivalPos="75.00" arrivalSpeed="9.38" duration="137.00" routeLength="938.19" waitingTime="32.00" waitingCount="4" stopTime="0.00" timeLoss="55.80" rerouteNo="0" devices="tripinfo_f_0_2.0" vType="type1" speedFactor="0.97" vaporized=""/>
    <tripinfo id="f_0_3.0" depart="0.00" departLane="np3_nt3_0" departPos="23.43" departSpeed="0.00" departDelay="0.00" arrival="137.00" arrivalLane="nt14_np11_0" arrivalPos="75.00" arrivalSpeed="9.93" duration="137.00" routeLength="927.66" waitingTime="34.00" waitingCount="3" stopTime="0.00" timeLoss="56.53" rerouteNo="0" devices="tripinfo_f_0_3.0" vType="type1" speedFactor="0.97" vaporized=""/>
    <tripinfo id="f_0_2.1" depart="9.00" departLane="np2_nt2_0" departPos="6.06" departSpeed="0.00" departDelay="0.82" arrival="139.00" arrivalLane="nt15_np10_0" arrivalPos="75.00" arrivalSpeed="11.75" duration="130.00" routeLength="945.02" waitingTime="29.00" waitingCount="4" stopTime="0.00" timeLoss="62.40" rerouteNo="0" devices="tripinfo_f_0_2.1" vType="type1" speedFactor="1.18" vaporized=""/>
    <tripinfo id="f_0_3.1" depart="9.00" departLane="np3_nt3_0" departPos="49.58" departSpeed="0.00" departDelay="0.82" arrival="139.00" arrivalLane="nt14_np11_0" arrivalPos="75.00" arrivalSpeed="10.92" duration="130.00" routeLength="901.51" waitingTime="30.00" waitingCount="4" stopTime="0.00" timeLoss="55.21" rerouteNo="0" devices="tripinfo_f_0_3.1" vType="type1" speedFactor="1.01" vaporized=""/>
    <tripinfo id="f_0_2.2" depart="17.00" departLane="np2_nt2_0" departPos="38.57" departSpeed="0.00" departDelay="0.64" arrival="173.00" arrivalLane="nt15_np10_0" arrivalPos="75.00" arrivalSpeed="9.79" duration="156.00" routeLength="912.51" waitingTime="41.00" waitingCount="5" stopTime="0.00" timeLoss="72.66" rerouteNo="0" devices="tripinfo_f_0_2.2" vType="type1" speedFactor="0.92" vaporized=""/>
    <tripinfo id="f_0_0.1" depart="14.00" departLane="np13_nt13_0" departPos="1.93" departSpeed="0.00" departDelay="0.36" arrival="182.00" arrivalLane="nt4_np5_0" arrivalPos="75.00" arrivalSpeed="16.06" duration="168.00" routeLength="1345.96" waitingTime="33.00" waitingCount="5" stopTime="0.00" timeLoss="62.20" rerouteNo="0" devices="tripinfo_f_0_0.1" vType="type1" speedFactor="0.88" vaporized=""/>
    <tripinfo id="f_0_1.0" depart="0.00" departLane="np16_nt1_0" departPos="27.57" departSpeed="0.00" departDelay="0.00" arrival="189.00" arrivalLane="nt16_np8_0" arrivalPos="75.00" arrivalSpeed="17.62" duration="189.00" routeLength="1320.31" waitingTime="43.00" waitingCount="5" stopTime="0.00" timeLoss="84.49" rerouteNo="0" devices="tripinfo_f_0_1.0" vType="type1" speedFactor="0.88" vaporized=""/>
    <tripinfo id="f_0_2.3" depart="25.00" departLane="np2_nt2_0" departPos="33.99" departSpeed="0.00" departDelay="0.45" arrival="194.00" arrivalLane="nt15_np10_0" arrivalPos="75.00" arrivalSpeed="9.39" duration="169.00" routeLength="917.09" waitingTime="57.00" waitingCount="4" stopTime="0.00" timeLoss="82.26" rerouteNo="0" devices="tripinfo_f_0_2.3" vType="type1" speedFactor="0.89" vaporized=""/>
    <tripinfo id="f_0_3.2" depart="17.00" departLane="np3_nt3_0" departPos="37.76" departSpeed="0.00" departDelay="0.64" arrival="197.00" arrivalLane="nt14_np11_0" arrivalPos="75.00" arrivalSpeed="9.09" duration="180.00" routeLength="913.33" waitingTime="72.00" waitingCount="5" stopTime="0.00" timeLoss="104.75" rerouteNo="0" devices="tripinfo_f_0_3.2" vType="type1" speedFactor="1.02" vaporized=""/>
    <tripinfo id="f_0_0.2" depart="28.00" departLane="np13_nt13_0" departPos="20.14" departSpeed="0.00" departDelay="0.73" arrival="202.00" arrivalLane="nt4_np5_0" arrivalPos="75.00" arrivalSpeed="23.99" duration="174.00" routeLength="1327.75" waitingTime="42.00" waitingCount="5" stopTime="0.00" timeLoss="98.23" rerouteNo="0" devices="tripinfo_f_0_0.2" vType="type1" speedFactor="1.22" vaporized=""/>
    <tripinfo id="f_0_1.1" depart="14.00" departLane="np16_nt1_0" departPos="25.39" departSpeed="0.00" departDelay="0.36" arrival="204.00" arrivalLane="nt16_np8_0" arrivalPos="75.00" arrivalSpeed="16.94" duration="190.00" routeLength="1322.49" waitingTime="43.00" waitingCount="4" stopTime="0.00" timeLoss="87.93" rerouteNo="0" devices="tripinfo_f_0_1.1" vType="type1" speedFactor="0.91" vaporized=""/>
    <tripinfo id="f_0_0.3" depart="41.00" departLane="np13_nt13_0" departPos="29.69" departSpeed="0.00" departDelay="0.09" arrival="206.00" arrivalLane="nt4_np5_0" arrivalPos="75.00" arrivalSpeed="20.22" duration="165.00" routeLength="1318.20" waitingTime="34.00" waitingCount="4" stopTime="0.00" timeLoss="75.13" rerouteNo="0" devices="tripinfo_f_0_0.3" vType="type1" speedFactor="1.01" vaporized=""/>
    <tripinfo id="f_0_1.2" depart="28.00" departLane="np16_nt1_0" departPos="45.40" departSpeed="0.00" departDelay="0.73" arrival="209.00" arrivalLane="nt16_np8_0" arrivalPos="75.00" arrivalSpeed="15.02" duration="181.00" routeLength="1302.48" waitingTime="39.00" waitingCount="7" stopTime="0.00" timeLoss="75.27" rerouteNo="0" devices="tripinfo_f_0_1.2" vType="type1" speedFactor="0.86" vaporized=""/>
    <tripinfo id="f_0_1.3" depart="41.00" departLane="np16_nt1_0" departPos="42.97" departSpeed="0.00" departDelay="0.09" arrival="213.00" arrivalLane="nt16_np8_0" arrivalPos="75.00" arrivalSpeed="17.62" duration="172.00" routeLength="1304.91" waitingTime="29.00" waitingCount="7" stopTime="0.00" timeLoss="78.87" rerouteNo="0" devices="tripinfo_f_0_1.3" vType="type1" speedFactor="0.98" vaporized=""/>
    <tripinfo id="f_0_3.3" depart="25.00" departLane="np3_nt3_0" departPos="10.35" departSpeed="0.00" departDelay="0.45" arrival="217.00" arrivalLane="nt14_np11_0" arrivalPos="75.00" arrivalSpeed="11.01" duration="192.00" routeLength="940.74" waitingTime="85.00" waitingCount="5" stopTime="0.00" timeLoss="114.72" rerouteNo="0" devices="tripinfo_f_0_3.3" vType="type1" speedFactor="1.02" vaporized=""/>
    <tripinfo id="f_0_3.4" depart="33.00" departLane="np3_nt3_0" departPos="4.70" departSpeed="0.00" departDelay="0.27" arrival="219.00" arrivalLane="nt14_np11_0" arrivalPos="75.00" arrivalSpeed="11.76" duration="186.00" routeLength="946.39" waitingTime="76.00" waitingCount="8" stopTime="0.00" timeLoss="112.73" rerouteNo="0" devices="tripinfo_f_0_3.4" vType="type1" speedFactor="1.09" vaporized=""/>
    <tripinfo id="f_0_3.5" depart="41.00" departLane="np3_nt3_0" departPos="31.03" departSpeed="0.00" departDelay="0.09" arrival="225.00" arrivalLane="nt14_np11_0" arrivalPos="75.00" arrivalSpeed="11.67" duration="184.00" routeLength="920.06" waitingTime="79.00" waitingCount="8" stopTime="0.00" timeLoss="121.66" rerouteNo="0" devices="tripinfo_f_0_3.5" vType="type1" speedFactor="1.24" vaporized=""/>
    <tripinfo id="f_0_3.6" depart="50.00" departLane="np3_nt3_0" departPos="16.74" departSpeed="0.00" departDelay="0.91" arrival="229.00" arrivalLane="nt14_np11_0" arrivalPos="75.00" arrivalSpeed="10.08" duration="179.00" routeLength="934.35" waitingTime="64.00" waitingCount="7" stopTime="0.00" timeLoss="99.17" rerouteNo="0" devices="tripinfo_f_0_3.6" vType="type1" speedFactor="0.98" vaporized=""/>
    <tripinfo id="f_0_3.7" depart="58.00" departLane="np3_nt3_0" departPos="28.43" departSpeed="0.00" departDelay="0.73" arrival="231.00" arrivalLane="nt14_np11_0" arrivalPos="75.00" arrivalSpeed="11.67" duration="173.00" routeLength="922.66" waitingTime="71.00" waitingCount="5" stopTime="0.00" timeLoss="106.35" rerouteNo="0" devices="tripinfo_f_0_3.7" vType="type1" speedFactor="1.16" vaporized=""/>
    <tripinfo id="f_0_0.4" depart="55.00" departLane="np13_nt13_0" departPos="60.17" departSpeed="0.00" departDelay="0.46" arrival="246.00" arrivalLane="nt4_np5_0" arrivalPos="75.00" arrivalSpeed="18.81" duration="191.00" routeLength="1287.72" waitingTime="66.00" waitingCount="4" stopTime="0.00" timeLoss="95.02" rerouteNo="0" devices="tripinfo_f_0_0.4" vType="type1" speedFactor="0.95" vaporized=""/>
    <tripinfo id="f_0_2.4" depart="33.00" departLane="np2_nt2_0" departPos="0.94" departSpeed="0.00" departDelay="0.27" arrival="263.00" arrivalLane="nt15_np10_0" arrivalPos="75.00" arrivalSpeed="10.03" duration="230.00" routeLength="950.14" waitingTime="113.00" waitingCount="6" stopTime="0.00" timeLoss="146.31" rerouteNo="0" devices="tripinfo_f_0_2.4" vType="type1" speedFactor="0.96" vaporized=""/>
    <tripinfo id="f_0_2.5" depart="41.00" departLane="np2_nt2_0" departPos="4.31" departSpeed="0.00" departDelay="0.09" arrival="265.00" arrivalLane="nt15_np10_0" arrivalPos="75.00" arrivalSpeed="9.19" duration="224.00" routeLength="946.77" waitingTime="97.00" waitingCount="8" stopTime="0.00" timeLoss="141.19" rerouteNo="0" devices="tripinfo_f_0_2.5" vType="type1" speedFactor="0.97" vaporized=""/>
    <tripinfo id="f_0_2.6" depart="50.00" departLane="np2_nt2_0" departPos="33.84" departSpeed="0.00" departDelay="0.91" arrival="268.00" arrivalLane="nt15_np10_0" arrivalPos="75.00" arrivalSpeed="9.23" duration="218.00" routeLength="917.24" waitingTime="80.00" waitingCount="7" stopTime="0.00" timeLoss="127.21" rerouteNo="0" devices="tripinfo_f_0_2.6" vType="type1" speedFactor="0.85" vaporized=""/>
    <tripinfo id="f_0_1.4" depart="55.00" departLane="np16_nt1_0" departPos="56.72" departSpeed="0.00" departDelay="0.46" arrival="278.00" arrivalLane="nt16_np8_0" arrivalPos="75.00" arrivalSpeed="17.84" duration="223.00" routeLength="1291.16" waitingTime="72.00" waitingCount="6" stopTime="0.00" timeLoss="121.51" rerouteNo="0" devices="tripinfo_f_0_1.4" vType="type1" speedFactor="0.89" vaporized=""/>
    <tripinfo id="f_0_2.7" depart="58.00" departLane="np2_nt2_0" departPos="30.62" departSpeed="0.00" departDelay="0.73" arrival="278.00" arrivalLane="nt15_np10_0" arrivalPos="75.00" arrivalSpeed="9.77" duration="220.00" routeLength="920.46" waitingTime="83.00" waitingCount="8" stopTime="0.00" timeLoss="140.60" rerouteNo="0" devices="tripinfo_f_0_2.7" vType="type1" speedFactor="0.96" vaporized=""/>
    <tripinfo id="f_0_2.8" depart="66.00" departLane="np2_nt2_0" departPos="36.91" departSpeed="0.00" departDelay="0.54" arrival="286.00" arrivalLane="nt15_np10_0" arrivalPos="75.00" arrivalSpeed="11.13" duration="220.00" routeLength="914.17" waitingTime="83.00" waitingCount="10" stopTime="0.00" timeLoss="152.04" rerouteNo="0" devices="tripinfo_f_0_2.8" vType="type1" speedFactor="1.13" vaporized=""/>
    <tripinfo id="f_0_3.8" depart="66.00" departLane="np3_nt3_0" departPos="7.93" departSpeed="0.00" departDelay="0.54" arrival="292.00" arrivalLane="nt14_np11_0" arrivalPos="75.00" arrivalSpeed="9.50" duration="226.00" routeLength="943.16" waitingTime="120.00" waitingCount="6" stopTime="0.00" timeLoss="149.45" rerouteNo="0" devices="tripinfo_f_0_3.8" vType="type1" speedFactor="1.04" vaporized=""/>
    <tripinfo id="f_0_3.9" depart="74.00" departLane="np3_nt3_0" departPos="25.00" departSpeed="0.00" departDelay="0.36" arrival="312.00" arrivalLane="nt14_np11_0" arrivalPos="75.00" arrivalSpeed="11.25" duration="238.00" routeLength="926.09" waitingTime="127.00" waitingCount="7" stopTime="0.00" timeLoss="166.46" rerouteNo="0" devices="tripinfo_f_0_3.9" vType="type1" speedFactor="1.08" vaporized=""/>
    <tripinfo id="f_0_0.5" depart="69.00" departLane="np13_nt13_0" departPos="40.00" departSpeed="0.00" departDelay="0.82" arrival="313.00" arrivalLane="nt4_np5_0" arrivalPos="75.00" arrivalSpeed="19.18" duration="244.00" routeLength="1307.89" waitingTime="118.00" waitingCount="6" stopTime="0.00" timeLoss="158.44" rerouteNo="0" devices="tripinfo_f_0_0.5" vType="type1" speedFactor="1.07" vaporized=""/>
    <tripinfo id="f_0_2.9" depart="74.00" departLane="np2_nt2_0" departPos="16.83" departSpeed="0.00" departDelay="0.36" arrival="324.00" arrivalLane="nt15_np10_0" arrivalPos="75.00" arrivalSpeed="7.80" duration="250.00" routeLength="934.25" waitingTime="102.00" waitingCount="10" stopTime="0.00" timeLoss="161.18" rerouteNo="0" devices="tripinfo_f_0_2.9" vType="type1" speedFactor="0.88" vaporized=""/>
    <tripinfo id="f_0_0.6" depart="82.00" departLane="np13_nt13_0" departPos="5.52" departSpeed="0.00" departDelay="0.18" arrival="338.00" arrivalLane="nt4_np5_0" arrivalPos="75.00" arrivalSpeed="17.91" duration="256.00" routeLength="1342.37" waitingTime="127.00" waitingCount="6" stopTime="0.00" timeLoss="162.35" rerouteNo="0" devices="tripinfo_f_0_0.6" vType="type1" speedFactor="0.99" vaporized=""/>
    <tripinfo id="f_0_2.10" depart="82.00" departLane="np2_nt2_0" departPos="8.36" departSpeed="0.00" departDelay="0.18" arrival="339.00" arrivalLane="nt15_np10_0" arrivalPos="75.00" arrivalSpeed="8.21" duration="257.00" routeLength="942.72" waitingTime="96.00" waitingCount="12" stopTime="0.00" timeLoss="170.39" rerouteNo="0" devices="tripinfo_f_0_2.10" vType="type1" speedFactor="0.92" vaporized=""/>
    <tripinfo id="f_0_0.7" depart="96.00" departLane="np13_nt13_0" departPos="12.98" departSpeed="0.00" departDelay="0.55" arrival="340.00" arrivalLane="nt4_np5_0" arrivalPos="75.00" arrivalSpeed="16.31" duration="244.00" routeLength="1334.91" waitingTime="103.00" waitingCount="6" stopTime="0.00" timeLoss="140.04" rerouteNo="0" devices="tripinfo_f_0_0.7" vType="type1" speedFactor="0.89" vaporized=""/>
    <tripinfo id="f_0_2.11" depart="90.00" departLane="np2_nt2_0" departPos="9.79" departSpeed="0.00" departDelay="0.00" arrival="341.00" arrivalLane="nt15_np10_0" arrivalPos="75.00" arrivalSpeed="9.30" duration="251.00" routeLength="941.29" waitingTime="90.00" waitingCount="12" stopTime="0.00" timeLoss="168.14" rerouteNo="0" devices="tripinfo_f_0_2.11" vType="type1" speedFactor="0.96" vaporized=""/>
    <tripinfo id="f_0_2.12" depart="99.00" departLane="np2_nt2_0" departPos="46.39" departSpeed="0.00" departDelay="0.82" arrival="352.00" arrivalLane="nt15_np10_0" arrivalPos="75.00" arrivalSpeed="10.21" duration="253.00" routeLength="904.69" waitingTime="95.00" waitingCount="12" stopTime="0.00" timeLoss="179.88" rerouteNo="0" devices="tripinfo_f_0_2.12" vType="type1" speedFactor="1.04" vaporized=""/>
    <tripinfo id="f_0_0.8" depart="110.00" departLane="np13_nt13_0" departPos="41.90" departSpeed="0.00" departDelay="0.91" arrival="353.00" arrivalLane="nt4_np5_0" arrivalPos="75.00" arrivalSpeed="18.22" duration="243.00" routeLength="1305.99" waitingTime="105.00" waitingCount="8" stopTime="0.00" timeLoss="152.41" rerouteNo="0" devices="tripinfo_f_0_0.8" vType="type1" speedFactor="1.00" vaporized=""/>
    <tripinfo id="f_0_2.13" depart="107.00" departLane="np2_nt2_0" departPos="33.78" departSpeed="0.00" departDelay="0.63" arrival="354.00" arrivalLane="nt15_np10_0" arrivalPos="75.00" arrivalSpeed="10.94" duration="247.00" routeLength="917.30" waitingTime="79.00" waitingCount="12" stopTime="0.00" timeLoss="172.50" rerouteNo="0" devices="tripinfo_f_0_2.13" vType="type1" speedFactor="1.04" vaporized=""/>
    <tripinfo id="f_0_0.9" depart="123.00" departLane="np13_nt13_0" departPos="51.90" departSpeed="0.00" departDelay="0.28" arrival="354.00" arrivalLane="nt4_np5_0" arrivalPos="75.00" arrivalSpeed="24.94" duration="231.00" routeLength="1295.99" waitingTime="112.00" waitingCount="6" stopTime="0.00" timeLoss="159.37" rerouteNo="0" devices="tripinfo_f_0_0.9" vType="type1" speedFactor="1.26" vaporized=""/>
    <tripinfo id="f_0_1.5" depart="69.00" departLane="np16_nt1_0" departPos="37.30" departSpeed="0.00" departDelay="0.82" arrival="358.00" arrivalLane="nt16_np8_0" arrivalPos="75.00" arrivalSpeed="21.09" duration="289.00" routeLength="1310.58" waitingTime="123.00" waitingCount="11" stopTime="0.00" timeLoss="203.74" rerouteNo="0" devices="tripinfo_f_0_1.5" vType="type1" speedFactor="1.08" vaporized=""/>
    <tripinfo id="f_0_3.10" depart="82.00" departLane="np3_nt3_0" departPos="5.52" departSpeed="0.00" departDelay="0.18" arrival="363.00" arrivalLane="nt14_np11_0" arrivalPos="75.00" arrivalSpeed="9.63" duration="281.00" routeLength="945.57" waitingTime="156.00" waitingCount="7" stopTime="0.00" timeLoss="192.53" rerouteNo="0" devices="tripinfo_f_0_3.10" vType="type1" speedFactor="0.90" vaporized=""/>
    <tripinfo id="f_0_1.12" depart="164.00" departLane="np16_nt1_0" departPos="67.60" departSpeed="0.00" departDelay="0.37" arrival="374.00" arrivalLane="nt16_np8_0" arrivalPos="75.00" arrivalSpeed="17.86" duration="210.00" routeLength="1280.28" waitingTime="56.00" waitingCount="12" stopTime="0.00" timeLoss="116.05" rerouteNo="0" devices="tripinfo_f_0_1.12" vType="type1" speedFactor="0.96" vaporized=""/>
    <tripinfo id="f_0_0.10" depart="137.00" departLane="np13_nt13_0" departPos="23.12" departSpeed="0.00" departDelay="0.64" arrival="382.00" arrivalLane="nt4_np5_0" arrivalPos="75.00" arrivalSpeed="19.86" duration="245.00" routeLength="1324.77" waitingTime="116.00" waitingCount="4" stopTime="0.00" timeLoss="152.17" rerouteNo="0" devices="tripinfo_f_0_0.10" vType="type1" speedFactor="0.99" vaporized=""/>
    <tripinfo id="f_0_2.14" depart="115.00" departLane="np2_nt2_0" departPos="17.89" departSpeed="0.00" departDelay="0.45" arrival="387.00" arrivalLane="nt15_np10_0" arrivalPos="75.00" arrivalSpeed="10.81" duration="272.00" routeLength="933.19" waitingTime="84.00" waitingCount="14" stopTime="0.00" timeLoss="194.87" rerouteNo="0" devices="tripinfo_f_0_2.14" vType="type1" speedFactor="1.01" vaporized=""/>
    <tripinfo id="f_0_2.15" depart="123.00" departLane="np2_nt2_0" departPos="41.19" departSpeed="0.00" departDelay="0.27" arrival="389.00" arrivalLane="nt15_np10_0" arrivalPos="75.00" arrivalSpeed="9.60" duration="266.00" routeLength="909.89" waitingTime="70.00" waitingCount="14" stopTime="0.00" timeLoss="192.67" rerouteNo="0" devices="tripinfo_f_0_2.15" vType="type1" speedFactor="1.04" vaporized=""/>
    <tripinfo id="f_0_0.11" depart="150.00" departLane="np13_nt13_0" departPos="47.74" departSpeed="0.00" departDelay="0.00" arrival="393.00" arrivalLane="nt4_np5_0" arrivalPos="75.00" arrivalSpeed="20.21" duration="243.00" routeLength="1300.15" waitingTime="121.00" waitingCount="6" stopTime="0.00" timeLoss="161.95" rerouteNo="0" devices="tripinfo_f_0_0.11" vType="type1" speedFactor="1.12" vaporized=""/>
    <tripinfo id="f_0_0.12" depart="164.00" departLane="np13_nt13_0" departPos="53.02" departSpeed="0.00" departDelay="0.37" arrival="395.00" arrivalLane="nt4_np5_0" arrivalPos="75.00" arrivalSpeed="20.02" duration="231.00" routeLength="1294.87" waitingTime="106.00" waitingCount="5" stopTime="0.00" timeLoss="144.45" rerouteNo="0" devices="tripinfo_f_0_0.12" vType="type1" speedFactor="1.05" vaporized=""/>
    <tripinfo id="f_0_0.13" depart="178.00" departLane="np13_nt13_0" departPos="55.84" departSpeed="0.00" departDelay="0.73" arrival="403.00" arrivalLane="nt4_np5_0" arrivalPos="75.00" arrivalSpeed="18.24" duration="225.00" routeLength="1292.05" waitingTime="89.00" waitingCount="6" stopTime="0.00" timeLoss="129.16" rerouteNo="0" devices="tripinfo_f_0_0.13" vType="type1" speedFactor="0.95" vaporized=""/>
    <tripinfo id="f_0_1.6" depart="82.00" departLane="np16_nt1_0" departPos="48.79" departSpeed="0.00" departDelay="0.18" arrival="408.00" arrivalLane="nt16_np8_0" arrivalPos="75.00" arrivalSpeed="19.99" duration="326.00" routeLength="1299.09" waitingTime="103.00" waitingCount="15" stopTime="0.00" timeLoss="235.25" rerouteNo="0" devices="tripinfo_f_0_1.6" vType="type1" speedFactor="1.01" vaporized=""/>
    <tripinfo id="f_0_2.16" depart="131.00" departLane="np2_nt2_0" departPos="13.09" departSpeed="0.00" departDelay="0.09" arrival="410.00" arrivalLane="nt15_np10_0" arrivalPos="75.00" arrivalSpeed="9.21" duration="279.00" routeLength="937.99" waitingTime="84.00" waitingCount="12" stopTime="0.00" timeLoss="195.04" rerouteNo="0" devices="tripinfo_f_0_2.16" vType="type1" speedFactor="0.95" vaporized=""/>
    <tripinfo id="f_0_1.7" depart="96.00" departLane="np16_nt1_0" departPos="0.95" departSpeed="0.00" departDelay="0.55" arrival="411.00" arrivalLane="nt16_np8_0" arrivalPos="75.00" arrivalSpeed="16.12" duration="315.00" routeLength="1346.93" waitingTime="100.00" waitingCount="14" stopTime="0.00" timeLoss="213.16" rerouteNo="0" devices="tripinfo_f_0_1.7" vType="type1" speedFactor="0.92" vaporized=""/>
    <tripinfo id="f_0_3.11" depart="90.00" departLane="np3_nt3_0" departPos="2.37" departSpeed="0.00" departDelay="0.00" arrival="416.00" arrivalLane="nt14_np11_0" arrivalPos="75.00" arrivalSpeed="13.41" duration="326.00" routeLength="948.72" waitingTime="211.00" waitingCount="9" stopTime="0.00" timeLoss="260.75" rerouteNo="0" devices="tripinfo_f_0_3.11" vType="type1" speedFactor="1.23" vaporized=""/>
    <tripinfo id="f_0_1.11" depart="150.00" departLane="np16_nt1_0" departPos="24.97" departSpeed="0.00" departDelay="0.00" arrival="416.00" arrivalLane="nt16_np8_0" arrivalPos="75.00" arrivalSpeed="17.48" duration="266.00" routeLength="1322.91" waitingTime="79.00" waitingCount="11" stopTime="0.00" timeLoss="162.38" rerouteNo="0" devices="tripinfo_f_0_1.11" vType="type1" speedFactor="0.89" vaporized=""/>
    <tripinfo id="f_0_0.14" depart="191.00" departLane="np13_nt13_0" departPos="14.80" departSpeed="0.00" departDelay="0.10" arrival="417.00" arrivalLane="nt4_np5_0" arrivalPos="75.00" arrivalSpeed="17.72" duration="226.00" routeLength="1333.09" waitingTime="82.00" waitingCount="6" stopTime="0.00" timeLoss="123.43" rerouteNo="0" devices="tripinfo_f_0_0.14" vType="type1" speedFactor="0.90" vaporized=""/>
    <tripinfo id="f_0_1.15" depart="205.00" departLane="np16_nt1_0" departPos="30.36" departSpeed="0.00" departDelay="0.46" arrival="422.00" arrivalLane="nt16_np8_0" arrivalPos="75.00" arrivalSpeed="17.12" duration="217.00" routeLength="1317.52" waitingTime="45.00" waitingCount="7" stopTime="0.00" timeLoss="111.34" rerouteNo="0" devices="tripinfo_f_0_1.15" vType="type1" speedFactor="0.87" vaporized=""/>
    <tripinfo id="f_0_1.8" depart="110.00" departLane="np16_nt1_0" departPos="35.00" departSpeed="0.00" departDelay="0.91" arrival="424.00" arrivalLane="nt16_np8_0" arrivalPos="75.00" arrivalSpeed="18.69" duration="314.00" routeLength="1312.88" waitingTime="88.00" waitingCount="13" stopTime="0.00" timeLoss="225.67" rerouteNo="0" devices="tripinfo_f_0_1.8" vType="type1" speedFactor="1.04" vaporized=""/>
    <tripinfo id="f_0_1.16" depart="219.00" departLane="np16_nt1_0" departPos="47.16" departSpeed="0.00" departDelay="0.82" arrival="438.00" arrivalLane="nt16_np8_0" arrivalPos="75.00" arrivalSpeed="19.01" duration="219.00" routeLength="1300.72" waitingTime="48.00" waitingCount="11" stopTime="0.00" timeLoss="128.26" rerouteNo="0" devices="tripinfo_f_0_1.16" vType="type1" speedFactor="1.00" vaporized=""/>
    <tripinfo id="f_0_1.14" depart="191.00" departLane="np16_nt1_0" departPos="0.52" departSpeed="0.00" departDelay="0.10" arrival="440.00" arrivalLane="nt16_np8_0" arrivalPos="75.00" arrivalSpeed="17.27" duration="249.00" routeLength="1347.36" waitingTime="60.00" waitingCount="11" stopTime="0.00" timeLoss="148.68" rerouteNo="0" devices="tripinfo_f_0_1.14" vType="type1" speedFactor="0.93" vaporized=""/>
    <tripinfo id="f_0_3.12" depart="99.00" departLane="np3_nt3_0" departPos="16.82" departSpeed="0.00" departDelay="0.82" arrival="442.00" arrivalLane="nt14_np11_0" arrivalPos="75.00" arrivalSpeed="10.42" duration="343.00" routeLength="934.27" waitingTime="208.00" waitingCount="9" stopTime="0.00" timeLoss="265.26" rerouteNo="0" devices="tripinfo_f_0_3.12" vType="type1" speedFactor="1.01" vaporized=""/>
    <tripinfo id="f_0_1.9" depart="123.00" departLane="np16_nt1_0" departPos="11.43" departSpeed="0.00" departDelay="0.28" arrival="446.00" arrivalLane="nt16_np8_0" arrivalPos="75.00" arrivalSpeed="16.08" duration="323.00" routeLength="1336.45" waitingTime="73.00" waitingCount="13" stopTime="0.00" timeLoss="216.68" rerouteNo="0" devices="tripinfo_f_0_1.9" vType="type1" speedFactor="0.87" vaporized=""/>
    <tripinfo id="f_0_0.15" depart="205.00" departLane="np13_nt13_0" departPos="53.57" departSpeed="0.00" departDelay="0.46" arrival="448.00" arrivalLane="nt4_np5_0" arrivalPos="75.00" arrivalSpeed="19.16" duration="243.00" routeLength="1294.32" waitingTime="100.00" waitingCount="8" stopTime="0.00" timeLoss="153.60" rerouteNo="0" devices="tripinfo_f_0_0.15" vType="type1" speedFactor="1.01" vaporized=""/>
    <tripinfo id="f_0_3.13" depart="107.00" departLane="np3_nt3_0" departPos="9.31" departSpeed="0.00" departDelay="0.63" arrival="451.00" arrivalLane="nt14_np11_0" arrivalPos="75.00" arrivalSpeed="10.06" duration="344.00" routeLength="941.78" waitingTime="211.00" waitingCount="10" stopTime="0.00" timeLoss="270.82" rerouteNo="0" devices="tripinfo_f_0_3.13" vType="type1" speedFactor="1.08" vaporized=""/>
    <tripinfo id="f_0_3.14" depart="115.00" departLane="np3_nt3_0" departPos="8.66" departSpeed="0.00" departDelay="0.45" arrival="453.00" arrivalLane="nt14_np11_0" arrivalPos="75.00" arrivalSpeed="10.94" duration="338.00" routeLength="942.43" waitingTime="198.00" waitingCount="10" stopTime="0.00" timeLoss="267.62" rerouteNo="0" devices="tripinfo_f_0_3.14" vType="type1" speedFactor="1.13" vaporized=""/>
    <tripinfo id="f_0_2.17" depart="140.00" departLane="np2_nt2_0" departPos="2.24" departSpeed="0.00" departDelay="0.91" arrival="453.00" arrivalLane="nt15_np10_0" arrivalPos="75.00" arrivalSpeed="8.97" duration="313.00" routeLength="948.84" waitingTime="80.00" waitingCount="10" stopTime="0.00" timeLoss="224.69" rerouteNo="0" devices="tripinfo_f_0_2.17" vType="type1" speedFactor="0.90" vaporized=""/>
    <tripinfo id="f_0_2.18" depart="148.00" departLane="np2_nt2_0" departPos="31.34" departSpeed="0.00" departDelay="0.72" arrival="455.00" arrivalLane="nt15_np10_0" arrivalPos="75.00" arrivalSpeed="8.26" duration="307.00" routeLength="919.74" waitingTime="89.00" waitingCount="12" stopTime="0.00" timeLoss="226.47" rerouteNo="0" devices="tripinfo_f_0_2.18" vType="type1" speedFactor="0.96" vaporized=""/>
    <tripinfo id="f_0_2.19" depart="156.00" departLane="np2_nt2_0" departPos="23.50" departSpeed="0.00" departDelay="0.54" arrival="457.00" arrivalLane="nt15_np10_0" arrivalPos="75.00" arrivalSpeed="9.61" duration="301.00" routeLength="927.58" waitingTime="80.00" waitingCount="9" stopTime="0.00" timeLoss="216.76" rerouteNo="0" devices="tripinfo_f_0_2.19" vType="type1" speedFactor="0.92" vaporized=""/>
    <tripinfo id="f_0_2.20" depart="164.00" departLane="np2_nt2_0" departPos="38.72" departSpeed="0.00" departDelay="0.36" arrival="459.00" arrivalLane="nt15_np10_0" arrivalPos="75.00" arrivalSpeed="11.40" duration="295.00" routeLength="912.36" waitingTime="93.00" waitingCount="13" stopTime="0.00" timeLoss="225.88" rerouteNo="0" devices="tripinfo_f_0_2.20" vType="type1" speedFactor="1.10" vaporized=""/>
    <tripinfo id="f_0_0.16" depart="219.00" departLane="np13_nt13_0" departPos="40.07" departSpeed="0.00" departDelay="0.82" arrival="459.00" arrivalLane="nt4_np5_0" arrivalPos="75.00" arrivalSpeed="18.29" duration="240.00" routeLength="1307.82" waitingTime="89.00" waitingCount="8" stopTime="0.00" timeLoss="149.68" rerouteNo="0" devices="tripinfo_f_0_0.16" vType="type1" speedFactor="1.02" vaporized=""/>
    <tripinfo id="f_0_0.17" depart="232.00" departLane="np13_nt13_0" departPos="50.93" departSpeed="0.00" departDelay="0.19" arrival="460.00" arrivalLane="nt4_np5_0" arrivalPos="75.00" arrivalSpeed="19.38" duration="228.00" routeLength="1296.96" waitingTime="78.00" waitingCount="8" stopTime="0.00" timeLoss="136.69" rerouteNo="0" devices="tripinfo_f_0_0.17" vType="type1" speedFactor="0.99" vaporized=""/>
    <tripinfo id="f_0_3.15" depart="123.00" departLane="np3_nt3_0" departPos="0.00" departSpeed="0.00" departDelay="0.27" arrival="462.00" arrivalLane="nt14_np11_0" arrivalPos="75.00" arrivalSpeed="11.23" duration="339.00" routeLength="951.09" waitingTime="188.00" waitingCount="10" stopTime="0.00" timeLoss="260.73" rerouteNo="0" devices="tripinfo_f_0_3.15" vType="type1" speedFactor="1.03" vaporized=""/>
    <tripinfo id="f_0_0.18" depart="246.00" departLane="np13_nt13_0" departPos="26.64" departSpeed="0.00" departDelay="0.55" arrival="462.00" arrivalLane="nt4_np5_0" arrivalPos="75.00" arrivalSpeed="19.64" duration="216.00" routeLength="1321.25" waitingTime="59.00" waitingCount="8" stopTime="0.00" timeLoss="128.37" rerouteNo="0" devices="tripinfo_f_0_0.18" vType="type1" speedFactor="1.05" vaporized=""/>