<?xml version="1.0" encoding="UTF-8"?>

<!-- generated on 2023-08-30 12:37:34 by Eclipse SUMO libsumo Version 1.18.0
<configuration xmlns:xsi="http://www.w3.org/2001/XMLSchema-instance" xsi:noNamespaceSchemaLocation="http://sumo.dlr.de/xsd/libsumoConfiguration.xsd">

    <input>
        <net-file value="/home/stefan/RESCO/./environments/arterial4x4/arterial4x4.net.xml"/>
        <route-files value="/home/stefan/RESCO/./environments/arterial4x4/arterial4x4_52.rou.xml"/>
    </input>

    <output>
        <tripinfo-output value="/home/stefan/results/ITRPO-tr0-arterial4x4-0-drq_norm-wait_norm/tripinfo_52.xml"/>
        <tripinfo-output.write-unfinished value="true"/>
    </output>

    <processing>
        <time-to-teleport value="-1"/>
    </processing>

    <report>
        <no-warnings value="True"/>
        <no-step-log value="True"/>
    </report>

    <random_number>
        <random value="true"/>
    </random_number>

</configuration>
-->

<tripinfos xmlns:xsi="http://www.w3.org/2001/XMLSchema-instance" xsi:noNamespaceSchemaLocation="http://sumo.dlr.de/xsd/tripinfo_file.xsd">
    <tripinfo id="f_0_3.0" depart="0.00" departLane="np3_nt3_0" departPos="36.18" departSpeed="0.00" departDelay="0.00" arrival="153.00" arrivalLane="nt14_np11_0" arrivalPos="75.00" arrivalSpeed="8.05" duration="153.00" routeLength="914.91" waitingTime="44.00" waitingCount="3" stopTime="0.00" timeLoss="66.43" rerouteNo="0" devices="tripinfo_f_0_3.0" vType="type1" speedFactor="0.89" vaporized=""/>
    <tripinfo id="f_0_2.0" depart="0.00" departLane="np2_nt2_0" departPos="10.44" departSpeed="0.00" departDelay="0.00" arrival="170.00" arrivalLane="nt15_np10_0" arrivalPos="75.00" arrivalSpeed="8.52" duration="170.00" routeLength="940.64" waitingTime="44.00" waitingCount="3" stopTime="0.00" timeLoss="69.14" rerouteNo="0" devices="tripinfo_f_0_2.0" vType="type1" speedFactor="0.78" vaporized=""/>
    <tripinfo id="f_0_0.0" depart="0.00" departLane="np13_nt13_0" departPos="40.16" departSpeed="0.00" departDelay="0.00" arrival="188.00" arrivalLane="nt4_np5_0" arrivalPos="75.00" arrivalSpeed="19.32" duration="188.00" routeLength="1307.73" waitingTime="73.00" waitingCount="4" stopTime="0.00" timeLoss="100.40" rerouteNo="0" devices="tripinfo_f_0_0.0" vType="type1" speedFactor="1.04" vaporized=""/>
    <tripinfo id="f_0_3.1" depart="9.00" departLane="np3_nt3_0" departPos="35.31" departSpeed="0.00" departDelay="0.82" arrival="198.00" arrivalLane="nt14_np11_0" arrivalPos="75.00" arrivalSpeed="9.68" duration="189.00" routeLength="915.78" waitingTime="85.00" waitingCount="5" stopTime="0.00" timeLoss="111.09" rerouteNo="0" devices="tripinfo_f_0_3.1" vType="type1" speedFactor="0.99" vaporized=""/>
    <tripinfo id="f_0_2.1" depart="9.00" departLane="np2_nt2_0" departPos="25.00" departSpeed="0.00" departDelay="0.82" arrival="202.00" arrivalLane="nt15_np10_0" arrivalPos="75.00" arrivalSpeed="10.85" duration="193.00" routeLength="926.08" waitingTime="90.00" waitingCount="6" stopTime="0.00" timeLoss="116.78" rerouteNo="0" devices="tripinfo_f_0_2.1" vType="type1" speedFactor="1.01" vaporized=""/>
    <tripinfo id="f_0_0.1" depart="14.00" departLane="np13_nt13_0" departPos="17.15" departSpeed="0.00" departDelay="0.36" arrival="208.00" arrivalLane="nt4_np5_0" arrivalPos="75.00" arrivalSpeed="21.59" duration="194.00" routeLength="1330.74" waitingTime="74.00" waitingCount="5" stopTime="0.00" timeLoss="114.36" rerouteNo="0" devices="tripinfo_f_0_0.1" vType="type1" speedFactor="1.16" vaporized=""/>
    <tripinfo id="f_0_0.2" depart="28.00" departLane="np13_nt13_0" departPos="31.68" departSpeed="0.00" departDelay="0.73" arrival="217.00" arrivalLane="nt4_np5_0" arrivalPos="75.00" arrivalSpeed="17.15" duration="189.00" routeLength="1316.21" waitingTime="46.00" waitingCount="5" stopTime="0.00" timeLoss="94.86" rerouteNo="0" devices="tripinfo_f_0_0.2" vType="type1" speedFactor="0.97" vaporized=""/>
    <tripinfo id="f_0_3.2" depart="17.00" departLane="np3_nt3_0" departPos="4.91" departSpeed="0.00" departDelay="0.64" arrival="218.00" arrivalLane="nt14_np11_0" arrivalPos="75.00" arrivalSpeed="10.14" duration="201.00" routeLength="946.18" waitingTime="91.00" waitingCount="6" stopTime="0.00" timeLoss="117.55" rerouteNo="0" devices="tripinfo_f_0_3.2" vType="type1" speedFactor="0.96" vaporized=""/>
    <tripinfo id="f_0_3.3" depart="25.00" departLane="np3_nt3_0" departPos="48.41" departSpeed="0.00" departDelay="0.45" arrival="226.00" arrivalLane="nt14_np11_0" arrivalPos="75.00" arrivalSpeed="12.04" duration="201.00" routeLength="902.68" waitingTime="94.00" waitingCount="7" stopTime="0.00" timeLoss="135.88" rerouteNo="0" devices="tripinfo_f_0_3.3" vType="type1" speedFactor="1.17" vaporized=""/>
    <tripinfo id="f_0_3.4" depart="33.00" departLane="np3_nt3_0" departPos="1.76" departSpeed="0.00" departDelay="0.27" arrival="230.00" arrivalLane="nt14_np11_0" arrivalPos="75.00" arrivalSpeed="9.82" duration="197.00" routeLength="949.33" waitingTime="74.00" waitingCount="5" stopTime="0.00" timeLoss="117.43" rerouteNo="0" devices="tripinfo_f_0_3.4" vType="type1" speedFactor="1.00" vaporized=""/>
    <tripinfo id="f_0_3.5" depart="41.00" departLane="np3_nt3_0" departPos="0.43" departSpeed="0.00" departDelay="0.09" arrival="232.00" arrivalLane="nt14_np11_0" arrivalPos="75.00" arrivalSpeed="10.23" duration="191.00" routeLength="950.66" waitingTime="63.00" waitingCount="6" stopTime="0.00" timeLoss="119.10" rerouteNo="0" devices="tripinfo_f_0_3.5" vType="type1" speedFactor="1.12" vaporized=""/>
    <tripinfo id="f_0_0.3" depart="41.00" departLane="np13_nt13_0" departPos="27.37" departSpeed="0.00" departDelay="0.09" arrival="238.00" arrivalLane="nt4_np5_0" arrivalPos="75.00" arrivalSpeed="18.94" duration="197.00" routeLength="1320.52" waitingTime="67.00" waitingCount="7" stopTime="0.00" timeLoss="106.16" rerouteNo="0" devices="tripinfo_f_0_0.3" vType="type1" speedFactor="1.00" vaporized=""/>
    <tripinfo id="f_0_2.2" depart="17.00" departLane="np2_nt2_0" departPos="48.69" departSpeed="0.00" departDelay="0.64" arrival="239.00" arrivalLane="nt15_np10_0" arrivalPos="75.00" arrivalSpeed="7.42" duration="222.00" routeLength="902.39" waitingTime="98.00" waitingCount="7" stopTime="0.00" timeLoss="136.43" rerouteNo="0" devices="tripinfo_f_0_2.2" vType="type1" speedFactor="0.89" vaporized=""/>
    <tripinfo id="f_0_0.4" depart="55.00" departLane="np13_nt13_0" departPos="16.96" departSpeed="0.00" departDelay="0.46" arrival="269.00" arrivalLane="nt4_np5_0" arrivalPos="75.00" arrivalSpeed="19.54" duration="214.00" routeLength="1330.93" waitingTime="84.00" waitingCount="5" stopTime="0.00" timeLoss="119.75" rerouteNo="0" devices="tripinfo_f_0_0.4" vType="type1" speedFactor="0.98" vaporized=""/>
    <tripinfo id="f_0_1.0" depart="0.00" departLane="np16_nt1_0" departPos="12.43" departSpeed="0.00" departDelay="0.00" arrival="287.00" arrivalLane="nt16_np8_0" arrivalPos="75.00" arrivalSpeed="16.42" duration="287.00" routeLength="1335.45" waitingTime="137.00" waitingCount="7" stopTime="0.00" timeLoss="181.71" rerouteNo="0" devices="tripinfo_f_0_1.0" vType="type1" speedFactor="0.88" vaporized=""/>
    <tripinfo id="f_0_1.1" depart="14.00" departLane="np16_nt1_0" departPos="45.96" departSpeed="0.00" departDelay="0.36" arrival="289.00" arrivalLane="nt16_np8_0" arrivalPos="75.00" arrivalSpeed="20.41" duration="275.00" routeLength="1301.92" waitingTime="129.00" waitingCount="7" stopTime="0.00" timeLoss="194.76" rerouteNo="0" devices="tripinfo_f_0_1.1" vType="type1" speedFactor="1.13" vaporized=""/>
    <tripinfo id="f_0_3.6" depart="50.00" departLane="np3_nt3_0" departPos="10.72" departSpeed="0.00" departDelay="0.91" arrival="308.00" arrivalLane="nt14_np11_0" arrivalPos="75.00" arrivalSpeed="8.04" duration="258.00" routeLength="940.37" waitingTime="143.00" waitingCount="5" stopTime="0.00" timeLoss="174.95" rerouteNo="0" devices="tripinfo_f_0_3.6" vType="type1" speedFactor="0.95" vaporized=""/>
    <tripinfo id="f_0_3.7" depart="58.00" departLane="np3_nt3_0" departPos="7.05" departSpeed="0.00" departDelay="0.73" arrival="310.00" arrivalLane="nt14_np11_0" arrivalPos="75.00" arrivalSpeed="12.17" duration="252.00" routeLength="944.04" waitingTime="138.00" waitingCount="7" stopTime="0.00" timeLoss="181.15" rerouteNo="0" devices="tripinfo_f_0_3.7" vType="type1" speedFactor="1.12" vaporized=""/>
    <tripinfo id="f_0_3.8" depart="66.00" departLane="np3_nt3_0" departPos="18.20" departSpeed="0.00" departDelay="0.54" arrival="312.00" arrivalLane="nt14_np11_0" arrivalPos="75.00" arrivalSpeed="11.31" duration="246.00" routeLength="932.89" waitingTime="130.00" waitingCount="6" stopTime="0.00" timeLoss="173.24" rerouteNo="0" devices="tripinfo_f_0_3.8" vType="type1" speedFactor="1.08" vaporized=""/>
    <tripinfo id="f_0_3.9" depart="74.00" departLane="np3_nt3_0" departPos="0.00" departSpeed="0.00" departDelay="0.36" arrival="314.00" arrivalLane="nt14_np11_0" arrivalPos="75.00" arrivalSpeed="9.37" duration="240.00" routeLength="951.09" waitingTime="118.00" waitingCount="6" stopTime="0.00" timeLoss="156.48" rerouteNo="0" devices="tripinfo_f_0_3.9" vType="type1" speedFactor="0.96" vaporized=""/>
    <tripinfo id="f_0_3.10" depart="82.00" departLane="np3_nt3_0" departPos="0.00" departSpeed="0.00" departDelay="0.18" arrival="316.00" arrivalLane="nt14_np11_0" arrivalPos="75.00" arrivalSpeed="9.79" duration="234.00" routeLength="951.09" waitingTime="111.00" waitingCount="7" stopTime="0.00" timeLoss="155.37" rerouteNo="0" devices="tripinfo_f_0_3.10" vType="type1" speedFactor="1.02" vaporized=""/>
    <tripinfo id="f_0_0.5" depart="69.00" departLane="np13_nt13_0" departPos="35.72" departSpeed="0.00" departDelay="0.82" arrival="328.00" arrivalLane="nt4_np5_0" arrivalPos="75.00" arrivalSpeed="20.96" duration="259.00" routeLength="1312.17" waitingTime="136.00" waitingCount="8" stopTime="0.00" timeLoss="174.39" rerouteNo="0" devices="tripinfo_f_0_0.5" vType="type1" speedFactor="1.08" vaporized=""/>
    <tripinfo id="f_0_3.11" depart="92.00" departLane="np3_nt3_0" departPos="0.00" departSpeed="0.00" departDelay="2.00" arrival="364.00" arrivalLane="nt14_np11_0" arrivalPos="75.00" arrivalSpeed="8.74" duration="272.00" routeLength="951.09" waitingTime="136.00" waitingCount="8" stopTime="0.00" timeLoss="175.30" rerouteNo="0" devices="tripinfo_f_0_3.11" vType="type1" speedFactor="0.83" vaporized=""/>
    <tripinfo id="f_0_0.6" depart="82.00" departLane="np13_nt13_0" departPos="52.45" departSpeed="0.00" departDelay="0.18" arrival="373.00" arrivalLane="nt4_np5_0" arrivalPos="75.00" arrivalSpeed="20.97" duration="291.00" routeLength="1295.44" waitingTime="166.00" waitingCount="7" stopTime="0.00" timeLoss="209.08" rerouteNo="0" devices="tripinfo_f_0_0.6" vType="type1" speedFactor="1.10" vaporized=""/>
    <tripinfo id="f_0_3.12" depart="99.00" departLane="np3_nt3_0" departPos="0.00" departSpeed="0.00" departDelay="0.82" arrival="376.00" arrivalLane="nt14_np11_0" arrivalPos="75.00" arrivalSpeed="10.81" duration="277.00" routeLength="951.09" waitingTime="164.00" waitingCount="9" stopTime="0.00" timeLoss="206.83" rerouteNo="0" devices="tripinfo_f_0_3.12" vType="type1" speedFactor="1.14" vaporized=""/>
    <tripinfo id="f_0_0.7" depart="96.00" departLane="np13_nt13_0" departPos="9.15" departSpeed="0.00" departDelay="0.55" arrival="398.00" arrivalLane="nt4_np5_0" arrivalPos="75.00" arrivalSpeed="16.98" duration="302.00" routeLength="1338.74" waitingTime="157.00" waitingCount="8" stopTime="0.00" timeLoss="206.74" rerouteNo="0" devices="tripinfo_f_0_0.7" vType="type1" speedFactor="0.97" vaporized=""/>
    <tripinfo id="f_0_0.8" depart="110.00" departLane="np13_nt13_0" departPos="47.19" departSpeed="0.00" departDelay="0.91" arrival="400.00" arrivalLane="nt4_np5_0" arrivalPos="75.00" arrivalSpeed="21.54" duration="290.00" routeLength="1300.70" waitingTime="153.00" waitingCount="9" stopTime="0.00" timeLoss="209.34" rerouteNo="0" devices="tripinfo_f_0_0.8" vType="type1" speedFactor="1.14" vaporized=""/>
    <tripinfo id="f_0_3.13" depart="107.00" departLane="np3_nt3_0" departPos="1.04" departSpeed="0.00" departDelay="0.63" arrival="404.00" arrivalLane="nt14_np11_0" arrivalPos="75.00" arrivalSpeed="9.81" duration="297.00" routeLength="950.05" waitingTime="174.00" waitingCount="8" stopTime="0.00" timeLoss="216.71" rerouteNo="0" devices="tripinfo_f_0_3.13" vType="type1" speedFactor="0.99" vaporized=""/>
    <tripinfo id="f_0_3.14" depart="115.00" departLane="np3_nt3_0" departPos="0.00" departSpeed="0.00" departDelay="0.45" arrival="406.00" arrivalLane="nt14_np11_0" arrivalPos="75.00" arrivalSpeed="9.99" duration="291.00" routeLength="951.09" waitingTime="160.00" waitingCount="9" stopTime="0.00" timeLoss="213.89" rerouteNo="0" devices="tripinfo_f_0_3.14" vType="type1" speedFactor="1.04" vaporized=""/>
    <tripinfo id="f_0_2.3" depart="25.00" departLane="np2_nt2_0" departPos="16.61" departSpeed="0.00" departDelay="0.45" arrival="408.00" arrivalLane="nt15_np10_0" arrivalPos="75.00" arrivalSpeed="9.45" duration="383.00" routeLength="934.47" waitingTime="243.00" waitingCount="11" stopTime="0.00" timeLoss="295.50" rerouteNo="0" devices="tripinfo_f_0_2.3" vType="type1" speedFactor="0.89" vaporized=""/>
    <tripinfo id="f_0_3.15" depart="172.00" departLane="np3_nt3_0" departPos="0.00" departSpeed="0.00" departDelay="49.27" arrival="408.00" arrivalLane="nt14_np11_0" arrivalPos="75.00" arrivalSpeed="10.85" duration="236.00" routeLength="951.09" waitingTime="98.00" waitingCount="8" stopTime="0.00" timeLoss="156.73" rerouteNo="0" devices="tripinfo_f_0_3.15" vType="type1" speedFactor="1.01" vaporized=""/>
    <tripinfo id="f_0_2.4" depart="33.00" departLane="np2_nt2_0" departPos="29.99" departSpeed="0.00" departDelay="0.27" arrival="410.00" arrivalLane="nt15_np10_0" arrivalPos="75.00" arrivalSpeed="8.49" duration="377.00" routeLength="921.09" waitingTime="234.00" waitingCount="11" stopTime="0.00" timeLoss="297.33" rerouteNo="0" devices="tripinfo_f_0_2.4" vType="type1" speedFactor="0.97" vaporized=""/>
    <tripinfo id="f_0_2.5" depart="41.00" departLane="np2_nt2_0" departPos="2.12" departSpeed="0.00" departDelay="0.09" arrival="412.00" arrivalLane="nt15_np10_0" arrivalPos="75.00" arrivalSpeed="10.29" duration="371.00" routeLength="948.96" waitingTime="213.00" waitingCount="11" stopTime="0.00" timeLoss="285.73" rerouteNo="0" devices="tripinfo_f_0_2.5" vType="type1" speedFactor="0.94" vaporized=""/>
    <tripinfo id="f_0_0.9" depart="123.00" departLane="np13_nt13_0" departPos="44.53" departSpeed="0.00" departDelay="0.28" arrival="412.00" arrivalLane="nt4_np5_0" arrivalPos="75.00" arrivalSpeed="23.50" duration="289.00" routeLength="1303.36" waitingTime="153.00" waitingCount="10" stopTime="0.00" timeLoss="215.76" rerouteNo="0" devices="tripinfo_f_0_0.9" vType="type1" speedFactor="1.24" vaporized=""/>
    <tripinfo id="f_0_3.16" depart="192.00" departLane="np3_nt3_0" departPos="1.71" departSpeed="0.00" departDelay="61.09" arrival="564.00" arrivalLane="nt14_np11_0" arrivalPos="75.00" arrivalSpeed="8.58" duration="372.00" routeLength="949.38" waitingTime="218.00" waitingCount="11" stopTime="0.00" timeLoss="280.80" rerouteNo="0" devices="tripinfo_f_0_3.16" vType="type1" speedFactor="0.87" vaporized=""/>
    <tripinfo id="f_0_3.17" depart="194.00" departLane="np3_nt3_0" departPos="0.00" departSpeed="0.00" departDelay="54.91" arrival="632.00" arrivalLane="nt14_np11_0" arrivalPos="75.00" arrivalSpeed="11.26" duration="438.00" routeLength="951.09" waitingTime="279.00" waitingCount="13" stopTime="0.00" timeLoss="361.63" rerouteNo="0" devices="tripinfo_f_0_3.17" vType="type1" speedFactor="1.05" vaporized=""/>
    <tripinfo id="f_0_1.2" depart="28.00" departLane="np16_nt1_0" departPos="55.18" departSpeed="0.00" departDelay="0.73" arrival="-1.00" arrivalLane="" arrivalPos="-1.00" arrivalSpeed="-1.00" duration="3572.00" routeLength="792.67" waitingTime="3435.00" waitingCount="11" stopTime="0.00" timeLoss="3501.88" rerouteNo="0" devices="tripinfo_f_0_1.2" vType="type1" speedFactor="0.80" vaporized="end"/>
    <tripinfo id="f_0_1.3" depart="41.00" departLane="np16_nt1_0" departPos="43.87" departSpeed="0.00" departDelay="0.09" arrival="-1.00" arrivalLane="" arrivalPos="-1.00" arrivalSpeed="-1.00" duration="3559.00" routeLength="796.47" waitingTime="3410.00" waitingCount="12" stopTime="0.00" timeLoss="3489.13" rerouteNo="0" devices="tripinfo_f_0_1.3" vType="type1" speedFactor="0.81" vaporized="end"/>
    <tripinfo id="f_0_2.6" depart="50.00" departLane="np2_nt2_0" departPos="24.17" departSpeed="0.00" departDelay="0.91" arrival="-1.00" arrivalLane="" arrivalPos="-1.00" arrivalSpeed="-1.00" duration="3550.00" routeLength="630.10" waitingTime="3425.00" waitingCount="9" stopTime="0.00" timeLoss="3506.42" rerouteNo="0" devices="tripinfo_f_0_2.6" vType="type1" speedFactor="1.18" vaporized="end"/>
    <tripinfo id="f_0_1.4" depart="55.00" departLane="np16_nt1_0" departPos="20.46" departSpeed="0.00" departDelay="0.46" arrival="-1.00" arrivalLane="" arrivalPos="-1.00" arrivalSpeed="-1.00" duration="3545.00" routeLength="804.88" waitingTime="3385.00" waitingCount="11" stopTime="0.00" timeLoss="3490.53" rerouteNo="0" devices="tripinfo_f_0_1.4" vType="type1" speedFactor="1.04" vaporized="end"/>
    <tripinfo id="f_0_2.7" depart="58.00" departLane="np2_nt2_0" departPos="47.45" departSpeed="0.00" departDelay="0.73" arrival="-1.00" arrivalLane="" arrivalPos="-1.00" arrivalSpeed="-1.00" duration="3542.00" routeLength="599.33" waitingTime="3421.00" waitingCount="10" stopTime="0.00" timeLoss="3497.81" rerouteNo="0" devices="tripinfo_f_0_2.7" vType="type1" speedFactor="1.11" vaporized="end"/>
    <tripinfo id="f_0_2.8" depart="66.00" departLane="np2_nt2_0" departPos="6.85" departSpeed="0.00" departDelay="0.54" arrival="-1.00" arrivalLane="" arrivalPos="-1.00" arrivalSpeed="-1.00" duration="3534.00" routeLength="617.43" waitingTime="3399.00" waitingCount="11" stopTime="0.00" timeLoss="3475.10" rerouteNo="0" devices="tripinfo_f_0_2.8" vType="type1" speedFactor="0.85" vaporized="end"/>
    <tripinfo id="f_0_1.5" depart="69.00" departLane="np16_nt1_0" departPos="63.64" departSpeed="0.00" departDelay="0.82" arrival="-1.00" arrivalLane="" arrivalPos="-1.00" arrivalSpeed="-1.00" duration="3531.00" routeLength="739.20" waitingTime="3402.00" waitingCount="9" stopTime="0.00" timeLoss="3476.96" rerouteNo="0" devices="tripinfo_f_0_1.5" vType="type1" speedFactor="0.96" vaporized="end"/>
    <tripinfo id="f_0_2.9" depart="74.00" departLane="np2_nt2_0" departPos="33.25" departSpeed="0.00" departDelay="0.36" arrival="-1.00" arrivalLane="" arrivalPos="-1.00" arrivalSpeed="-1.00" duration="3526.00" routeLength="576.02" waitingTime="3384.00" waitingCount="11" stopTime="0.00" timeLoss="3476.56" rerouteNo="0" devices="tripinfo_f_0_2.9" vType="type1" speedFactor="0.95" vaporized="end"/>
    <tripinfo id="f_0_1.6" depart="82.00" departLane="np16_nt1_0" departPos="30.89" departSpeed="0.00" departDelay="0.18" arrival="-1.00" arrivalLane="" arrivalPos="-1.00" arrivalSpeed="-1.00" duration="3518.00" routeLength="749.45" waitingTime="3390.00" waitingCount="10" stopTime="0.00" timeLoss="3459.23" rerouteNo="0" devices="tripinfo_f_0_1.6" vType="type1" speedFactor="0.88" vaporized="end"/>
    <tripinfo id="f_0_2.10" depart="82.00" departLane="np2_nt2_0" departPos="11.96" departSpeed="0.00" departDelay="0.18" arrival="-1.00" arrivalLane="" arrivalPos="-1.00" arrivalSpeed="-1.00" duration="3518.00" routeLength="589.82" waitingTime="3370.00" waitingCount="8" stopTime="0.00" timeLoss="3476.35" rerouteNo="0" devices="tripinfo_f_0_2.10" vType="type1" speedFactor="1.15" vaporized="end"/>
    <tripinfo id="f_0_2.11" depart="90.00" departLane="np2_nt2_0" departPos="14.77" departSpeed="0.00" departDelay="0.00" arrival="-1.00" arrivalLane="" arrivalPos="-1.00" arrivalSpeed="-1.00" duration="3510.00" routeLength="572.00" waitingTime="3383.00" waitingCount="8" stopTime="0.00" timeLoss="3459.89" rerouteNo="0" devices="tripinfo_f_0_2.11" vType="type1" speedFactor="0.93" vaporized="end"/>
    <tripinfo id="f_0_1.7" depart="96.00" departLane="np16_nt1_0" departPos="28.83" departSpeed="0.00" departDelay="0.55" arrival="-1.00" arrivalLane="" arrivalPos="-1.00" arrivalSpeed="-1.00" duration="3504.00" routeLength="744.01" waitingTime="3376.00" waitingCount="9" stopTime="0.00" timeLoss="3457.62" rerouteNo="0" devices="tripinfo_f_0_1.7" vType="type1" speedFactor="1.11" vaporized="end"/>
    <tripinfo id="f_0_2.12" depart="99.00" departLane="np2_nt2_0" departPos="52.80" departSpeed="0.00" departDelay="0.82" arrival="-1.00" arrivalLane="" arrivalPos="-1.00" arrivalSpeed="-1.00" duration="3501.00" routeLength="526.47" waitingTime="3387.00" waitingCount="11" stopTime="0.00" timeLoss="3460.15" rerouteNo="0" devices="tripinfo_f_0_2.12" vType="type1" speedFactor="1.02" vaporized="end"/>
    <tripinfo id="f_0_2.13" depart="107.00" departLane="np2_nt2_0" departPos="45.11" departSpeed="0.00" departDelay="0.63" arrival="-1.00" arrivalLane="" arrivalPos="-1.00" arrivalSpeed="-1.00" duration="3493.00" routeLength="504.16" waitingTime="3399.00" waitingCount="7" stopTime="0.00" timeLoss="3448.53" rerouteNo="0" devices="tripinfo_f_0_2.13" vType="type1" speedFactor="0.91" vaporized="end"/>
    <tripinfo id="f_0_1.8" depart="110.00" departLane="np16_nt1_0" departPos="51.71" departSpeed="0.00" departDelay="0.91" arrival="-1.00" arrivalLane="" arrivalPos="-1.00" arrivalSpeed="-1.00" duration="3490.00" routeLength="713.63" waitingTime="3373.00" waitingCount="8" stopTime="0.00" timeLoss="3429.97" rerouteNo="0" devices="tripinfo_f_0_1.8" vType="type1" speedFactor="0.82" vaporized="end"/>
    <tripinfo id="f_0_2.14" depart="115.00" departLane="np2_nt2_0" departPos="24.64" departSpeed="0.00" departDelay="0.45" arrival="-1.00" arrivalLane="" arrivalPos="-1.00" arrivalSpeed="-1.00" duration="3485.00" routeLength="517.12" waitingTime="3390.00" waitingCount="10" stopTime="0.00" timeLoss="3438.45" rerouteNo="0" devices="tripinfo_f_0_2.14" vType="type1" speedFactor="0.88" vaporized="end"/>
    <tripinfo id="f_0_1.9" depart="123.00" departLane="np16_nt1_0" departPos="52.46" departSpeed="0.00" departDelay="0.28" arrival="-1.00" arrivalLane="" arrivalPos="-1.00" arrivalSpeed="-1.00" duration="3477.00" routeLength="407.69" waitingTime="3401.00" waitingCount="10" stopTime="0.00" timeLoss="3453.86" rerouteNo="0" devices="tripinfo_f_0_1.9" vType="type1" speedFactor="0.92" vaporized="end"/>
    <tripinfo id="f_0_2.15" depart="123.00" departLane="np2_nt2_0" departPos="33.56" departSpeed="0.00" departDelay="0.27" arrival="-1.00" arrivalLane="" arrivalPos="-1.00" arrivalSpeed="-1.00" duration="3477.00" routeLength="225.53" waitingTime="3414.00" waitingCount="12" stopTime="0.00" timeLoss="3463.82" rerouteNo="0" devices="tripinfo_f_0_2.15" vType="type1" speedFactor="1.07" vaporized="end"/>
    <tripinfo id="f_0_2.16" depart="131.00" departLane="np2_nt2_0" departPos="21.80" departSpeed="0.00" departDelay="0.09" arrival="-1.00" arrivalLane="" arrivalPos="-1.00" arrivalSpeed="-1.00" duration="3469.00" routeLength="199.78" waitingTime="3397.00" waitingCount="10" stopTime="0.00" timeLoss="3456.10" rerouteNo="0" devices="tripinfo_f_0_2.16" vType="type1" speedFactor="1.01" vaporized="end"/>
    <tripinfo id="f_0_0.10" depart="137.00" departLane="np13_nt13_0" departPos="33.53" departSpeed="0.00" departDelay="0.64" arrival="-1.00" arrivalLane="" arrivalPos="-1.00" arrivalSpeed="-1.00" duration="3463.00" routeLength="621.50" waitingTime="3386.00" waitingCount="6" stopTime="0.00" timeLoss="3423.50" rerouteNo="0" devices="tripinfo_f_0_0.10" vType="type1" speedFactor="1.01" vaporized="end"/>
    <tripinfo id="f_0_1.10" depart="137.00" departLane="np16_nt1_0" departPos="29.14" departSpeed="0.00" departDelay="0.64" arrival="-1.00" arrivalLane="" arrivalPos="-1.00" arrivalSpeed="-1.00" duration="3463.00" routeLength="416.01" waitingTime="3383.00" waitingCount="8" stopTime="0.00" timeLoss="3439.85" rerouteNo="0" devices="tripinfo_f_0_1.10" vType="type1" speedFactor="0.94" vaporized="end"/>
    <tripinfo id="f_0_2.17" depart="140.00" departLane="np2_nt2_0" departPos="28.53" departSpeed="0.00" departDelay="0.91" arrival="-1.00" arrivalLane="" arrivalPos="-1.00" arrivalSpeed="-1.00" duration="3460.00" routeLength="178.05" waitingTime="3394.00" waitingCount="9" stopTime="0.00" timeLoss="3448.40" rerouteNo="0" devices="tripinfo_f_0_2.17" vType="type1" speedFactor="1.03" vaporized="end"/>
    <tripinfo id="f_0_2.18" depart="148.00" departLane="np2_nt2_0" departPos="22.81" departSpeed="0.00" departDelay="0.72" arrival="-1.00" arrivalLane="" arrivalPos="-1.00" arrivalSpeed="-1.00" duration="3452.00" routeLength="168.76" waitingTime="3394.00" waitingCount="7" stopTime="0.00" timeLoss="3439.42" rerouteNo="0" devices="tripinfo_f_0_2.18" vType="type1" speedFactor="0.96" vaporized="end"/>
    <tripinfo id="f_0_3.18" depart="208.00" departLane="np3_nt3_0" departPos="0.00" departSpeed="0.00" departDelay="60.72" arrival="-1.00" arrivalLane="" arrivalPos="-1.00" arrivalSpeed="-1.00" duration="3392.00" routeLength="854.79" waitingTime="3240.00" waitingCount="14" stopTime="0.00" timeLoss="3323.37" rerouteNo="0" devices="tripinfo_f_0_3.18" vType="type1" speedFactor="1.04" vaporized="end"/>
    <tripinfo id="f_0_0.11" depart="150.00" departLane="np13_nt13_0" departPos="43.08" departSpeed="0.00" departDelay="0.00" arrival="-1.00" arrivalLane="" arrivalPos="-1.00" arrivalSpeed="-1.00" duration="3450.00" routeLength="604.45" waitingTime="3376.00" waitingCount="4" stopTime="0.00" timeLoss="3409.18" rerouteNo="0" devices="tripinfo_f_0_0.11" vType="type1" speedFactor="0.96" vaporized="end"/>
    <tripinfo id="f_0_1.11" depart="150.00" departLane="np16_nt1_0" departPos="42.73" departSpeed="0.00" departDelay="0.00" arrival="-1.00" arrivalLane="" arrivalPos="-1.00" arrivalSpeed="-1.00" duration="3450.00" routeLength="314.72" waitingTime="3400.00" waitingCount="5" stopTime="0.00" timeLoss="3433.41" rerouteNo="0" devices="tripinfo_f_0_1.11" vType="type1" speedFactor="1.01" vaporized="end"/>
    <tripinfo id="f_0_2.19" depart="156.00" departLane="np2_nt2_0" departPos="21.35" departSpeed="0.00" departDelay="0.54" arrival="-1.00" arrivalLane="" arrivalPos="-1.00" arrivalSpeed="-1.00" duration="3444.00" routeLength="157.72" waitingTime="3393.00" waitingCount="6" stopTime="0.00" timeLoss="3429.66" rerouteNo="0" devices="tripinfo_f_0_2.19" vType="type1" speedFactor="0.78" vaporized="end"/>
    <tripinfo id="f_0_3.19" depart="219.00" departLane="np3_nt3_0" departPos="0.00" departSpeed="0.00" departDelay="63.54" arrival="-1.00" arrivalLane="" arrivalPos="-1.00" arrivalSpeed="-1.00" duration="3381.00" routeLength="847.29" waitingTime="3209.00" waitingCount="13" stopTime="0.00" timeLoss="3290.37" rerouteNo="0" devices="tripinfo_f_0_3.19" vType="type1" speedFactor="0.78" vaporized="end"/>
    <tripinfo id="f_0_0.12" depart="164.00" departLane="np13_nt13_0" departPos="3.37" departSpeed="0.00" departDelay="0.37" arrival="-1.00" arrivalLane="" arrivalPos="-1.00" arrivalSpeed="-1.00" duration="3436.00" routeLength="636.65" waitingTime="3367.00" waitingCount="3" stopTime="0.00" timeLoss="3396.56" rerouteNo="0" devices="tripinfo_f_0_0.12" vType="type1" speedFactor="1.03" vaporized="end"/>
    <tripinfo id="f_0_1.12" depart="164.00" departLane="np16_nt1_0" departPos="23.53" departSpeed="0.00" departDelay="0.37" arrival="-1.00" arrivalLane="" arrivalPos="-1.00" arrivalSpeed="-1.00" duration="3436.00" routeLength="326.42" waitingTime="3386.00" waitingCount="5" stopTime="0.00" timeLoss="3417.53" rerouteNo="0" devices="tripinfo_f_0_1.12" vType="type1" speedFactor="0.93" vaporized="end"/>
    <tripinfo id="f_0_2.20" depart="164.00" departLane="np2_nt2_0" departPos="30.76" departSpeed="0.00" departDelay="0.36" arrival="-1.00" arrivalLane="" arrivalPos="-1.00" arrivalSpeed="-1.00" duration="3436.00" routeLength="140.73" waitingTime="3389.00" waitingCount="5" stopTime="0.00" timeLoss="3426.44" rerouteNo="0" devices="tripinfo_f_0_2.20" vType="type1" speedFactor="1.04" vaporized="end"/>
    <tripinfo id="f_0_3.20" depart="244.00" departLane="np3_nt3_0" departPos="0.00" departSpeed="0.00" departDelay="80.36" arrival="-1.00" arrivalLane="" arrivalPos="-1.00" arrivalSpeed="-1.00" duration="3356.00" routeLength="839.79" waitingTime="3197.00" waitingCount="11" stopTime="0.00" timeLoss="3279.91" rerouteNo="0" devices="tripinfo_f_0_3.20" vType="type1" speedFactor="0.92" vaporized="end"/>
    <tripinfo id="f_0_2.21" depart="172.00" departLane="np2_nt2_0" departPos="18.98" departSpeed="0.00" departDelay="0.18" arrival="-1.00" arrivalLane="" arrivalPos="-1.00" arrivalSpeed="-1.00" duration="3428.00" routeLength="144.91" waitingTime="3380.00" waitingCount="5" stopTime="0.00" timeLoss="3418.66" rerouteNo="0" devices="tripinfo_f_0_2.21" vType="type1" speedFactor="1.14" vaporized="end"/>
    <tripinfo id="f_0_3.21" depart="277.00" departLane="np3_nt3_0" departPos="0.00" departSpeed="0.00" departDelay="105.18" arrival="-1.00" arrivalLane="" arrivalPos="-1.00" arrivalSpeed="-1.00" duration="3323.00" routeLength="832.28" waitingTime="3168.00" waitingCount="12" stopTime="0.00" timeLoss="3256.92" rerouteNo="0" devices="tripinfo_f_0_3.21" vType="type1" speedFactor="1.06" vaporized="end"/>
    <tripinfo id="f_0_0.13" depart="178.00" departLane="np13_nt13_0" departPos="4.30" departSpeed="0.00" departDelay="0.73" arrival="-1.00" arrivalLane="" arrivalPos="-1.00" arrivalSpeed="-1.00" duration="3422.00" routeLength="628.23" waitingTime="3354.00" waitingCount="6" stopTime="0.00" timeLoss="3382.26" rerouteNo="0" devices="tripinfo_f_0_0.13" vType="type1" speedFactor="0.99" vaporized="end"/>