<?xml version="1.0" encoding="UTF-8"?>

<!-- generated on 2023-08-30 12:20:40 by Eclipse SUMO libsumo Version 1.18.0
<configuration xmlns:xsi="http://www.w3.org/2001/XMLSchema-instance" xsi:noNamespaceSchemaLocation="http://sumo.dlr.de/xsd/libsumoConfiguration.xsd">

    <input>
        <net-file value="/home/stefan/RESCO/./environments/arterial4x4/arterial4x4.net.xml"/>
        <route-files value="/home/stefan/RESCO/./environments/arterial4x4/arterial4x4_7.rou.xml"/>
    </input>

    <output>
        <tripinfo-output value="/home/stefan/results/ITRPO-tr0-arterial4x4-0-drq_norm-wait_norm/tripinfo_7.xml"/>
        <tripinfo-output.write-unfinished value="true"/>
    </output>

    <processing>
        <time-to-teleport value="-1"/>
    </processing>

    <report>
        <no-warnings value="True"/>
        <no-step-log value="True"/>
    </report>

    <random_number>
        <random value="true"/>
    </random_number>

</configuration>
-->

<tripinfos xmlns:xsi="http://www.w3.org/2001/XMLSchema-instance" xsi:noNamespaceSchemaLocation="http://sumo.dlr.de/xsd/tripinfo_file.xsd">
    <tripinfo id="f_0_3.0" depart="0.00" departLane="np3_nt3_0" departPos="55.55" departSpeed="0.00" departDelay="0.00" arrival="120.00" arrivalLane="nt14_np11_0" arrivalPos="75.00" arrivalSpeed="12.18" duration="120.00" routeLength="895.54" waitingTime="40.00" waitingCount="5" stopTime="0.00" timeLoss="61.57" rerouteNo="0" devices="tripinfo_f_0_3.0" vType="type1" speedFactor="1.28" vaporized=""/>
    <tripinfo id="f_0_2.0" depart="0.00" departLane="np2_nt2_0" departPos="22.52" departSpeed="0.00" departDelay="0.00" arrival="168.00" arrivalLane="nt15_np10_0" arrivalPos="75.00" arrivalSpeed="9.44" duration="168.00" routeLength="928.56" waitingTime="59.00" waitingCount="3" stopTime="0.00" timeLoss="82.60" rerouteNo="0" devices="tripinfo_f_0_2.0" vType="type1" speedFactor="0.91" vaporized=""/>
    <tripinfo id="f_0_3.1" depart="9.00" departLane="np3_nt3_0" departPos="47.93" departSpeed="0.00" departDelay="0.82" arrival="187.00" arrivalLane="nt14_np11_0" arrivalPos="75.00" arrivalSpeed="10.09" duration="178.00" routeLength="903.16" waitingTime="78.00" waitingCount="5" stopTime="0.00" timeLoss="97.69" rerouteNo="0" devices="tripinfo_f_0_3.1" vType="type1" speedFactor="0.93" vaporized=""/>
    <tripinfo id="f_0_0.0" depart="0.00" departLane="np13_nt13_0" departPos="51.22" departSpeed="0.00" departDelay="0.00" arrival="188.00" arrivalLane="nt4_np5_0" arrivalPos="75.00" arrivalSpeed="20.99" duration="188.00" routeLength="1296.67" waitingTime="72.00" waitingCount="5" stopTime="0.00" timeLoss="104.10" rerouteNo="0" devices="tripinfo_f_0_0.0" vType="type1" speedFactor="1.09" vaporized=""/>
    <tripinfo id="f_0_0.1" depart="14.00" departLane="np13_nt13_0" departPos="37.18" departSpeed="0.00" departDelay="0.36" arrival="190.00" arrivalLane="nt4_np5_0" arrivalPos="75.00" arrivalSpeed="19.46" duration="176.00" routeLength="1310.71" waitingTime="56.00" waitingCount="5" stopTime="0.00" timeLoss="87.76" rerouteNo="0" devices="tripinfo_f_0_0.1" vType="type1" speedFactor="1.03" vaporized=""/>
    <tripinfo id="f_0_3.2" depart="17.00" departLane="np3_nt3_0" departPos="15.82" departSpeed="0.00" departDelay="0.64" arrival="190.00" arrivalLane="nt14_np11_0" arrivalPos="75.00" arrivalSpeed="8.51" duration="173.00" routeLength="935.27" waitingTime="67.00" waitingCount="3" stopTime="0.00" timeLoss="90.67" rerouteNo="0" devices="tripinfo_f_0_3.2" vType="type1" speedFactor="0.96" vaporized=""/>
    <tripinfo id="f_0_0.2" depart="28.00" departLane="np13_nt13_0" departPos="0.00" departSpeed="0.00" departDelay="0.73" arrival="198.00" arrivalLane="nt4_np5_0" arrivalPos="75.00" arrivalSpeed="18.80" duration="170.00" routeLength="1347.89" waitingTime="36.00" waitingCount="6" stopTime="0.00" timeLoss="77.61" rerouteNo="0" devices="tripinfo_f_0_0.2" vType="type1" speedFactor="1.01" vaporized=""/>
    <tripinfo id="f_0_1.0" depart="0.00" departLane="np16_nt1_0" departPos="17.86" departSpeed="0.00" departDelay="0.00" arrival="203.00" arrivalLane="nt16_np8_0" arrivalPos="75.00" arrivalSpeed="17.86" duration="203.00" routeLength="1330.02" waitingTime="71.00" waitingCount="5" stopTime="0.00" timeLoss="106.99" rerouteNo="0" devices="tripinfo_f_0_1.0" vType="type1" speedFactor="0.96" vaporized=""/>
    <tripinfo id="f_0_3.3" depart="25.00" departLane="np3_nt3_0" departPos="36.61" departSpeed="0.00" departDelay="0.45" arrival="207.00" arrivalLane="nt14_np11_0" arrivalPos="75.00" arrivalSpeed="8.86" duration="182.00" routeLength="914.48" waitingTime="74.00" waitingCount="5" stopTime="0.00" timeLoss="103.50" rerouteNo="0" devices="tripinfo_f_0_3.3" vType="type1" speedFactor="0.98" vaporized=""/>
    <tripinfo id="f_0_3.4" depart="33.00" departLane="np3_nt3_0" departPos="9.82" departSpeed="0.00" departDelay="0.27" arrival="209.00" arrivalLane="nt14_np11_0" arrivalPos="75.00" arrivalSpeed="10.28" duration="176.00" routeLength="941.27" waitingTime="60.00" waitingCount="5" stopTime="0.00" timeLoss="104.86" rerouteNo="0" devices="tripinfo_f_0_3.4" vType="type1" speedFactor="1.11" vaporized=""/>
    <tripinfo id="f_0_3.5" depart="41.00" departLane="np3_nt3_0" departPos="15.83" departSpeed="0.00" departDelay="0.09" arrival="213.00" arrivalLane="nt14_np11_0" arrivalPos="75.00" arrivalSpeed="6.62" duration="172.00" routeLength="935.26" waitingTime="43.00" waitingCount="7" stopTime="0.00" timeLoss="76.00" rerouteNo="0" devices="tripinfo_f_0_3.5" vType="type1" speedFactor="0.82" vaporized=""/>
    <tripinfo id="f_0_2.1" depart="9.00" departLane="np2_nt2_0" departPos="20.18" departSpeed="0.00" departDelay="0.82" arrival="237.00" arrivalLane="nt15_np10_0" arrivalPos="75.00" arrivalSpeed="10.59" duration="228.00" routeLength="930.90" waitingTime="114.00" waitingCount="5" stopTime="0.00" timeLoss="155.22" rerouteNo="0" devices="tripinfo_f_0_2.1" vType="type1" speedFactor="1.08" vaporized=""/>
    <tripinfo id="f_0_2.2" depart="17.00" departLane="np2_nt2_0" departPos="48.26" departSpeed="0.00" departDelay="0.64" arrival="252.00" arrivalLane="nt15_np10_0" arrivalPos="75.00" arrivalSpeed="8.82" duration="235.00" routeLength="902.82" waitingTime="116.00" waitingCount="6" stopTime="0.00" timeLoss="157.71" rerouteNo="0" devices="tripinfo_f_0_2.2" vType="type1" speedFactor="0.98" vaporized=""/>
    <tripinfo id="f_0_2.3" depart="25.00" departLane="np2_nt2_0" departPos="3.85" departSpeed="0.00" departDelay="0.45" arrival="255.00" arrivalLane="nt15_np10_0" arrivalPos="75.00" arrivalSpeed="9.41" duration="230.00" routeLength="947.23" waitingTime="111.00" waitingCount="7" stopTime="0.00" timeLoss="142.50" rerouteNo="0" devices="tripinfo_f_0_2.3" vType="type1" speedFactor="0.91" vaporized=""/>
    <tripinfo id="f_0_2.4" depart="33.00" departLane="np2_nt2_0" departPos="39.21" departSpeed="0.00" departDelay="0.27" arrival="263.00" arrivalLane="nt15_np10_0" arrivalPos="75.00" arrivalSpeed="8.60" duration="230.00" routeLength="911.87" waitingTime="105.00" waitingCount="8" stopTime="0.00" timeLoss="146.01" rerouteNo="0" devices="tripinfo_f_0_2.4" vType="type1" speedFactor="0.92" vaporized=""/>
    <tripinfo id="f_0_2.5" depart="41.00" departLane="np2_nt2_0" departPos="30.01" departSpeed="0.00" departDelay="0.09" arrival="265.00" arrivalLane="nt15_np10_0" arrivalPos="75.00" arrivalSpeed="11.43" duration="224.00" routeLength="921.07" waitingTime="99.00" waitingCount="10" stopTime="0.00" timeLoss="152.01" rerouteNo="0" devices="tripinfo_f_0_2.5" vType="type1" speedFactor="1.07" vaporized=""/>
    <tripinfo id="f_0_2.6" depart="50.00" departLane="np2_nt2_0" departPos="25.30" departSpeed="0.00" departDelay="0.91" arrival="272.00" arrivalLane="nt15_np10_0" arrivalPos="75.00" arrivalSpeed="9.49" duration="222.00" routeLength="925.78" waitingTime="96.00" waitingCount="9" stopTime="0.00" timeLoss="144.45" rerouteNo="0" devices="tripinfo_f_0_2.6" vType="type1" speedFactor="1.00" vaporized=""/>
    <tripinfo id="f_0_2.7" depart="58.00" departLane="np2_nt2_0" departPos="30.50" departSpeed="0.00" departDelay="0.73" arrival="303.00" arrivalLane="nt15_np10_0" arrivalPos="75.00" arrivalSpeed="9.05" duration="245.00" routeLength="920.58" waitingTime="125.00" waitingCount="4" stopTime="0.00" timeLoss="162.55" rerouteNo="0" devices="tripinfo_f_0_2.7" vType="type1" speedFactor="0.94" vaporized=""/>
    <tripinfo id="f_0_2.8" depart="66.00" departLane="np2_nt2_0" departPos="58.98" departSpeed="0.00" departDelay="0.54" arrival="305.00" arrivalLane="nt15_np10_0" arrivalPos="75.00" arrivalSpeed="9.24" duration="239.00" routeLength="892.10" waitingTime="126.00" waitingCount="4" stopTime="0.00" timeLoss="166.11" rerouteNo="0" devices="tripinfo_f_0_2.8" vType="type1" speedFactor="1.03" vaporized=""/>
    <tripinfo id="f_0_2.9" depart="74.00" departLane="np2_nt2_0" departPos="13.89" departSpeed="0.00" departDelay="0.36" arrival="325.00" arrivalLane="nt15_np10_0" arrivalPos="75.00" arrivalSpeed="8.40" duration="251.00" routeLength="937.19" waitingTime="112.00" waitingCount="8" stopTime="0.00" timeLoss="154.09" rerouteNo="0" devices="tripinfo_f_0_2.9" vType="type1" speedFactor="0.81" vaporized=""/>
    <tripinfo id="f_0_2.10" depart="82.00" departLane="np2_nt2_0" departPos="44.69" departSpeed="0.00" departDelay="0.18" arrival="327.00" arrivalLane="nt15_np10_0" arrivalPos="75.00" arrivalSpeed="10.52" duration="245.00" routeLength="906.39" waitingTime="109.00" waitingCount="9" stopTime="0.00" timeLoss="167.97" rerouteNo="0" devices="tripinfo_f_0_2.10" vType="type1" speedFactor="0.99" vaporized=""/>
    <tripinfo id="f_0_3.6" depart="50.00" departLane="np3_nt3_0" departPos="0.84" departSpeed="0.00" departDelay="0.91" arrival="337.00" arrivalLane="nt14_np11_0" arrivalPos="75.00" arrivalSpeed="9.56" duration="287.00" routeLength="950.25" waitingTime="159.00" waitingCount="6" stopTime="0.00" timeLoss="206.84" rerouteNo="0" devices="tripinfo_f_0_3.6" vType="type1" speedFactor="0.99" vaporized=""/>
    <tripinfo id="f_0_3.7" depart="58.00" departLane="np3_nt3_0" departPos="17.86" departSpeed="0.00" departDelay="0.73" arrival="348.00" arrivalLane="nt14_np11_0" arrivalPos="75.00" arrivalSpeed="8.36" duration="290.00" routeLength="933.23" waitingTime="165.00" waitingCount="9" stopTime="0.00" timeLoss="198.53" rerouteNo="0" devices="tripinfo_f_0_3.7" vType="type1" speedFactor="0.85" vaporized=""/>
    <tripinfo id="f_0_3.8" depart="66.00" departLane="np3_nt3_0" departPos="33.65" departSpeed="0.00" departDelay="0.54" arrival="350.00" arrivalLane="nt14_np11_0" arrivalPos="75.00" arrivalSpeed="9.01" duration="284.00" routeLength="917.44" waitingTime="159.00" waitingCount="8" stopTime="0.00" timeLoss="203.69" rerouteNo="0" devices="tripinfo_f_0_3.8" vType="type1" speedFactor="0.95" vaporized=""/>
    <tripinfo id="f_0_0.3" depart="41.00" departLane="np13_nt13_0" departPos="37.87" departSpeed="0.00" departDelay="0.09" arrival="398.00" arrivalLane="nt4_np5_0" arrivalPos="75.00" arrivalSpeed="20.18" duration="357.00" routeLength="1310.02" waitingTime="220.00" waitingCount="6" stopTime="0.00" timeLoss="268.24" rerouteNo="0" devices="tripinfo_f_0_0.3" vType="type1" speedFactor="1.03" vaporized=""/>
    <tripinfo id="f_0_3.9" depart="74.00" departLane="np3_nt3_0" departPos="5.54" departSpeed="0.00" departDelay="0.36" arrival="403.00" arrivalLane="nt14_np11_0" arrivalPos="75.00" arrivalSpeed="9.07" duration="329.00" routeLength="945.55" waitingTime="198.00" waitingCount="8" stopTime="0.00" timeLoss="247.56" rerouteNo="0" devices="tripinfo_f_0_3.9" vType="type1" speedFactor="0.98" vaporized=""/>
    <tripinfo id="f_0_0.4" depart="55.00" departLane="np13_nt13_0" departPos="48.69" departSpeed="0.00" departDelay="0.46" arrival="418.00" arrivalLane="nt4_np5_0" arrivalPos="75.00" arrivalSpeed="18.34" duration="363.00" routeLength="1299.20" waitingTime="228.00" waitingCount="9" stopTime="0.00" timeLoss="269.31" rerouteNo="0" devices="tripinfo_f_0_0.4" vType="type1" speedFactor="0.97" vaporized=""/>
    <tripinfo id="f_0_0.5" depart="69.00" departLane="np13_nt13_0" departPos="14.39" departSpeed="0.00" departDelay="0.82" arrival="420.00" arrivalLane="nt4_np5_0" arrivalPos="75.00" arrivalSpeed="19.94" duration="351.00" routeLength="1333.50" waitingTime="212.00" waitingCount="8" stopTime="0.00" timeLoss="265.37" rerouteNo="0" devices="tripinfo_f_0_0.5" vType="type1" speedFactor="1.09" vaporized=""/>
    <tripinfo id="f_0_3.10" depart="82.00" departLane="np3_nt3_0" departPos="15.38" departSpeed="0.00" departDelay="0.18" arrival="441.00" arrivalLane="nt14_np11_0" arrivalPos="75.00" arrivalSpeed="11.48" duration="359.00" routeLength="935.71" waitingTime="251.00" waitingCount="6" stopTime="0.00" timeLoss="290.74" rerouteNo="0" devices="tripinfo_f_0_3.10" vType="type1" speedFactor="1.16" vaporized=""/>
    <tripinfo id="f_0_3.11" depart="90.00" departLane="np3_nt3_0" departPos="18.62" departSpeed="0.00" departDelay="0.00" arrival="497.00" arrivalLane="nt14_np11_0" arrivalPos="75.00" arrivalSpeed="10.06" duration="407.00" routeLength="932.47" waitingTime="280.00" waitingCount="9" stopTime="0.00" timeLoss="331.68" rerouteNo="0" devices="tripinfo_f_0_3.11" vType="type1" speedFactor="1.04" vaporized=""/>
    <tripinfo id="f_0_3.12" depart="99.00" departLane="np3_nt3_0" departPos="15.13" departSpeed="0.00" departDelay="0.82" arrival="539.00" arrivalLane="nt14_np11_0" arrivalPos="75.00" arrivalSpeed="8.38" duration="440.00" routeLength="935.96" waitingTime="290.00" waitingCount="9" stopTime="0.00" timeLoss="341.67" rerouteNo="0" devices="tripinfo_f_0_3.12" vType="type1" speedFactor="0.79" vaporized=""/>
    <tripinfo id="f_0_3.13" depart="107.00" departLane="np3_nt3_0" departPos="1.59" departSpeed="0.00" departDelay="0.63" arrival="541.00" arrivalLane="nt14_np11_0" arrivalPos="75.00" arrivalSpeed="10.76" duration="434.00" routeLength="949.50" waitingTime="281.00" waitingCount="9" stopTime="0.00" timeLoss="353.01" rerouteNo="0" devices="tripinfo_f_0_3.13" vType="type1" speedFactor="0.99" vaporized=""/>
    <tripinfo id="f_0_3.14" depart="115.00" departLane="np3_nt3_0" departPos="6.91" departSpeed="0.00" departDelay="0.45" arrival="587.00" arrivalLane="nt14_np11_0" arrivalPos="75.00" arrivalSpeed="9.54" duration="472.00" routeLength="944.18" waitingTime="322.00" waitingCount="13" stopTime="0.00" timeLoss="393.20" rerouteNo="0" devices="tripinfo_f_0_3.14" vType="type1" speedFactor="1.00" vaporized=""/>
    <tripinfo id="f_0_3.15" depart="123.00" departLane="np3_nt3_0" departPos="17.04" departSpeed="0.00" departDelay="0.27" arrival="602.00" arrivalLane="nt14_np11_0" arrivalPos="75.00" arrivalSpeed="9.96" duration="479.00" routeLength="934.05" waitingTime="329.00" waitingCount="16" stopTime="0.00" timeLoss="405.81" rerouteNo="0" devices="tripinfo_f_0_3.15" vType="type1" speedFactor="1.07" vaporized=""/>
    <tripinfo id="f_0_3.16" depart="131.00" departLane="np3_nt3_0" departPos="16.62" departSpeed="0.00" departDelay="0.09" arrival="604.00" arrivalLane="nt14_np11_0" arrivalPos="75.00" arrivalSpeed="10.96" duration="473.00" routeLength="934.47" waitingTime="315.00" waitingCount="15" stopTime="0.00" timeLoss="404.71" rerouteNo="0" devices="tripinfo_f_0_3.16" vType="type1" speedFactor="1.15" vaporized=""/>
    <tripinfo id="f_0_3.17" depart="140.00" departLane="np3_nt3_0" departPos="7.23" departSpeed="0.00" departDelay="0.91" arrival="606.00" arrivalLane="nt14_np11_0" arrivalPos="75.00" arrivalSpeed="8.59" duration="466.00" routeLength="943.86" waitingTime="298.00" waitingCount="14" stopTime="0.00" timeLoss="384.89" rerouteNo="0" devices="tripinfo_f_0_3.17" vType="type1" speedFactor="0.98" vaporized=""/>
    <tripinfo id="f_0_3.18" depart="148.00" departLane="np3_nt3_0" departPos="6.15" departSpeed="0.00" departDelay="0.72" arrival="609.00" arrivalLane="nt14_np11_0" arrivalPos="75.00" arrivalSpeed="9.13" duration="461.00" routeLength="944.94" waitingTime="289.00" waitingCount="14" stopTime="0.00" timeLoss="376.75" rerouteNo="0" devices="tripinfo_f_0_3.18" vType="type1" speedFactor="0.95" vaporized=""/>
    <tripinfo id="f_0_3.19" depart="156.00" departLane="np3_nt3_0" departPos="0.00" departSpeed="0.00" departDelay="0.54" arrival="617.00" arrivalLane="nt14_np11_0" arrivalPos="75.00" arrivalSpeed="10.87" duration="461.00" routeLength="951.09" waitingTime="290.00" waitingCount="13" stopTime="0.00" timeLoss="384.66" rerouteNo="0" devices="tripinfo_f_0_3.19" vType="type1" speedFactor="1.05" vaporized=""/>
    <tripinfo id="f_0_3.20" depart="164.00" departLane="np3_nt3_0" departPos="4.58" departSpeed="0.00" departDelay="0.36" arrival="619.00" arrivalLane="nt14_np11_0" arrivalPos="75.00" arrivalSpeed="9.92" duration="455.00" routeLength="946.51" waitingTime="278.00" waitingCount="12" stopTime="0.00" timeLoss="368.69" rerouteNo="0" devices="tripinfo_f_0_3.20" vType="type1" speedFactor="0.92" vaporized=""/>
    <tripinfo id="f_0_3.21" depart="172.00" departLane="np3_nt3_0" departPos="9.05" departSpeed="0.00" departDelay="0.18" arrival="632.00" arrivalLane="nt14_np11_0" arrivalPos="75.00" arrivalSpeed="10.50" duration="460.00" routeLength="942.04" waitingTime="291.00" waitingCount="13" stopTime="0.00" timeLoss="382.81" rerouteNo="0" devices="tripinfo_f_0_3.21" vType="type1" speedFactor="1.02" vaporized=""/>
    <tripinfo id="f_0_3.22" depart="180.00" departLane="np3_nt3_0" departPos="5.64" departSpeed="0.00" departDelay="0.00" arrival="647.00" arrivalLane="nt14_np11_0" arrivalPos="75.00" arrivalSpeed="10.14" duration="467.00" routeLength="945.45" waitingTime="292.00" waitingCount="15" stopTime="0.00" timeLoss="389.07" rerouteNo="0" devices="tripinfo_f_0_3.22" vType="type1" speedFactor="1.02" vaporized=""/>
    <tripinfo id="f_0_3.23" depart="189.00" departLane="np3_nt3_0" departPos="9.20" departSpeed="0.00" departDelay="0.81" arrival="651.00" arrivalLane="nt14_np11_0" arrivalPos="75.00" arrivalSpeed="8.87" duration="462.00" routeLength="941.89" waitingTime="291.00" waitingCount="10" stopTime="0.00" timeLoss="367.38" rerouteNo="0" devices="tripinfo_f_0_3.23" vType="type1" speedFactor="0.83" vaporized=""/>
    <tripinfo id="f_0_3.24" depart="197.00" departLane="np3_nt3_0" departPos="0.00" departSpeed="0.00" departDelay="0.63" arrival="656.00" arrivalLane="nt14_np11_0" arrivalPos="75.00" arrivalSpeed="11.69" duration="459.00" routeLength="951.09" waitingTime="292.00" waitingCount="13" stopTime="0.00" timeLoss="384.74" rerouteNo="0" devices="tripinfo_f_0_3.24" vType="type1" speedFactor="1.08" vaporized=""/>
    <tripinfo id="f_0_3.25" depart="238.00" departLane="np3_nt3_0" departPos="0.00" departSpeed="0.00" departDelay="33.45" arrival="660.00" arrivalLane="nt14_np11_0" arrivalPos="75.00" arrivalSpeed="8.45" duration="422.00" routeLength="951.09" waitingTime="243.00" waitingCount="11" stopTime="0.00" timeLoss="338.27" rerouteNo="0" devices="tripinfo_f_0_3.25" vType="type1" speedFactor="0.96" vaporized=""/>
    <tripinfo id="f_0_3.26" depart="373.00" departLane="np3_nt3_0" departPos="0.00" departSpeed="0.00" departDelay="160.27" arrival="662.00" arrivalLane="nt14_np11_0" arrivalPos="75.00" arrivalSpeed="11.35" duration="289.00" routeLength="951.09" waitingTime="109.00" waitingCount="9" stopTime="0.00" timeLoss="212.84" rerouteNo="0" devices="tripinfo_f_0_3.26" vType="type1" speedFactor="1.06" vaporized=""/>
    <tripinfo id="f_0_3.27" depart="392.00" departLane="np3_nt3_0" departPos="1.42" departSpeed="0.00" departDelay="171.09" arrival="664.00" arrivalLane="nt14_np11_0" arrivalPos="75.00" arrivalSpeed="10.15" duration="272.00" routeLength="949.67" waitingTime="95.00" waitingCount="7" stopTime="0.00" timeLoss="189.20" rerouteNo="0" devices="tripinfo_f_0_3.27" vType="type1" speedFactor="0.97" vaporized=""/>
    <tripinfo id="f_0_3.28" depart="395.00" departLane="np3_nt3_0" departPos="2.99" departSpeed="0.00" departDelay="165.90" arrival="686.00" arrivalLane="nt14_np11_0" arrivalPos="75.00" arrivalSpeed="11.02" duration="291.00" routeLength="948.10" waitingTime="123.00" waitingCount="12" stopTime="0.00" timeLoss="215.25" rerouteNo="0" devices="tripinfo_f_0_3.28" vType="type1" speedFactor="1.05" vaporized=""/>
    <tripinfo id="f_0_3.29" depart="397.00" departLane="np3_nt3_0" departPos="0.00" departSpeed="0.00" departDelay="159.72" arrival="689.00" arrivalLane="nt14_np11_0" arrivalPos="75.00" arrivalSpeed="11.23" duration="292.00" routeLength="951.09" waitingTime="113.00" waitingCount="10" stopTime="0.00" timeLoss="214.04" rerouteNo="0" devices="tripinfo_f_0_3.29" vType="type1" speedFactor="1.02" vaporized=""/>
    <tripinfo id="f_0_3.30" depart="400.00" departLane="np3_nt3_0" departPos="0.36" departSpeed="0.00" departDelay="154.54" arrival="693.00" arrivalLane="nt14_np11_0" arrivalPos="75.00" arrivalSpeed="9.67" duration="293.00" routeLength="950.73" waitingTime="100.00" waitingCount="11" stopTime="0.00" timeLoss="203.45" rerouteNo="0" devices="tripinfo_f_0_3.30" vType="type1" speedFactor="0.90" vaporized=""/>
    <tripinfo id="f_0_3.31" depart="403.00" departLane="np3_nt3_0" departPos="0.00" departSpeed="0.00" departDelay="149.36" arrival="694.00" arrivalLane="nt14_np11_0" arrivalPos="75.00" arrivalSpeed="11.00" duration="291.00" routeLength="951.09" waitingTime="99.00" waitingCount="10" stopTime="0.00" timeLoss="212.02" rerouteNo="0" devices="tripinfo_f_0_3.31" vType="type1" speedFactor="1.01" vaporized=""/>
    <tripinfo id="f_0_3.32" depart="406.00" departLane="np3_nt3_0" departPos="0.00" departSpeed="0.00" departDelay="144.18" arrival="727.00" arrivalLane="nt14_np11_0" arrivalPos="75.00" arrivalSpeed="9.61" duration="321.00" routeLength="951.09" waitingTime="124.00" waitingCount="9" stopTime="0.00" timeLoss="246.72" rerouteNo="0" devices="tripinfo_f_0_3.32" vType="type1" speedFactor="1.08" vaporized=""/>
    <tripinfo id="f_0_3.33" depart="409.00" departLane="np3_nt3_0" departPos="0.75" departSpeed="0.00" departDelay="138.99" arrival="741.00" arrivalLane="nt14_np11_0" arrivalPos="75.00" arrivalSpeed="5.88" duration="332.00" routeLength="950.34" waitingTime="119.00" waitingCount="12" stopTime="0.00" timeLoss="225.97" rerouteNo="0" devices="tripinfo_f_0_3.33" vType="type1" speedFactor="0.75" vaporized=""/>
    <tripinfo id="f_0_3.34" depart="411.00" departLane="np3_nt3_0" departPos="0.00" departSpeed="0.00" departDelay="132.81" arrival="743.00" arrivalLane="nt14_np11_0" arrivalPos="75.00" arrivalSpeed="9.79" duration="332.00" routeLength="951.09" waitingTime="107.00" waitingCount="11" stopTime="0.00" timeLoss="246.66" rerouteNo="0" devices="tripinfo_f_0_3.34" vType="type1" speedFactor="0.94" vaporized=""/>
    <tripinfo id="f_0_3.35" depart="413.00" departLane="np3_nt3_0" departPos="0.00" departSpeed="0.00" departDelay="126.63" arrival="753.00" arrivalLane="nt14_np11_0" arrivalPos="75.00" arrivalSpeed="9.24" duration="340.00" routeLength="951.09" waitingTime="112.00" waitingCount="12" stopTime="0.00" timeLoss="255.23" rerouteNo="0" devices="tripinfo_f_0_3.35" vType="type1" speedFactor="0.95" vaporized=""/>
    <tripinfo id="f_0_3.36" depart="416.00" departLane="np3_nt3_0" departPos="6.41" departSpeed="0.00" departDelay="121.45" arrival="763.00" arrivalLane="nt14_np11_0" arrivalPos="75.00" arrivalSpeed="10.03" duration="347.00" routeLength="944.68" waitingTime="113.00" waitingCount="12" stopTime="0.00" timeLoss="263.27" rerouteNo="0" devices="tripinfo_f_0_3.36" vType="type1" speedFactor="0.94" vaporized=""/>
    <tripinfo id="f_1_3.0" depart="418.00" departLane="np3_nt3_0" departPos="0.00" departSpeed="0.00" departDelay="118.00" arrival="765.00" arrivalLane="nt14_np11_0" arrivalPos="75.00" arrivalSpeed="9.84" duration="347.00" routeLength="951.09" waitingTime="105.00" waitingCount="14" stopTime="0.00" timeLoss="261.68" rerouteNo="0" devices="tripinfo_f_1_3.0" vType="type1" speedFactor="0.94" vaporized=""/>
    <tripinfo id="f_1_3.1" depart="420.00" departLane="np3_nt3_0" departPos="1.02" departSpeed="0.00" departDelay="115.32" arrival="768.00" arrivalLane="nt14_np11_0" arrivalPos="75.00" arrivalSpeed="8.28" duration="348.00" routeLength="950.07" waitingTime="102.00" waitingCount="14" stopTime="0.00" timeLoss="263.20" rerouteNo="0" devices="tripinfo_f_1_3.1" vType="type1" speedFactor="0.95" vaporized=""/>
    <tripinfo id="f_1_3.2" depart="423.00" departLane="np3_nt3_0" departPos="0.00" departSpeed="0.00" departDelay="113.65" arrival="769.00" arrivalLane="nt14_np11_0" arrivalPos="75.00" arrivalSpeed="11.06" duration="346.00" routeLength="951.09" waitingTime="123.00" waitingCount="10" stopTime="0.00" timeLoss="272.43" rerouteNo="0" devices="tripinfo_f_1_3.2" vType="type1" speedFactor="1.08" vaporized=""/>
    <tripinfo id="f_1_3.15" depart="467.00" departLane="np3_nt3_0" departPos="0.00" departSpeed="0.00" departDelay="96.87" arrival="802.00" arrivalLane="nt14_np11_0" arrivalPos="75.00" arrivalSpeed="9.97" duration="335.00" routeLength="951.09" waitingTime="143.00" waitingCount="12" stopTime="0.00" timeLoss="262.61" rerouteNo="0" devices="tripinfo_f_1_3.15" vType="type1" speedFactor="1.10" vaporized=""/>
    <tripinfo id="f_1_3.3" depart="426.00" departLane="np3_nt3_0" departPos="2.34" departSpeed="0.00" departDelay="111.97" arrival="812.00" arrivalLane="nt14_np11_0" arrivalPos="75.00" arrivalSpeed="8.87" duration="386.00" routeLength="948.75" waitingTime="149.00" waitingCount="13" stopTime="0.00" timeLoss="305.49" rerouteNo="0" devices="tripinfo_f_1_3.3" vType="type1" speedFactor="0.99" vaporized=""/>
    <tripinfo id="f_1_3.4" depart="430.00" departLane="np3_nt3_0" departPos="0.07" departSpeed="0.00" departDelay="111.30" arrival="814.00" arrivalLane="nt14_np11_0" arrivalPos="75.00" arrivalSpeed="10.80" duration="384.00" routeLength="951.02" waitingTime="144.00" waitingCount="11" stopTime="0.00" timeLoss="307.47" rerouteNo="0" devices="tripinfo_f_1_3.4" vType="type1" speedFactor="1.04" vaporized=""/>
    <tripinfo id="f_1_3.18" depart="475.00" departLane="np3_nt3_0" departPos="0.00" departSpeed="0.00" departDelay="90.85" arrival="816.00" arrivalLane="nt14_np11_0" arrivalPos="75.00" arrivalSpeed="9.99" duration="341.00" routeLength="951.09" waitingTime="145.00" waitingCount="14" stopTime="0.00" timeLoss="256.04" rerouteNo="0" devices="tripinfo_f_1_3.18" vType="type1" speedFactor="0.94" vaporized=""/>
    <tripinfo id="f_1_3.5" depart="438.00" departLane="np3_nt3_0" departPos="0.00" departSpeed="0.00" departDelay="114.62" arrival="818.00" arrivalLane="nt14_np11_0" arrivalPos="75.00" arrivalSpeed="11.22" duration="380.00" routeLength="951.09" waitingTime="135.00" waitingCount="13" stopTime="0.00" timeLoss="310.40" rerouteNo="0" devices="tripinfo_f_1_3.5" vType="type1" speedFactor="1.15" vaporized=""/>
    <tripinfo id="f_1_3.20" depart="480.00" departLane="np3_nt3_0" departPos="0.00" departSpeed="0.00" departDelay="86.50" arrival="843.00" arrivalLane="nt14_np11_0" arrivalPos="75.00" arrivalSpeed="9.15" duration="363.00" routeLength="951.09" waitingTime="151.00" waitingCount="14" stopTime="0.00" timeLoss="274.47" rerouteNo="0" devices="tripinfo_f_1_3.20" vType="type1" speedFactor="0.90" vaporized=""/>
    <tripinfo id="f_1_3.6" depart="441.00" departLane="np3_nt3_0" departPos="0.00" departSpeed="0.00" departDelay="112.95" arrival="845.00" arrivalLane="nt14_np11_0" arrivalPos="75.00" arrivalSpeed="10.67" duration="404.00" routeLength="951.09" waitingTime="150.00" waitingCount="15" stopTime="0.00" timeLoss="322.56" rerouteNo="0" devices="tripinfo_f_1_3.6" vType="type1" speedFactor="0.98" vaporized=""/>
    <tripinfo id="f_1_3.22" depart="488.00" departLane="np3_nt3_0" departPos="1.88" departSpeed="0.00" departDelay="85.15" arrival="857.00" arrivalLane="nt14_np11_0" arrivalPos="75.00" arrivalSpeed="11.02" duration="369.00" routeLength="949.21" waitingTime="158.00" waitingCount="13" stopTime="0.00" timeLoss="293.16" rerouteNo="0" devices="tripinfo_f_1_3.22" vType="type1" speedFactor="1.06" vaporized=""/>
    <tripinfo id="f_1_3.7" depart="443.00" departLane="np3_nt3_0" departPos="0.12" departSpeed="0.00" departDelay="110.27" arrival="859.00" arrivalLane="nt14_np11_0" arrivalPos="75.00" arrivalSpeed="10.10" duration="416.00" routeLength="950.97" waitingTime="155.00" waitingCount="13" stopTime="0.00" timeLoss="338.81" rerouteNo="0" devices="tripinfo_f_1_3.7" vType="type1" speedFactor="1.04" vaporized=""/>
    <tripinfo id="f_1_3.23" depart="490.00" departLane="np3_nt3_0" departPos="0.00" departSpeed="0.00" departDelay="82.47" arrival="877.00" arrivalLane="nt14_np11_0" arrivalPos="75.00" arrivalSpeed="10.48" duration="387.00" routeLength="951.09" waitingTime="168.00" waitingCount="10" stopTime="0.00" timeLoss="312.91" rerouteNo="0" devices="tripinfo_f_1_3.23" vType="type1" speedFactor="1.09" vaporized=""/>
    <tripinfo id="f_1_3.24" depart="493.00" departLane="np3_nt3_0" departPos="0.31" departSpeed="0.00" departDelay="80.80" arrival="878.00" arrivalLane="nt14_np11_0" arrivalPos="75.00" arrivalSpeed="11.84" duration="385.00" routeLength="950.78" waitingTime="179.00" waitingCount="11" stopTime="0.00" timeLoss="317.73" rerouteNo="0" devices="tripinfo_f_1_3.24" vType="type1" speedFactor="1.18" vaporized=""/>
    <tripinfo id="f_1_3.9" depart="448.00" departLane="np3_nt3_0" departPos="18.12" departSpeed="0.00" departDelay="105.92" arrival="892.00" arrivalLane="nt14_np11_0" arrivalPos="75.00" arrivalSpeed="10.94" duration="444.00" routeLength="932.97" waitingTime="185.00" waitingCount="16" stopTime="0.00" timeLoss="369.76" rerouteNo="0" devices="tripinfo_f_1_3.9" vType="type1" speedFactor="1.06" vaporized=""/>
    <tripinfo id="f_1_3.14" depart="463.00" departLane="np3_nt3_0" departPos="52.47" departSpeed="0.00" departDelay="97.55" arrival="908.00" arrivalLane="nt14_np11_0" arrivalPos="75.00" arrivalSpeed="7.40" duration="445.00" routeLength="898.62" waitingTime="178.00" waitingCount="12" stopTime="0.00" timeLoss="346.63" rerouteNo="0" devices="tripinfo_f_1_3.14" vType="type1" speedFactor="0.76" vaporized=""/>