<?xml version="1.0" encoding="UTF-8"?>

<!-- generated on 2023-08-30 12:40:38 by Eclipse SUMO libsumo Version 1.18.0
<configuration xmlns:xsi="http://www.w3.org/2001/XMLSchema-instance" xsi:noNamespaceSchemaLocation="http://sumo.dlr.de/xsd/libsumoConfiguration.xsd">

    <input>
        <net-file value="/home/stefan/RESCO/./environments/arterial4x4/arterial4x4.net.xml"/>
        <route-files value="/home/stefan/RESCO/./environments/arterial4x4/arterial4x4_60.rou.xml"/>
    </input>

    <output>
        <tripinfo-output value="/home/stefan/results/ITRPO-tr0-arterial4x4-0-drq_norm-wait_norm/tripinfo_60.xml"/>
        <tripinfo-output.write-unfinished value="true"/>
    </output>

    <processing>
        <time-to-teleport value="-1"/>
    </processing>

    <report>
        <no-warnings value="True"/>
        <no-step-log value="True"/>
    </report>

    <random_number>
        <random value="true"/>
    </random_number>

</configuration>
-->

<tripinfos xmlns:xsi="http://www.w3.org/2001/XMLSchema-instance" xsi:noNamespaceSchemaLocation="http://sumo.dlr.de/xsd/tripinfo_file.xsd">
    <tripinfo id="f_0_3.0" depart="0.00" departLane="np3_nt3_0" departPos="6.11" departSpeed="0.00" departDelay="0.00" arrival="152.00" arrivalLane="nt14_np11_0" arrivalPos="75.00" arrivalSpeed="9.90" duration="152.00" routeLength="944.98" waitingTime="53.00" waitingCount="4" stopTime="0.00" timeLoss="77.19" rerouteNo="0" devices="tripinfo_f_0_3.0" vType="type1" speedFactor="1.06" vaporized=""/>
    <tripinfo id="f_0_3.1" depart="9.00" departLane="np3_nt3_0" departPos="6.43" departSpeed="0.00" departDelay="0.82" arrival="154.00" arrivalLane="nt14_np11_0" arrivalPos="75.00" arrivalSpeed="9.13" duration="145.00" routeLength="944.66" waitingTime="46.00" waitingCount="3" stopTime="0.00" timeLoss="69.50" rerouteNo="0" devices="tripinfo_f_0_3.1" vType="type1" speedFactor="1.05" vaporized=""/>
    <tripinfo id="f_0_2.0" depart="0.00" departLane="np2_nt2_0" departPos="30.35" departSpeed="0.00" departDelay="0.00" arrival="168.00" arrivalLane="nt15_np10_0" arrivalPos="75.00" arrivalSpeed="10.02" duration="168.00" routeLength="920.73" waitingTime="58.00" waitingCount="4" stopTime="0.00" timeLoss="85.88" rerouteNo="0" devices="tripinfo_f_0_2.0" vType="type1" speedFactor="0.94" vaporized=""/>
    <tripinfo id="f_0_2.1" depart="9.00" departLane="np2_nt2_0" departPos="52.02" departSpeed="0.00" departDelay="0.82" arrival="170.00" arrivalLane="nt15_np10_0" arrivalPos="75.00" arrivalSpeed="11.58" duration="161.00" routeLength="899.06" waitingTime="66.00" waitingCount="5" stopTime="0.00" timeLoss="97.03" rerouteNo="0" devices="tripinfo_f_0_2.1" vType="type1" speedFactor="1.18" vaporized=""/>
    <tripinfo id="f_0_2.2" depart="17.00" departLane="np2_nt2_0" departPos="16.27" departSpeed="0.00" departDelay="0.64" arrival="183.00" arrivalLane="nt15_np10_0" arrivalPos="75.00" arrivalSpeed="9.31" duration="166.00" routeLength="934.81" waitingTime="50.00" waitingCount="6" stopTime="0.00" timeLoss="81.09" rerouteNo="0" devices="tripinfo_f_0_2.2" vType="type1" speedFactor="0.92" vaporized=""/>
    <tripinfo id="f_0_0.0" depart="0.00" departLane="np13_nt13_0" departPos="65.07" departSpeed="0.00" departDelay="0.00" arrival="187.00" arrivalLane="nt4_np5_0" arrivalPos="75.00" arrivalSpeed="20.54" duration="187.00" routeLength="1282.82" waitingTime="72.00" waitingCount="3" stopTime="0.00" timeLoss="100.17" rerouteNo="0" devices="tripinfo_f_0_0.0" vType="type1" speedFactor="1.04" vaporized=""/>
    <tripinfo id="f_0_2.3" depart="25.00" departLane="np2_nt2_0" departPos="28.60" departSpeed="0.00" departDelay="0.45" arrival="187.00" arrivalLane="nt15_np10_0" arrivalPos="75.00" arrivalSpeed="6.91" duration="162.00" routeLength="922.48" waitingTime="34.00" waitingCount="5" stopTime="0.00" timeLoss="69.71" rerouteNo="0" devices="tripinfo_f_0_2.3" vType="type1" speedFactor="0.84" vaporized=""/>
    <tripinfo id="f_0_2.4" depart="33.00" departLane="np2_nt2_0" departPos="25.08" departSpeed="0.00" departDelay="0.27" arrival="209.00" arrivalLane="nt15_np10_0" arrivalPos="75.00" arrivalSpeed="7.40" duration="176.00" routeLength="926.00" waitingTime="45.00" waitingCount="6" stopTime="0.00" timeLoss="87.80" rerouteNo="0" devices="tripinfo_f_0_2.4" vType="type1" speedFactor="0.88" vaporized=""/>
    <tripinfo id="f_0_1.0" depart="0.00" departLane="np16_nt1_0" departPos="24.56" departSpeed="0.00" departDelay="0.00" arrival="229.00" arrivalLane="nt16_np8_0" arrivalPos="75.00" arrivalSpeed="19.50" duration="229.00" routeLength="1323.32" waitingTime="70.00" waitingCount="8" stopTime="0.00" timeLoss="135.80" rerouteNo="0" devices="tripinfo_f_0_1.0" vType="type1" speedFactor="0.99" vaporized=""/>
    <tripinfo id="f_0_3.2" depart="17.00" departLane="np3_nt3_0" departPos="45.74" departSpeed="0.00" departDelay="0.64" arrival="229.00" arrivalLane="nt14_np11_0" arrivalPos="75.00" arrivalSpeed="9.22" duration="212.00" routeLength="905.35" waitingTime="93.00" waitingCount="5" stopTime="0.00" timeLoss="121.69" rerouteNo="0" devices="tripinfo_f_0_3.2" vType="type1" speedFactor="0.84" vaporized=""/>
    <tripinfo id="f_0_3.3" depart="25.00" departLane="np3_nt3_0" departPos="14.68" departSpeed="0.00" departDelay="0.45" arrival="231.00" arrivalLane="nt14_np11_0" arrivalPos="75.00" arrivalSpeed="9.62" duration="206.00" routeLength="936.41" waitingTime="86.00" waitingCount="5" stopTime="0.00" timeLoss="124.06" rerouteNo="0" devices="tripinfo_f_0_3.3" vType="type1" speedFactor="0.97" vaporized=""/>
    <tripinfo id="f_0_2.5" depart="41.00" departLane="np2_nt2_0" departPos="35.17" departSpeed="0.00" departDelay="0.09" arrival="236.00" arrivalLane="nt15_np10_0" arrivalPos="75.00" arrivalSpeed="10.21" duration="195.00" routeLength="915.91" waitingTime="61.00" waitingCount="8" stopTime="0.00" timeLoss="126.00" rerouteNo="0" devices="tripinfo_f_0_2.5" vType="type1" speedFactor="1.11" vaporized=""/>
    <tripinfo id="f_0_0.1" depart="14.00" departLane="np13_nt13_0" departPos="19.70" departSpeed="0.00" departDelay="0.36" arrival="238.00" arrivalLane="nt4_np5_0" arrivalPos="75.00" arrivalSpeed="20.36" duration="224.00" routeLength="1328.19" waitingTime="102.00" waitingCount="5" stopTime="0.00" timeLoss="136.34" rerouteNo="0" devices="tripinfo_f_0_0.1" vType="type1" speedFactor="1.05" vaporized=""/>
    <tripinfo id="f_0_2.6" depart="50.00" departLane="np2_nt2_0" departPos="15.84" departSpeed="0.00" departDelay="0.91" arrival="239.00" arrivalLane="nt15_np10_0" arrivalPos="75.00" arrivalSpeed="10.27" duration="189.00" routeLength="935.24" waitingTime="61.00" waitingCount="7" stopTime="0.00" timeLoss="114.13" rerouteNo="0" devices="tripinfo_f_0_2.6" vType="type1" speedFactor="1.06" vaporized=""/>
    <tripinfo id="f_0_0.2" depart="28.00" departLane="np13_nt13_0" departPos="66.82" departSpeed="0.00" departDelay="0.73" arrival="249.00" arrivalLane="nt4_np5_0" arrivalPos="75.00" arrivalSpeed="21.34" duration="221.00" routeLength="1281.07" waitingTime="101.00" waitingCount="6" stopTime="0.00" timeLoss="140.62" rerouteNo="0" devices="tripinfo_f_0_0.2" vType="type1" speedFactor="1.12" vaporized=""/>
    <tripinfo id="f_0_3.4" depart="33.00" departLane="np3_nt3_0" departPos="9.34" departSpeed="0.00" departDelay="0.27" arrival="251.00" arrivalLane="nt14_np11_0" arrivalPos="75.00" arrivalSpeed="12.12" duration="218.00" routeLength="941.75" waitingTime="92.00" waitingCount="6" stopTime="0.00" timeLoss="150.47" rerouteNo="0" devices="tripinfo_f_0_3.4" vType="type1" speedFactor="1.18" vaporized=""/>
    <tripinfo id="f_0_3.5" depart="41.00" departLane="np3_nt3_0" departPos="13.45" departSpeed="0.00" departDelay="0.09" arrival="255.00" arrivalLane="nt14_np11_0" arrivalPos="75.00" arrivalSpeed="9.59" duration="214.00" routeLength="937.64" waitingTime="83.00" waitingCount="7" stopTime="0.00" timeLoss="127.95" rerouteNo="0" devices="tripinfo_f_0_3.5" vType="type1" speedFactor="0.91" vaporized=""/>
    <tripinfo id="f_0_1.1" depart="14.00" departLane="np16_nt1_0" departPos="41.01" departSpeed="0.00" departDelay="0.36" arrival="268.00" arrivalLane="nt16_np8_0" arrivalPos="75.00" arrivalSpeed="21.37" duration="254.00" routeLength="1306.87" waitingTime="106.00" waitingCount="11" stopTime="0.00" timeLoss="168.68" rerouteNo="0" devices="tripinfo_f_0_1.1" vType="type1" speedFactor="1.07" vaporized=""/>
    <tripinfo id="f_0_0.3" depart="41.00" departLane="np13_nt13_0" departPos="63.33" departSpeed="0.00" departDelay="0.09" arrival="268.00" arrivalLane="nt4_np5_0" arrivalPos="75.00" arrivalSpeed="17.90" duration="227.00" routeLength="1284.56" waitingTime="98.00" waitingCount="4" stopTime="0.00" timeLoss="131.25" rerouteNo="0" devices="tripinfo_f_0_0.3" vType="type1" speedFactor="0.94" vaporized=""/>
    <tripinfo id="f_0_1.2" depart="28.00" departLane="np16_nt1_0" departPos="64.33" departSpeed="0.00" departDelay="0.73" arrival="270.00" arrivalLane="nt16_np8_0" arrivalPos="75.00" arrivalSpeed="19.06" duration="242.00" routeLength="1283.55" waitingTime="84.00" waitingCount="8" stopTime="0.00" timeLoss="155.68" rerouteNo="0" devices="tripinfo_f_0_1.2" vType="type1" speedFactor="1.05" vaporized=""/>
    <tripinfo id="f_0_2.7" depart="58.00" departLane="np2_nt2_0" departPos="1.13" departSpeed="0.00" departDelay="0.73" arrival="271.00" arrivalLane="nt15_np10_0" arrivalPos="75.00" arrivalSpeed="10.51" duration="213.00" routeLength="949.95" waitingTime="92.00" waitingCount="7" stopTime="0.00" timeLoss="140.17" rerouteNo="0" devices="tripinfo_f_0_2.7" vType="type1" speedFactor="1.09" vaporized=""/>
    <tripinfo id="f_0_2.8" depart="66.00" departLane="np2_nt2_0" departPos="35.06" departSpeed="0.00" departDelay="0.54" arrival="275.00" arrivalLane="nt15_np10_0" arrivalPos="75.00" arrivalSpeed="10.30" duration="209.00" routeLength="916.02" waitingTime="83.00" waitingCount="6" stopTime="0.00" timeLoss="128.10" rerouteNo="0" devices="tripinfo_f_0_2.8" vType="type1" speedFactor="0.95" vaporized=""/>
    <tripinfo id="f_0_2.9" depart="74.00" departLane="np2_nt2_0" departPos="0.25" departSpeed="0.00" departDelay="0.36" arrival="282.00" arrivalLane="nt15_np10_0" arrivalPos="75.00" arrivalSpeed="9.59" duration="208.00" routeLength="950.83" waitingTime="78.00" waitingCount="6" stopTime="0.00" timeLoss="130.06" rerouteNo="0" devices="tripinfo_f_0_2.9" vType="type1" speedFactor="1.03" vaporized=""/>
    <tripinfo id="f_0_0.4" depart="55.00" departLane="np13_nt13_0" departPos="40.20" departSpeed="0.00" departDelay="0.46" arrival="284.00" arrivalLane="nt4_np5_0" arrivalPos="75.00" arrivalSpeed="15.70" duration="229.00" routeLength="1307.69" waitingTime="87.00" waitingCount="8" stopTime="0.00" timeLoss="128.03" rerouteNo="0" devices="tripinfo_f_0_0.4" vType="type1" speedFactor="0.90" vaporized=""/>
    <tripinfo id="f_0_2.10" depart="82.00" departLane="np2_nt2_0" departPos="14.18" departSpeed="0.00" departDelay="0.18" arrival="286.00" arrivalLane="nt15_np10_0" arrivalPos="75.00" arrivalSpeed="9.32" duration="204.00" routeLength="936.90" waitingTime="86.00" waitingCount="5" stopTime="0.00" timeLoss="118.26" rerouteNo="0" devices="tripinfo_f_0_2.10" vType="type1" speedFactor="0.93" vaporized=""/>
    <tripinfo id="f_0_1.3" depart="41.00" departLane="np16_nt1_0" departPos="11.08" departSpeed="0.00" departDelay="0.09" arrival="288.00" arrivalLane="nt16_np8_0" arrivalPos="75.00" arrivalSpeed="15.16" duration="247.00" routeLength="1336.80" waitingTime="78.00" waitingCount="9" stopTime="0.00" timeLoss="141.05" rerouteNo="0" devices="tripinfo_f_0_1.3" vType="type1" speedFactor="0.88" vaporized=""/>
    <tripinfo id="f_0_1.4" depart="55.00" departLane="np16_nt1_0" departPos="65.56" departSpeed="0.00" departDelay="0.46" arrival="290.00" arrivalLane="nt16_np8_0" arrivalPos="75.00" arrivalSpeed="21.02" duration="235.00" routeLength="1282.32" waitingTime="86.00" waitingCount="9" stopTime="0.00" timeLoss="148.95" rerouteNo="0" devices="tripinfo_f_0_1.4" vType="type1" speedFactor="1.05" vaporized=""/>
    <tripinfo id="f_0_0.5" depart="69.00" departLane="np13_nt13_0" departPos="55.88" departSpeed="0.00" departDelay="0.82" arrival="298.00" arrivalLane="nt4_np5_0" arrivalPos="75.00" arrivalSpeed="17.86" duration="229.00" routeLength="1292.01" waitingTime="89.00" waitingCount="7" stopTime="0.00" timeLoss="131.44" rerouteNo="0" devices="tripinfo_f_0_0.5" vType="type1" speedFactor="0.92" vaporized=""/>
    <tripinfo id="f_0_2.11" depart="90.00" departLane="np2_nt2_0" departPos="46.59" departSpeed="0.00" departDelay="0.00" arrival="298.00" arrivalLane="nt15_np10_0" arrivalPos="75.00" arrivalSpeed="9.30" duration="208.00" routeLength="904.49" waitingTime="88.00" waitingCount="5" stopTime="0.00" timeLoss="122.56" rerouteNo="0" devices="tripinfo_f_0_2.11" vType="type1" speedFactor="0.90" vaporized=""/>
    <tripinfo id="f_0_2.12" depart="99.00" departLane="np2_nt2_0" departPos="26.84" departSpeed="0.00" departDelay="0.82" arrival="299.00" arrivalLane="nt15_np10_0" arrivalPos="75.00" arrivalSpeed="13.26" duration="200.00" routeLength="924.24" waitingTime="90.00" waitingCount="8" stopTime="0.00" timeLoss="139.21" rerouteNo="0" devices="tripinfo_f_0_2.12" vType="type1" speedFactor="1.27" vaporized=""/>
    <tripinfo id="f_0_0.6" depart="82.00" departLane="np13_nt13_0" departPos="50.51" departSpeed="0.00" departDelay="0.18" arrival="300.00" arrivalLane="nt4_np5_0" arrivalPos="75.00" arrivalSpeed="18.35" duration="218.00" routeLength="1297.38" waitingTime="68.00" waitingCount="7" stopTime="0.00" timeLoss="130.12" rerouteNo="0" devices="tripinfo_f_0_0.6" vType="type1" speedFactor="1.04" vaporized=""/>
    <tripinfo id="f_0_3.6" depart="50.00" departLane="np3_nt3_0" departPos="17.90" departSpeed="0.00" departDelay="0.91" arrival="304.00" arrivalLane="nt14_np11_0" arrivalPos="75.00" arrivalSpeed="9.17" duration="254.00" routeLength="933.19" waitingTime="126.00" waitingCount="7" stopTime="0.00" timeLoss="162.36" rerouteNo="0" devices="tripinfo_f_0_3.6" vType="type1" speedFactor="0.85" vaporized=""/>
    <tripinfo id="f_0_3.7" depart="58.00" departLane="np3_nt3_0" departPos="15.56" departSpeed="0.00" departDelay="0.73" arrival="307.00" arrivalLane="nt14_np11_0" arrivalPos="75.00" arrivalSpeed="7.55" duration="249.00" routeLength="935.53" waitingTime="119.00" waitingCount="5" stopTime="0.00" timeLoss="152.58" rerouteNo="0" devices="tripinfo_f_0_3.7" vType="type1" speedFactor="0.81" vaporized=""/>
    <tripinfo id="f_0_0.7" depart="96.00" departLane="np13_nt13_0" departPos="12.21" departSpeed="0.00" departDelay="0.55" arrival="313.00" arrivalLane="nt4_np5_0" arrivalPos="75.00" arrivalSpeed="20.03" duration="217.00" routeLength="1335.68" waitingTime="95.00" waitingCount="6" stopTime="0.00" timeLoss="133.65" rerouteNo="0" devices="tripinfo_f_0_0.7" vType="type1" speedFactor="1.10" vaporized=""/>
    <tripinfo id="f_0_0.8" depart="110.00" departLane="np13_nt13_0" departPos="9.03" departSpeed="0.00" departDelay="0.91" arrival="315.00" arrivalLane="nt4_np5_0" arrivalPos="75.00" arrivalSpeed="21.80" duration="205.00" routeLength="1338.86" waitingTime="78.00" waitingCount="6" stopTime="0.00" timeLoss="127.52" rerouteNo="0" devices="tripinfo_f_0_0.8" vType="type1" speedFactor="1.19" vaporized=""/>
    <tripinfo id="f_0_3.8" depart="66.00" departLane="np3_nt3_0" departPos="27.43" departSpeed="0.00" departDelay="0.54" arrival="328.00" arrivalLane="nt14_np11_0" arrivalPos="75.00" arrivalSpeed="9.32" duration="262.00" routeLength="923.66" waitingTime="140.00" waitingCount="7" stopTime="0.00" timeLoss="182.32" rerouteNo="0" devices="tripinfo_f_0_3.8" vType="type1" speedFactor="0.97" vaporized=""/>
    <tripinfo id="f_0_1.5" depart="69.00" departLane="np16_nt1_0" departPos="55.86" departSpeed="0.00" departDelay="0.82" arrival="343.00" arrivalLane="nt16_np8_0" arrivalPos="75.00" arrivalSpeed="14.76" duration="274.00" routeLength="1292.02" waitingTime="105.00" waitingCount="10" stopTime="0.00" timeLoss="162.43" rerouteNo="0" devices="tripinfo_f_0_1.5" vType="type1" speedFactor="0.81" vaporized=""/>
    <tripinfo id="f_0_2.13" depart="107.00" departLane="np2_nt2_0" departPos="21.36" departSpeed="0.00" departDelay="0.63" arrival="343.00" arrivalLane="nt15_np10_0" arrivalPos="75.00" arrivalSpeed="11.62" duration="236.00" routeLength="929.72" waitingTime="72.00" waitingCount="9" stopTime="0.00" timeLoss="164.93" rerouteNo="0" devices="tripinfo_f_0_2.13" vType="type1" speedFactor="1.10" vaporized=""/>
    <tripinfo id="f_0_1.6" depart="82.00" departLane="np16_nt1_0" departPos="10.26" departSpeed="0.00" departDelay="0.18" arrival="345.00" arrivalLane="nt16_np8_0" arrivalPos="75.00" arrivalSpeed="19.27" duration="263.00" routeLength="1337.62" waitingTime="83.00" waitingCount="10" stopTime="0.00" timeLoss="176.65" rerouteNo="0" devices="tripinfo_f_0_1.6" vType="type1" speedFactor="1.08" vaporized=""/>
    <tripinfo id="f_0_3.9" depart="74.00" departLane="np3_nt3_0" departPos="28.83" departSpeed="0.00" departDelay="0.36" arrival="346.00" arrivalLane="nt14_np11_0" arrivalPos="75.00" arrivalSpeed="10.78" duration="272.00" routeLength="922.26" waitingTime="155.00" waitingCount="10" stopTime="0.00" timeLoss="200.28" rerouteNo="0" devices="tripinfo_f_0_3.9" vType="type1" speedFactor="1.08" vaporized=""/>
    <tripinfo id="f_0_0.9" depart="123.00" departLane="np13_nt13_0" departPos="30.47" departSpeed="0.00" departDelay="0.28" arrival="350.00" arrivalLane="nt4_np5_0" arrivalPos="75.00" arrivalSpeed="18.77" duration="227.00" routeLength="1317.42" waitingTime="93.00" waitingCount="7" stopTime="0.00" timeLoss="133.36" rerouteNo="0" devices="tripinfo_f_0_0.9" vType="type1" speedFactor="0.98" vaporized=""/>
    <tripinfo id="f_0_2.14" depart="115.00" departLane="np2_nt2_0" departPos="47.31" departSpeed="0.00" departDelay="0.45" arrival="352.00" arrivalLane="nt15_np10_0" arrivalPos="75.00" arrivalSpeed="11.32" duration="237.00" routeLength="903.77" waitingTime="84.00" waitingCount="11" stopTime="0.00" timeLoss="164.02" rerouteNo="0" devices="tripinfo_f_0_2.14" vType="type1" speedFactor="1.05" vaporized=""/>
    <tripinfo id="f_0_0.10" depart="137.00" departLane="np13_nt13_0" departPos="3.25" departSpeed="0.00" departDelay="0.64" arrival="352.00" arrivalLane="nt4_np5_0" arrivalPos="75.00" arrivalSpeed="19.95" duration="215.00" routeLength="1344.64" waitingTime="70.00" waitingCount="8" stopTime="0.00" timeLoss="123.91" rerouteNo="0" devices="tripinfo_f_0_0.10" vType="type1" speedFactor="1.03" vaporized=""/>
    <tripinfo id="f_0_2.15" depart="123.00" departLane="np2_nt2_0" departPos="36.01" departSpeed="0.00" departDelay="0.27" arrival="354.00" arrivalLane="nt15_np10_0" arrivalPos="75.00" arrivalSpeed="9.65" duration="231.00" routeLength="915.07" waitingTime="76.00" waitingCount="11" stopTime="0.00" timeLoss="156.31" rerouteNo="0" devices="tripinfo_f_0_2.15" vType="type1" speedFactor="1.02" vaporized=""/>
    <tripinfo id="f_0_0.11" depart="150.00" departLane="np13_nt13_0" departPos="11.76" departSpeed="0.00" departDelay="0.00" arrival="355.00" arrivalLane="nt4_np5_0" arrivalPos="75.00" arrivalSpeed="17.42" duration="205.00" routeLength="1336.13" waitingTime="72.00" waitingCount="6" stopTime="0.00" timeLoss="111.62" rerouteNo="0" devices="tripinfo_f_0_0.11" vType="type1" speedFactor="0.99" vaporized=""/>
    <tripinfo id="f_0_1.7" depart="96.00" departLane="np16_nt1_0" departPos="12.29" departSpeed="0.00" departDelay="0.55" arrival="358.00" arrivalLane="nt16_np8_0" arrivalPos="75.00" arrivalSpeed="22.14" duration="262.00" routeLength="1335.59" waitingTime="87.00" waitingCount="11" stopTime="0.00" timeLoss="179.02" rerouteNo="0" devices="tripinfo_f_0_1.7" vType="type1" speedFactor="1.12" vaporized=""/>
    <tripinfo id="f_0_2.16" depart="131.00" departLane="np2_nt2_0" departPos="11.73" departSpeed="0.00" departDelay="0.09" arrival="367.00" arrivalLane="nt15_np10_0" arrivalPos="75.00" arrivalSpeed="9.66" duration="236.00" routeLength="939.35" waitingTime="79.00" waitingCount="7" stopTime="0.00" timeLoss="159.59" rerouteNo="0" devices="tripinfo_f_0_2.16" vType="type1" speedFactor="1.04" vaporized=""/>
    <tripinfo id="f_0_1.8" depart="110.00" departLane="np16_nt1_0" departPos="64.21" departSpeed="0.00" departDelay="0.91" arrival="388.00" arrivalLane="nt16_np8_0" arrivalPos="75.00" arrivalSpeed="20.11" duration="278.00" routeLength="1283.67" waitingTime="94.00" waitingCount="12" stopTime="0.00" timeLoss="190.23" rerouteNo="0" devices="tripinfo_f_0_1.8" vType="type1" speedFactor="1.02" vaporized=""/>
    <tripinfo id="f_0_1.9" depart="123.00" departLane="np16_nt1_0" departPos="21.28" departSpeed="0.00" departDelay="0.28" arrival="390.00" arrivalLane="nt16_np8_0" arrivalPos="75.00" arrivalSpeed="17.20" duration="267.00" routeLength="1326.60" waitingTime="67.00" waitingCount="9" stopTime="0.00" timeLoss="168.35" rerouteNo="0" devices="tripinfo_f_0_1.9" vType="type1" speedFactor="0.93" vaporized=""/>
    <tripinfo id="f_0_0.12" depart="164.00" departLane="np13_nt13_0" departPos="13.36" departSpeed="0.00" departDelay="0.37" arrival="390.00" arrivalLane="nt4_np5_0" arrivalPos="75.00" arrivalSpeed="13.49" duration="226.00" routeLength="1334.53" waitingTime="56.00" waitingCount="7" stopTime="0.00" timeLoss="104.06" rerouteNo="0" devices="tripinfo_f_0_0.12" vType="type1" speedFactor="0.76" vaporized=""/>
    <tripinfo id="f_0_0.13" depart="178.00" departLane="np13_nt13_0" departPos="15.88" departSpeed="0.00" departDelay="0.73" arrival="391.00" arrivalLane="nt4_np5_0" arrivalPos="75.00" arrivalSpeed="18.07" duration="213.00" routeLength="1332.01" waitingTime="44.00" waitingCount="6" stopTime="0.00" timeLoss="117.90" rerouteNo="0" devices="tripinfo_f_0_0.13" vType="type1" speedFactor="0.97" vaporized=""/>
    <tripinfo id="f_0_0.14" depart="191.00" departLane="np13_nt13_0" departPos="26.15" departSpeed="0.00" departDelay="0.10" arrival="393.00" arrivalLane="nt4_np5_0" arrivalPos="75.00" arrivalSpeed="16.35" duration="202.00" routeLength="1321.74" waitingTime="40.00" waitingCount="8" stopTime="0.00" timeLoss="103.83" rerouteNo="0" devices="tripinfo_f_0_0.14" vType="type1" speedFactor="0.94" vaporized=""/>
    <tripinfo id="f_0_0.15" depart="205.00" departLane="np13_nt13_0" departPos="2.43" departSpeed="0.00" departDelay="0.46" arrival="394.00" arrivalLane="nt4_np5_0" arrivalPos="75.00" arrivalSpeed="18.37" duration="189.00" routeLength="1345.46" waitingTime="27.00" waitingCount="7" stopTime="0.00" timeLoss="98.10" rerouteNo="0" devices="tripinfo_f_0_0.15" vType="type1" speedFactor="1.02" vaporized=""/>
    <tripinfo id="f_0_3.10" depart="82.00" departLane="np3_nt3_0" departPos="22.03" departSpeed="0.00" departDelay="0.18" arrival="397.00" arrivalLane="nt14_np11_0" arrivalPos="75.00" arrivalSpeed="11.15" duration="315.00" routeLength="929.06" waitingTime="184.00" waitingCount="11" stopTime="0.00" timeLoss="239.28" rerouteNo="0" devices="tripinfo_f_0_3.10" vType="type1" speedFactor="1.03" vaporized=""/>
    <tripinfo id="f_0_3.11" depart="90.00" departLane="np3_nt3_0" departPos="16.27" departSpeed="0.00" departDelay="0.00" arrival="401.00" arrivalLane="nt14_np11_0" arrivalPos="75.00" arrivalSpeed="8.65" duration="311.00" routeLength="934.82" waitingTime="156.00" waitingCount="13" stopTime="0.00" timeLoss="218.72" rerouteNo="0" devices="tripinfo_f_0_3.11" vType="type1" speedFactor="0.85" vaporized=""/>
    <tripinfo id="f_0_0.16" depart="219.00" departLane="np13_nt13_0" departPos="66.03" departSpeed="0.00" departDelay="0.82" arrival="403.00" arrivalLane="nt4_np5_0" arrivalPos="75.00" arrivalSpeed="21.10" duration="184.00" routeLength="1281.86" waitingTime="37.00" waitingCount="7" stopTime="0.00" timeLoss="104.31" rerouteNo="0" devices="tripinfo_f_0_0.16" vType="type1" speedFactor="1.12" vaporized=""/>
    <tripinfo id="f_0_3.12" depart="99.00" departLane="np3_nt3_0" departPos="9.09" departSpeed="0.00" departDelay="0.82" arrival="417.00" arrivalLane="nt14_np11_0" arrivalPos="75.00" arrivalSpeed="9.48" duration="318.00" routeLength="942.00" waitingTime="171.00" waitingCount="14" stopTime="0.00" timeLoss="241.15" rerouteNo="0" devices="tripinfo_f_0_3.12" vType="type1" speedFactor="1.02" vaporized=""/>
    <tripinfo id="f_0_0.17" depart="232.00" departLane="np13_nt13_0" departPos="67.41" departSpeed="0.00" departDelay="0.19" arrival="417.00" arrivalLane="nt4_np5_0" arrivalPos="75.00" arrivalSpeed="20.16" duration="185.00" routeLength="1280.48" waitingTime="52.00" waitingCount="6" stopTime="0.00" timeLoss="96.42" rerouteNo="0" devices="tripinfo_f_0_0.17" vType="type1" speedFactor="1.02" vaporized=""/>
    <tripinfo id="f_0_0.18" depart="246.00" departLane="np13_nt13_0" departPos="65.62" departSpeed="0.00" departDelay="0.55" arrival="420.00" arrivalLane="nt4_np5_0" arrivalPos="75.00" arrivalSpeed="15.89" duration="174.00" routeLength="1282.27" waitingTime="45.00" waitingCount="4" stopTime="0.00" timeLoss="73.44" rerouteNo="0" devices="tripinfo_f_0_0.18" vType="type1" speedFactor="0.90" vaporized=""/>
    <tripinfo id="f_0_2.17" depart="140.00" departLane="np2_nt2_0" departPos="58.10" departSpeed="0.00" departDelay="0.91" arrival="422.00" arrivalLane="nt15_np10_0" arrivalPos="75.00" arrivalSpeed="9.67" duration="282.00" routeLength="892.98" waitingTime="107.00" waitingCount="11" stopTime="0.00" timeLoss="211.06" rerouteNo="0" devices="tripinfo_f_0_2.17" vType="type1" speedFactor="1.05" vaporized=""/>
    <tripinfo id="f_0_2.18" depart="148.00" departLane="np2_nt2_0" departPos="13.71" departSpeed="0.00" departDelay="0.72" arrival="433.00" arrivalLane="nt15_np10_0" arrivalPos="75.00" arrivalSpeed="10.75" duration="285.00" routeLength="937.37" waitingTime="104.00" waitingCount="12" stopTime="0.00" timeLoss="214.11" rerouteNo="0" devices="tripinfo_f_0_2.18" vType="type1" speedFactor="1.12" vaporized=""/>
    <tripinfo id="f_0_1.10" depart="137.00" departLane="np16_nt1_0" departPos="43.88" departSpeed="0.00" departDelay="0.64" arrival="434.00" arrivalLane="nt16_np8_0" arrivalPos="75.00" arrivalSpeed="20.30" duration="297.00" routeLength="1304.00" waitingTime="114.00" waitingCount="12" stopTime="0.00" timeLoss="209.67" rerouteNo="0" devices="tripinfo_f_0_1.10" vType="type1" speedFactor="1.04" vaporized=""/>
    <tripinfo id="f_0_2.19" depart="156.00" departLane="np2_nt2_0" departPos="44.52" departSpeed="0.00" departDelay="0.54" arrival="437.00" arrivalLane="nt15_np10_0" arrivalPos="75.00" arrivalSpeed="8.26" duration="281.00" routeLength="906.56" waitingTime="115.00" waitingCount="12" stopTime="0.00" timeLoss="202.89" rerouteNo="0" devices="tripinfo_f_0_2.19" vType="type1" speedFactor="0.98" vaporized=""/>
    <tripinfo id="f_0_1.11" depart="150.00" departLane="np16_nt1_0" departPos="40.15" departSpeed="0.00" departDelay="0.00" arrival="442.00" arrivalLane="nt16_np8_0" arrivalPos="75.00" arrivalSpeed="16.28" duration="292.00" routeLength="1307.73" waitingTime="95.00" waitingCount="11" stopTime="0.00" timeLoss="188.76" rerouteNo="0" devices="tripinfo_f_0_1.11" vType="type1" speedFactor="0.89" vaporized=""/>
    <tripinfo id="f_0_0.19" depart="260.00" departLane="np13_nt13_0" departPos="66.13" departSpeed="0.00" departDelay="0.92" arrival="458.00" arrivalLane="nt4_np5_0" arrivalPos="75.00" arrivalSpeed="17.28" duration="198.00" routeLength="1281.76" waitingTime="63.00" waitingCount="7" stopTime="0.00" timeLoss="102.29" rerouteNo="0" devices="tripinfo_f_0_0.19" vType="type1" speedFactor="0.94" vaporized=""/>
    <tripinfo id="f_0_0.20" depart="273.00" departLane="np13_nt13_0" departPos="56.76" departSpeed="0.00" departDelay="0.28" arrival="484.00" arrivalLane="nt4_np5_0" arrivalPos="75.00" arrivalSpeed="18.30" duration="211.00" routeLength="1291.13" waitingTime="76.00" waitingCount="6" stopTime="0.00" timeLoss="112.63" rerouteNo="0" devices="tripinfo_f_0_0.20" vType="type1" speedFactor="0.92" vaporized=""/>
    <tripinfo id="f_0_3.13" depart="107.00" departLane="np3_nt3_0" departPos="2.04" departSpeed="0.00" departDelay="0.63" arrival="496.00" arrivalLane="nt14_np11_0" arrivalPos="75.00" arrivalSpeed="11.34" duration="389.00" routeLength="949.05" waitingTime="237.00" waitingCount="15" stopTime="0.00" timeLoss="322.01" rerouteNo="0" devices="tripinfo_f_0_3.13" vType="type1" speedFactor="1.18" vaporized=""/>
    <tripinfo id="f_0_3.14" depart="115.00" departLane="np3_nt3_0" departPos="0.00" departSpeed="0.00" departDelay="0.45" arrival="500.00" arrivalLane="nt14_np11_0" arrivalPos="75.00" arrivalSpeed="8.95" duration="385.00" routeLength="951.09" waitingTime="223.00" waitingCount="15" stopTime="0.00" timeLoss="299.40" rerouteNo="0" devices="tripinfo_f_0_3.14" vType="type1" speedFactor="0.93" vaporized=""/>
    <tripinfo id="f_0_3.15" depart="133.00" departLane="np3_nt3_0" departPos="0.00" departSpeed="0.00" departDelay="10.27" arrival="503.00" arrivalLane="nt14_np11_0" arrivalPos="75.00" arrivalSpeed="9.88" duration="370.00" routeLength="951.09" waitingTime="215.00" waitingCount="13" stopTime="0.00" timeLoss="283.16" rerouteNo="0" devices="tripinfo_f_0_3.15" vType="type1" speedFactor="0.93" vaporized=""/>
    <tripinfo id="f_0_0.21" depart="287.00" departLane="np13_nt13_0" departPos="31.75" departSpeed="0.00" departDelay="0.64" arrival="503.00" arrivalLane="nt4_np5_0" arrivalPos="75.00" arrivalSpeed="18.40" duration="216.00" routeLength="1316.14" waitingTime="79.00" waitingCount="6" stopTime="0.00" timeLoss="117.75" rerouteNo="0" devices="tripinfo_f_0_0.21" vType="type1" speedFactor="0.93" vaporized=""/>
    <tripinfo id="f_0_3.16" depart="143.00" departLane="np3_nt3_0" departPos="0.00" departSpeed="0.00" departDelay="12.09" arrival="504.00" arrivalLane="nt14_np11_0" arrivalPos="75.00" arrivalSpeed="9.38" duration="361.00" routeLength="951.09" waitingTime="204.00" waitingCount="12" stopTime="0.00" timeLoss="277.81" rerouteNo="0" devices="tripinfo_f_0_3.16" vType="type1" speedFactor="0.96" vaporized=""/>