<?xml version="1.0" encoding="UTF-8"?>

<!-- generated on 2023-08-30 12:27:36 by Eclipse SUMO libsumo Version 1.18.0
<configuration xmlns:xsi="http://www.w3.org/2001/XMLSchema-instance" xsi:noNamespaceSchemaLocation="http://sumo.dlr.de/xsd/libsumoConfiguration.xsd">

    <input>
        <net-file value="/home/stefan/RESCO/./environments/arterial4x4/arterial4x4.net.xml"/>
        <route-files value="/home/stefan/RESCO/./environments/arterial4x4/arterial4x4_25.rou.xml"/>
    </input>

    <output>
        <tripinfo-output value="/home/stefan/results/ITRPO-tr0-arterial4x4-0-drq_norm-wait_norm/tripinfo_25.xml"/>
        <tripinfo-output.write-unfinished value="true"/>
    </output>

    <processing>
        <time-to-teleport value="-1"/>
    </processing>

    <report>
        <no-warnings value="True"/>
        <no-step-log value="True"/>
    </report>

    <random_number>
        <random value="true"/>
    </random_number>

</configuration>
-->

<tripinfos xmlns:xsi="http://www.w3.org/2001/XMLSchema-instance" xsi:noNamespaceSchemaLocation="http://sumo.dlr.de/xsd/tripinfo_file.xsd">
    <tripinfo id="f_0_2.0" depart="0.00" departLane="np2_nt2_0" departPos="19.64" departSpeed="0.00" departDelay="0.00" arrival="153.00" arrivalLane="nt15_np10_0" arrivalPos="75.00" arrivalSpeed="9.14" duration="153.00" routeLength="931.44" waitingTime="53.00" waitingCount="3" stopTime="0.00" timeLoss="71.17" rerouteNo="0" devices="tripinfo_f_0_2.0" vType="type1" speedFactor="0.96" vaporized=""/>
    <tripinfo id="f_0_3.0" depart="0.00" departLane="np3_nt3_0" departPos="9.16" departSpeed="0.00" departDelay="0.00" arrival="156.00" arrivalLane="nt14_np11_0" arrivalPos="75.00" arrivalSpeed="11.50" duration="156.00" routeLength="941.93" waitingTime="64.00" waitingCount="4" stopTime="0.00" timeLoss="82.54" rerouteNo="0" devices="tripinfo_f_0_3.0" vType="type1" speedFactor="1.07" vaporized=""/>
    <tripinfo id="f_0_2.1" depart="9.00" departLane="np2_nt2_0" departPos="56.69" departSpeed="0.00" departDelay="0.82" arrival="159.00" arrivalLane="nt15_np10_0" arrivalPos="75.00" arrivalSpeed="8.36" duration="150.00" routeLength="894.39" waitingTime="46.00" waitingCount="4" stopTime="0.00" timeLoss="71.03" rerouteNo="0" devices="tripinfo_f_0_2.1" vType="type1" speedFactor="0.94" vaporized=""/>
    <tripinfo id="f_0_3.1" depart="9.00" departLane="np3_nt3_0" departPos="7.96" departSpeed="0.00" departDelay="0.82" arrival="167.00" arrivalLane="nt14_np11_0" arrivalPos="75.00" arrivalSpeed="10.11" duration="158.00" routeLength="943.13" waitingTime="50.00" waitingCount="5" stopTime="0.00" timeLoss="78.72" rerouteNo="0" devices="tripinfo_f_0_3.1" vType="type1" speedFactor="1.00" vaporized=""/>
    <tripinfo id="f_0_3.2" depart="17.00" departLane="np3_nt3_0" departPos="4.56" departSpeed="0.00" departDelay="0.64" arrival="169.00" arrivalLane="nt14_np11_0" arrivalPos="75.00" arrivalSpeed="8.82" duration="152.00" routeLength="946.53" waitingTime="44.00" waitingCount="5" stopTime="0.00" timeLoss="71.21" rerouteNo="0" devices="tripinfo_f_0_3.2" vType="type1" speedFactor="0.98" vaporized=""/>
    <tripinfo id="f_0_3.3" depart="25.00" departLane="np3_nt3_0" departPos="51.96" departSpeed="0.00" departDelay="0.45" arrival="176.00" arrivalLane="nt14_np11_0" arrivalPos="75.00" arrivalSpeed="12.13" duration="151.00" routeLength="899.13" waitingTime="49.00" waitingCount="8" stopTime="0.00" timeLoss="85.20" rerouteNo="0" devices="tripinfo_f_0_3.3" vType="type1" speedFactor="1.15" vaporized=""/>
    <tripinfo id="f_0_2.2" depart="17.00" departLane="np2_nt2_0" departPos="56.27" departSpeed="0.00" departDelay="0.64" arrival="186.00" arrivalLane="nt15_np10_0" arrivalPos="75.00" arrivalSpeed="10.86" duration="169.00" routeLength="894.81" waitingTime="66.00" waitingCount="5" stopTime="0.00" timeLoss="97.98" rerouteNo="0" devices="tripinfo_f_0_2.2" vType="type1" speedFactor="1.05" vaporized=""/>
    <tripinfo id="f_0_0.0" depart="0.00" departLane="np13_nt13_0" departPos="28.58" departSpeed="0.00" departDelay="0.00" arrival="188.00" arrivalLane="nt4_np5_0" arrivalPos="75.00" arrivalSpeed="17.33" duration="188.00" routeLength="1319.31" waitingTime="65.00" waitingCount="4" stopTime="0.00" timeLoss="93.95" rerouteNo="0" devices="tripinfo_f_0_0.0" vType="type1" speedFactor="0.98" vaporized=""/>
    <tripinfo id="f_0_0.1" depart="14.00" departLane="np13_nt13_0" departPos="20.09" departSpeed="0.00" departDelay="0.36" arrival="190.00" arrivalLane="nt4_np5_0" arrivalPos="75.00" arrivalSpeed="19.29" duration="176.00" routeLength="1327.80" waitingTime="46.00" waitingCount="5" stopTime="0.00" timeLoss="80.68" rerouteNo="0" devices="tripinfo_f_0_0.1" vType="type1" speedFactor="0.97" vaporized=""/>
    <tripinfo id="f_0_2.3" depart="25.00" departLane="np2_nt2_0" departPos="25.37" departSpeed="0.00" departDelay="0.45" arrival="214.00" arrivalLane="nt15_np10_0" arrivalPos="75.00" arrivalSpeed="8.15" duration="189.00" routeLength="925.71" waitingTime="69.00" waitingCount="5" stopTime="0.00" timeLoss="99.22" rerouteNo="0" devices="tripinfo_f_0_2.3" vType="type1" speedFactor="0.87" vaporized=""/>
    <tripinfo id="f_0_2.4" depart="33.00" departLane="np2_nt2_0" departPos="52.10" departSpeed="0.00" departDelay="0.27" arrival="236.00" arrivalLane="nt15_np10_0" arrivalPos="75.00" arrivalSpeed="11.08" duration="203.00" routeLength="898.98" waitingTime="90.00" waitingCount="9" stopTime="0.00" timeLoss="134.88" rerouteNo="0" devices="tripinfo_f_0_2.4" vType="type1" speedFactor="1.10" vaporized=""/>
    <tripinfo id="f_0_3.4" depart="33.00" departLane="np3_nt3_0" departPos="35.58" departSpeed="0.00" departDelay="0.27" arrival="249.00" arrivalLane="nt14_np11_0" arrivalPos="75.00" arrivalSpeed="7.70" duration="216.00" routeLength="915.51" waitingTime="93.00" waitingCount="4" stopTime="0.00" timeLoss="123.46" rerouteNo="0" devices="tripinfo_f_0_3.4" vType="type1" speedFactor="0.83" vaporized=""/>
    <tripinfo id="f_0_3.5" depart="41.00" departLane="np3_nt3_0" departPos="3.46" departSpeed="0.00" departDelay="0.09" arrival="263.00" arrivalLane="nt14_np11_0" arrivalPos="75.00" arrivalSpeed="10.79" duration="222.00" routeLength="947.63" waitingTime="105.00" waitingCount="8" stopTime="0.00" timeLoss="142.83" rerouteNo="0" devices="tripinfo_f_0_3.5" vType="type1" speedFactor="1.01" vaporized=""/>
    <tripinfo id="f_0_0.2" depart="28.00" departLane="np13_nt13_0" departPos="31.06" departSpeed="0.00" departDelay="0.73" arrival="268.00" arrivalLane="nt4_np5_0" arrivalPos="75.00" arrivalSpeed="20.74" duration="240.00" routeLength="1316.83" waitingTime="120.00" waitingCount="7" stopTime="0.00" timeLoss="160.77" rerouteNo="0" devices="tripinfo_f_0_0.2" vType="type1" speedFactor="1.15" vaporized=""/>
    <tripinfo id="f_0_0.3" depart="41.00" departLane="np13_nt13_0" departPos="25.16" departSpeed="0.00" departDelay="0.09" arrival="270.00" arrivalLane="nt4_np5_0" arrivalPos="75.00" arrivalSpeed="16.74" duration="229.00" routeLength="1322.73" waitingTime="87.00" waitingCount="6" stopTime="0.00" timeLoss="133.21" rerouteNo="0" devices="tripinfo_f_0_0.3" vType="type1" speedFactor="0.96" vaporized=""/>
    <tripinfo id="f_0_0.4" depart="55.00" departLane="np13_nt13_0" departPos="16.39" departSpeed="0.00" departDelay="0.46" arrival="271.00" arrivalLane="nt4_np5_0" arrivalPos="75.00" arrivalSpeed="21.22" duration="216.00" routeLength="1331.50" waitingTime="84.00" waitingCount="4" stopTime="0.00" timeLoss="130.64" rerouteNo="0" devices="tripinfo_f_0_0.4" vType="type1" speedFactor="1.08" vaporized=""/>
    <tripinfo id="f_0_1.0" depart="0.00" departLane="np16_nt1_0" departPos="9.58" departSpeed="0.00" departDelay="0.00" arrival="273.00" arrivalLane="nt16_np8_0" arrivalPos="75.00" arrivalSpeed="17.12" duration="273.00" routeLength="1338.30" waitingTime="123.00" waitingCount="10" stopTime="0.00" timeLoss="175.98" rerouteNo="0" devices="tripinfo_f_0_1.0" vType="type1" speedFactor="0.96" vaporized=""/>
    <tripinfo id="f_0_1.1" depart="14.00" departLane="np16_nt1_0" departPos="1.54" departSpeed="0.00" departDelay="0.36" arrival="275.00" arrivalLane="nt16_np8_0" arrivalPos="75.00" arrivalSpeed="20.33" duration="261.00" routeLength="1346.34" waitingTime="116.00" waitingCount="8" stopTime="0.00" timeLoss="173.37" rerouteNo="0" devices="tripinfo_f_0_1.1" vType="type1" speedFactor="1.06" vaporized=""/>
    <tripinfo id="f_0_0.5" depart="69.00" departLane="np13_nt13_0" departPos="3.76" departSpeed="0.00" departDelay="0.82" arrival="283.00" arrivalLane="nt4_np5_0" arrivalPos="75.00" arrivalSpeed="20.35" duration="214.00" routeLength="1344.13" waitingTime="92.00" waitingCount="5" stopTime="0.00" timeLoss="130.68" rerouteNo="0" devices="tripinfo_f_0_0.5" vType="type1" speedFactor="1.12" vaporized=""/>
    <tripinfo id="f_0_1.2" depart="28.00" departLane="np16_nt1_0" departPos="14.04" departSpeed="0.00" departDelay="0.73" arrival="284.00" arrivalLane="nt16_np8_0" arrivalPos="75.00" arrivalSpeed="21.71" duration="256.00" routeLength="1333.84" waitingTime="130.00" waitingCount="8" stopTime="0.00" timeLoss="171.26" rerouteNo="0" devices="tripinfo_f_0_1.2" vType="type1" speedFactor="1.09" vaporized=""/>
    <tripinfo id="f_0_3.6" depart="50.00" departLane="np3_nt3_0" departPos="17.63" departSpeed="0.00" departDelay="0.91" arrival="317.00" arrivalLane="nt14_np11_0" arrivalPos="75.00" arrivalSpeed="10.76" duration="267.00" routeLength="933.46" waitingTime="148.00" waitingCount="7" stopTime="0.00" timeLoss="191.78" rerouteNo="0" devices="tripinfo_f_0_3.6" vType="type1" speedFactor="1.05" vaporized=""/>
    <tripinfo id="f_0_3.7" depart="58.00" departLane="np3_nt3_0" departPos="17.04" departSpeed="0.00" departDelay="0.73" arrival="319.00" arrivalLane="nt14_np11_0" arrivalPos="75.00" arrivalSpeed="10.72" duration="261.00" routeLength="934.05" waitingTime="152.00" waitingCount="8" stopTime="0.00" timeLoss="188.92" rerouteNo="0" devices="tripinfo_f_0_3.7" vType="type1" speedFactor="1.09" vaporized=""/>
    <tripinfo id="f_0_3.8" depart="66.00" departLane="np3_nt3_0" departPos="0.97" departSpeed="0.00" departDelay="0.54" arrival="343.00" arrivalLane="nt14_np11_0" arrivalPos="75.00" arrivalSpeed="9.35" duration="277.00" routeLength="950.12" waitingTime="146.00" waitingCount="9" stopTime="0.00" timeLoss="193.10" rerouteNo="0" devices="tripinfo_f_0_3.8" vType="type1" speedFactor="0.96" vaporized=""/>
    <tripinfo id="f_0_3.9" depart="74.00" departLane="np3_nt3_0" departPos="20.20" departSpeed="0.00" departDelay="0.36" arrival="373.00" arrivalLane="nt14_np11_0" arrivalPos="75.00" arrivalSpeed="8.19" duration="299.00" routeLength="930.89" waitingTime="178.00" waitingCount="8" stopTime="0.00" timeLoss="218.00" rerouteNo="0" devices="tripinfo_f_0_3.9" vType="type1" speedFactor="0.97" vaporized=""/>
    <tripinfo id="f_0_3.10" depart="82.00" departLane="np3_nt3_0" departPos="8.45" departSpeed="0.00" departDelay="0.18" arrival="374.00" arrivalLane="nt14_np11_0" arrivalPos="75.00" arrivalSpeed="11.80" duration="292.00" routeLength="942.64" waitingTime="168.00" waitingCount="10" stopTime="0.00" timeLoss="225.46" rerouteNo="0" devices="tripinfo_f_0_3.10" vType="type1" speedFactor="1.18" vaporized=""/>
    <tripinfo id="f_0_3.11" depart="90.00" departLane="np3_nt3_0" departPos="1.80" departSpeed="0.00" departDelay="0.00" arrival="417.00" arrivalLane="nt14_np11_0" arrivalPos="75.00" arrivalSpeed="11.24" duration="327.00" routeLength="949.29" waitingTime="187.00" waitingCount="12" stopTime="0.00" timeLoss="253.04" rerouteNo="0" devices="tripinfo_f_0_3.11" vType="type1" speedFactor="1.09" vaporized=""/>
    <tripinfo id="f_0_3.12" depart="99.00" departLane="np3_nt3_0" departPos="0.00" departSpeed="0.00" departDelay="0.82" arrival="432.00" arrivalLane="nt14_np11_0" arrivalPos="75.00" arrivalSpeed="11.48" duration="333.00" routeLength="951.09" waitingTime="194.00" waitingCount="12" stopTime="0.00" timeLoss="256.62" rerouteNo="0" devices="tripinfo_f_0_3.12" vType="type1" speedFactor="1.05" vaporized=""/>
    <tripinfo id="f_0_3.13" depart="123.00" departLane="np3_nt3_0" departPos="0.81" departSpeed="0.00" departDelay="16.63" arrival="452.00" arrivalLane="nt14_np11_0" arrivalPos="75.00" arrivalSpeed="8.85" duration="329.00" routeLength="950.28" waitingTime="189.00" waitingCount="10" stopTime="0.00" timeLoss="250.98" rerouteNo="0" devices="tripinfo_f_0_3.13" vType="type1" speedFactor="1.02" vaporized=""/>
    <tripinfo id="f_0_3.14" depart="134.00" departLane="np3_nt3_0" departPos="1.33" departSpeed="0.00" departDelay="19.45" arrival="461.00" arrivalLane="nt14_np11_0" arrivalPos="75.00" arrivalSpeed="9.95" duration="327.00" routeLength="949.76" waitingTime="186.00" waitingCount="11" stopTime="0.00" timeLoss="254.73" rerouteNo="0" devices="tripinfo_f_0_3.14" vType="type1" speedFactor="1.10" vaporized=""/>
    <tripinfo id="f_0_3.15" depart="163.00" departLane="np3_nt3_0" departPos="0.00" departSpeed="0.00" departDelay="40.27" arrival="464.00" arrivalLane="nt14_np11_0" arrivalPos="75.00" arrivalSpeed="9.60" duration="301.00" routeLength="951.09" waitingTime="162.00" waitingCount="8" stopTime="0.00" timeLoss="221.47" rerouteNo="0" devices="tripinfo_f_0_3.15" vType="type1" speedFactor="1.01" vaporized=""/>
    <tripinfo id="f_0_3.16" depart="172.00" departLane="np3_nt3_0" departPos="0.00" departSpeed="0.00" departDelay="41.09" arrival="486.00" arrivalLane="nt14_np11_0" arrivalPos="75.00" arrivalSpeed="9.21" duration="314.00" routeLength="951.09" waitingTime="184.00" waitingCount="10" stopTime="0.00" timeLoss="237.92" rerouteNo="0" devices="tripinfo_f_0_3.16" vType="type1" speedFactor="1.06" vaporized=""/>
    <tripinfo id="f_0_3.17" depart="175.00" departLane="np3_nt3_0" departPos="0.00" departSpeed="0.00" departDelay="35.91" arrival="503.00" arrivalLane="nt14_np11_0" arrivalPos="75.00" arrivalSpeed="9.07" duration="328.00" routeLength="951.09" waitingTime="169.00" waitingCount="12" stopTime="0.00" timeLoss="238.03" rerouteNo="0" devices="tripinfo_f_0_3.17" vType="type1" speedFactor="0.89" vaporized=""/>
    <tripinfo id="f_0_3.18" depart="243.00" departLane="np3_nt3_0" departPos="0.55" departSpeed="0.00" departDelay="95.72" arrival="505.00" arrivalLane="nt14_np11_0" arrivalPos="75.00" arrivalSpeed="9.30" duration="262.00" routeLength="950.54" waitingTime="111.00" waitingCount="11" stopTime="0.00" timeLoss="187.24" rerouteNo="0" devices="tripinfo_f_0_3.18" vType="type1" speedFactor="1.07" vaporized=""/>
    <tripinfo id="f_0_3.25" depart="357.00" departLane="np3_nt3_0" departPos="63.34" departSpeed="0.00" departDelay="152.45" arrival="516.00" arrivalLane="nt14_np11_0" arrivalPos="75.00" arrivalSpeed="10.36" duration="159.00" routeLength="887.75" waitingTime="43.00" waitingCount="7" stopTime="0.00" timeLoss="94.94" rerouteNo="0" devices="tripinfo_f_0_3.25" vType="type1" speedFactor="1.16" vaporized=""/>
    <tripinfo id="f_0_3.19" depart="253.00" departLane="np3_nt3_0" departPos="0.00" departSpeed="0.00" departDelay="97.54" arrival="532.00" arrivalLane="nt14_np11_0" arrivalPos="75.00" arrivalSpeed="9.82" duration="279.00" routeLength="951.09" waitingTime="119.00" waitingCount="11" stopTime="0.00" timeLoss="198.94" rerouteNo="0" devices="tripinfo_f_0_3.19" vType="type1" speedFactor="1.00" vaporized=""/>
    <tripinfo id="f_0_3.20" depart="263.00" departLane="np3_nt3_0" departPos="0.00" departSpeed="0.00" departDelay="99.36" arrival="588.00" arrivalLane="nt14_np11_0" arrivalPos="75.00" arrivalSpeed="9.63" duration="325.00" routeLength="951.09" waitingTime="177.00" waitingCount="12" stopTime="0.00" timeLoss="240.44" rerouteNo="0" devices="tripinfo_f_0_3.20" vType="type1" speedFactor="0.95" vaporized=""/>
    <tripinfo id="f_0_3.21" depart="278.00" departLane="np3_nt3_0" departPos="0.00" departSpeed="0.00" departDelay="106.18" arrival="590.00" arrivalLane="nt14_np11_0" arrivalPos="75.00" arrivalSpeed="9.98" duration="312.00" routeLength="951.09" waitingTime="160.00" waitingCount="12" stopTime="0.00" timeLoss="234.24" rerouteNo="0" devices="tripinfo_f_0_3.21" vType="type1" speedFactor="1.03" vaporized=""/>
    <tripinfo id="f_0_3.22" depart="322.00" departLane="np3_nt3_0" departPos="0.00" departSpeed="0.00" departDelay="142.00" arrival="604.00" arrivalLane="nt14_np11_0" arrivalPos="75.00" arrivalSpeed="7.91" duration="282.00" routeLength="951.09" waitingTime="115.00" waitingCount="12" stopTime="0.00" timeLoss="189.68" rerouteNo="0" devices="tripinfo_f_0_3.22" vType="type1" speedFactor="0.86" vaporized=""/>
    <tripinfo id="f_0_3.23" depart="325.00" departLane="np3_nt3_0" departPos="0.00" departSpeed="0.00" departDelay="136.81" arrival="606.00" arrivalLane="nt14_np11_0" arrivalPos="75.00" arrivalSpeed="9.55" duration="281.00" routeLength="951.09" waitingTime="117.00" waitingCount="12" stopTime="0.00" timeLoss="192.79" rerouteNo="0" devices="tripinfo_f_0_3.23" vType="type1" speedFactor="0.91" vaporized=""/>
    <tripinfo id="f_0_3.24" depart="333.00" departLane="np3_nt3_0" departPos="0.00" departSpeed="0.00" departDelay="136.63" arrival="663.00" arrivalLane="nt14_np11_0" arrivalPos="75.00" arrivalSpeed="8.03" duration="330.00" routeLength="951.09" waitingTime="170.00" waitingCount="12" stopTime="0.00" timeLoss="244.61" rerouteNo="0" devices="tripinfo_f_0_3.24" vType="type1" speedFactor="0.94" vaporized=""/>
    <tripinfo id="f_0_3.26" depart="361.00" departLane="np3_nt3_0" departPos="0.00" departSpeed="0.00" departDelay="148.27" arrival="666.00" arrivalLane="nt14_np11_0" arrivalPos="75.00" arrivalSpeed="8.33" duration="305.00" routeLength="951.09" waitingTime="136.00" waitingCount="11" stopTime="0.00" timeLoss="210.66" rerouteNo="0" devices="tripinfo_f_0_3.26" vType="type1" speedFactor="0.85" vaporized=""/>
    <tripinfo id="f_0_3.27" depart="365.00" departLane="np3_nt3_0" departPos="0.00" departSpeed="0.00" departDelay="144.09" arrival="682.00" arrivalLane="nt14_np11_0" arrivalPos="75.00" arrivalSpeed="10.32" duration="317.00" routeLength="951.09" waitingTime="142.00" waitingCount="12" stopTime="0.00" timeLoss="236.30" rerouteNo="0" devices="tripinfo_f_0_3.27" vType="type1" speedFactor="0.99" vaporized=""/>
    <tripinfo id="f_0_3.28" depart="371.00" departLane="np3_nt3_0" departPos="0.00" departSpeed="0.00" departDelay="141.90" arrival="684.00" arrivalLane="nt14_np11_0" arrivalPos="75.00" arrivalSpeed="13.26" duration="313.00" routeLength="951.09" waitingTime="137.00" waitingCount="11" stopTime="0.00" timeLoss="246.81" rerouteNo="0" devices="tripinfo_f_0_3.28" vType="type1" speedFactor="1.21" vaporized=""/>
    <tripinfo id="f_0_3.29" depart="383.00" departLane="np3_nt3_0" departPos="1.23" departSpeed="0.00" departDelay="145.72" arrival="686.00" arrivalLane="nt14_np11_0" arrivalPos="75.00" arrivalSpeed="11.00" duration="303.00" routeLength="949.86" waitingTime="142.00" waitingCount="10" stopTime="0.00" timeLoss="230.34" rerouteNo="0" devices="tripinfo_f_0_3.29" vType="type1" speedFactor="1.10" vaporized=""/>
    <tripinfo id="f_0_3.30" depart="402.00" departLane="np3_nt3_0" departPos="0.00" departSpeed="0.00" departDelay="156.54" arrival="690.00" arrivalLane="nt14_np11_0" arrivalPos="75.00" arrivalSpeed="9.96" duration="288.00" routeLength="951.09" waitingTime="119.00" waitingCount="7" stopTime="0.00" timeLoss="200.22" rerouteNo="0" devices="tripinfo_f_0_3.30" vType="type1" speedFactor="0.92" vaporized=""/>
    <tripinfo id="f_0_3.31" depart="405.00" departLane="np3_nt3_0" departPos="0.00" departSpeed="0.00" departDelay="151.36" arrival="747.00" arrivalLane="nt14_np11_0" arrivalPos="75.00" arrivalSpeed="9.64" duration="342.00" routeLength="951.09" waitingTime="167.00" waitingCount="9" stopTime="0.00" timeLoss="260.71" rerouteNo="0" devices="tripinfo_f_0_3.31" vType="type1" speedFactor="0.99" vaporized=""/>
    <tripinfo id="f_0_3.32" depart="413.00" departLane="np3_nt3_0" departPos="0.00" departSpeed="0.00" departDelay="151.18" arrival="750.00" arrivalLane="nt14_np11_0" arrivalPos="75.00" arrivalSpeed="8.41" duration="337.00" routeLength="951.09" waitingTime="155.00" waitingCount="9" stopTime="0.00" timeLoss="246.72" rerouteNo="0" devices="tripinfo_f_0_3.32" vType="type1" speedFactor="0.89" vaporized=""/>
    <tripinfo id="f_0_3.33" depart="428.00" departLane="np3_nt3_0" departPos="0.00" departSpeed="0.00" departDelay="157.99" arrival="757.00" arrivalLane="nt14_np11_0" arrivalPos="75.00" arrivalSpeed="10.83" duration="329.00" routeLength="951.09" waitingTime="154.00" waitingCount="11" stopTime="0.00" timeLoss="253.93" rerouteNo="0" devices="tripinfo_f_0_3.33" vType="type1" speedFactor="1.07" vaporized=""/>
    <tripinfo id="f_0_3.34" depart="431.00" departLane="np3_nt3_0" departPos="1.52" departSpeed="0.00" departDelay="152.81" arrival="760.00" arrivalLane="nt14_np11_0" arrivalPos="75.00" arrivalSpeed="9.66" duration="329.00" routeLength="949.57" waitingTime="142.00" waitingCount="10" stopTime="0.00" timeLoss="241.88" rerouteNo="0" devices="tripinfo_f_0_3.34" vType="type1" speedFactor="0.91" vaporized=""/>
    <tripinfo id="f_0_3.35" depart="433.00" departLane="np3_nt3_0" departPos="0.00" departSpeed="0.00" departDelay="146.63" arrival="762.00" arrivalLane="nt14_np11_0" arrivalPos="75.00" arrivalSpeed="9.45" duration="329.00" routeLength="951.09" waitingTime="142.00" waitingCount="10" stopTime="0.00" timeLoss="244.51" rerouteNo="0" devices="tripinfo_f_0_3.35" vType="type1" speedFactor="0.94" vaporized=""/>
    <tripinfo id="f_0_3.36" depart="436.00" departLane="np3_nt3_0" departPos="0.00" departSpeed="0.00" departDelay="141.45" arrival="764.00" arrivalLane="nt14_np11_0" arrivalPos="75.00" arrivalSpeed="8.26" duration="328.00" routeLength="951.09" waitingTime="136.00" waitingCount="8" stopTime="0.00" timeLoss="244.48" rerouteNo="0" devices="tripinfo_f_0_3.36" vType="type1" speedFactor="0.95" vaporized=""/>
    <tripinfo id="f_1_3.0" depart="438.00" departLane="np3_nt3_0" departPos="0.00" departSpeed="0.00" departDelay="138.00" arrival="774.00" arrivalLane="nt14_np11_0" arrivalPos="75.00" arrivalSpeed="8.01" duration="336.00" routeLength="951.09" waitingTime="150.00" waitingCount="9" stopTime="0.00" timeLoss="241.43" rerouteNo="0" devices="tripinfo_f_1_3.0" vType="type1" speedFactor="0.85" vaporized=""/>
    <tripinfo id="f_1_3.1" depart="441.00" departLane="np3_nt3_0" departPos="3.57" departSpeed="0.00" departDelay="136.32" arrival="781.00" arrivalLane="nt14_np11_0" arrivalPos="75.00" arrivalSpeed="10.35" duration="340.00" routeLength="947.52" waitingTime="152.00" waitingCount="11" stopTime="0.00" timeLoss="270.16" rerouteNo="0" devices="tripinfo_f_1_3.1" vType="type1" speedFactor="1.14" vaporized=""/>
    <tripinfo id="f_1_3.2" depart="443.00" departLane="np3_nt3_0" departPos="0.00" departSpeed="0.00" departDelay="133.65" arrival="784.00" arrivalLane="nt14_np11_0" arrivalPos="75.00" arrivalSpeed="10.04" duration="341.00" routeLength="951.09" waitingTime="151.00" waitingCount="13" stopTime="0.00" timeLoss="263.97" rerouteNo="0" devices="tripinfo_f_1_3.2" vType="type1" speedFactor="1.04" vaporized=""/>
    <tripinfo id="f_1_3.3" depart="446.00" departLane="np3_nt3_0" departPos="0.00" departSpeed="0.00" departDelay="131.97" arrival="786.00" arrivalLane="nt14_np11_0" arrivalPos="75.00" arrivalSpeed="9.57" duration="340.00" routeLength="951.09" waitingTime="138.00" waitingCount="12" stopTime="0.00" timeLoss="267.29" rerouteNo="0" devices="tripinfo_f_1_3.3" vType="type1" speedFactor="1.10" vaporized=""/>
    <tripinfo id="f_1_3.6" depart="452.00" departLane="np3_nt3_0" departPos="26.63" departSpeed="0.00" departDelay="123.95" arrival="788.00" arrivalLane="nt14_np11_0" arrivalPos="75.00" arrivalSpeed="10.94" duration="336.00" routeLength="924.46" waitingTime="132.00" waitingCount="13" stopTime="0.00" timeLoss="259.00" rerouteNo="0" devices="tripinfo_f_1_3.6" vType="type1" speedFactor="1.01" vaporized=""/>
    <tripinfo id="f_1_3.5" depart="450.00" departLane="np3_nt3_0" departPos="12.92" departSpeed="0.00" departDelay="126.62" arrival="790.00" arrivalLane="nt14_np11_0" arrivalPos="75.00" arrivalSpeed="9.71" duration="340.00" routeLength="938.17" waitingTime="126.00" waitingCount="14" stopTime="0.00" timeLoss="263.98" rerouteNo="0" devices="tripinfo_f_1_3.5" vType="type1" speedFactor="1.04" vaporized=""/>
    <tripinfo id="f_1_3.4" depart="449.00" departLane="np3_nt3_0" departPos="0.02" departSpeed="0.00" departDelay="130.30" arrival="792.00" arrivalLane="nt14_np11_0" arrivalPos="75.00" arrivalSpeed="13.04" duration="343.00" routeLength="951.07" waitingTime="117.00" waitingCount="11" stopTime="0.00" timeLoss="281.77" rerouteNo="0" devices="tripinfo_f_1_3.4" vType="type1" speedFactor="1.30" vaporized=""/>
    <tripinfo id="f_1_3.7" depart="453.00" departLane="np3_nt3_0" departPos="0.00" departSpeed="0.00" departDelay="120.27" arrival="835.00" arrivalLane="nt14_np11_0" arrivalPos="75.00" arrivalSpeed="6.97" duration="382.00" routeLength="951.09" waitingTime="147.00" waitingCount="11" stopTime="0.00" timeLoss="285.63" rerouteNo="0" devices="tripinfo_f_1_3.7" vType="type1" speedFactor="0.83" vaporized=""/>
    <tripinfo id="f_1_3.8" depart="459.00" departLane="np3_nt3_0" departPos="0.00" departSpeed="0.00" departDelay="121.60" arrival="836.00" arrivalLane="nt14_np11_0" arrivalPos="75.00" arrivalSpeed="10.82" duration="377.00" routeLength="951.09" waitingTime="152.00" waitingCount="10" stopTime="0.00" timeLoss="304.98" rerouteNo="0" devices="tripinfo_f_1_3.8" vType="type1" speedFactor="1.11" vaporized=""/>
    <tripinfo id="f_1_3.9" depart="468.00" departLane="np3_nt3_0" departPos="0.00" departSpeed="0.00" departDelay="125.92" arrival="846.00" arrivalLane="nt14_np11_0" arrivalPos="75.00" arrivalSpeed="9.71" duration="378.00" routeLength="951.09" waitingTime="156.00" waitingCount="10" stopTime="0.00" timeLoss="305.74" rerouteNo="0" devices="tripinfo_f_1_3.9" vType="type1" speedFactor="1.10" vaporized=""/>
    <tripinfo id="f_1_3.10" depart="471.00" departLane="np3_nt3_0" departPos="3.14" departSpeed="0.00" departDelay="124.25" arrival="848.00" arrivalLane="nt14_np11_0" arrivalPos="75.00" arrivalSpeed="11.01" duration="377.00" routeLength="947.95" waitingTime="163.00" waitingCount="12" stopTime="0.00" timeLoss="307.08" rerouteNo="0" devices="tripinfo_f_1_3.10" vType="type1" speedFactor="1.14" vaporized=""/>
    <tripinfo id="f_1_3.14" depart="476.00" departLane="np3_nt3_0" departPos="27.11" departSpeed="0.00" departDelay="110.55" arrival="851.00" arrivalLane="nt14_np11_0" arrivalPos="75.00" arrivalSpeed="10.24" duration="375.00" routeLength="923.98" waitingTime="172.00" waitingCount="11" stopTime="0.00" timeLoss="297.16" rerouteNo="0" devices="tripinfo_f_1_3.14" vType="type1" speedFactor="1.00" vaporized=""/>
    <tripinfo id="f_1_3.19" depart="495.00" departLane="np3_nt3_0" departPos="64.50" departSpeed="0.00" departDelay="106.17" arrival="853.00" arrivalLane="nt14_np11_0" arrivalPos="75.00" arrivalSpeed="10.92" duration="358.00" routeLength="886.59" waitingTime="166.00" waitingCount="10" stopTime="0.00" timeLoss="289.20" rerouteNo="0" devices="tripinfo_f_1_3.19" vType="type1" speedFactor="1.08" vaporized=""/>
    <tripinfo id="f_1_3.13" depart="475.00" departLane="np3_nt3_0" departPos="17.49" departSpeed="0.00" departDelay="114.22" arrival="909.00" arrivalLane="nt14_np11_0" arrivalPos="75.00" arrivalSpeed="10.35" duration="434.00" routeLength="933.60" waitingTime="233.00" waitingCount="12" stopTime="0.00" timeLoss="352.74" rerouteNo="0" devices="tripinfo_f_1_3.13" vType="type1" speedFactor="0.97" vaporized=""/>
    <tripinfo id="f_1_3.12" depart="474.00" departLane="np3_nt3_0" departPos="8.94" departSpeed="0.00" departDelay="117.90" arrival="917.00" arrivalLane="nt14_np11_0" arrivalPos="75.00" arrivalSpeed="10.38" duration="443.00" routeLength="942.15" waitingTime="227.00" waitingCount="12" stopTime="0.00" timeLoss="366.21" rerouteNo="0" devices="tripinfo_f_1_3.12" vType="type1" speedFactor="1.03" vaporized=""/>
    <tripinfo id="f_1_3.20" depart="502.00" departLane="np3_nt3_0" departPos="62.58" departSpeed="0.00" departDelay="108.50" arrival="919.00" arrivalLane="nt14_np11_0" arrivalPos="75.00" arrivalSpeed="11.75" duration="417.00" routeLength="888.51" waitingTime="213.00" waitingCount="13" stopTime="0.00" timeLoss="348.05" rerouteNo="0" devices="tripinfo_f_1_3.20" vType="type1" speedFactor="1.07" vaporized=""/>
    <tripinfo id="f_1_3.16" depart="482.00" departLane="np3_nt3_0" departPos="20.15" departSpeed="0.00" departDelay="107.20" arrival="921.00" arrivalLane="nt14_np11_0" arrivalPos="75.00" arrivalSpeed="10.35" duration="439.00" routeLength="930.94" waitingTime="207.00" waitingCount="11" stopTime="0.00" timeLoss="365.36" rerouteNo="0" devices="tripinfo_f_1_3.16" vType="type1" speedFactor="1.06" vaporized=""/>
    <tripinfo id="f_1_3.34" depart="547.00" departLane="np3_nt3_0" departPos="0.07" departSpeed="0.00" departDelay="88.05" arrival="933.00" arrivalLane="nt14_np11_0" arrivalPos="75.00" arrivalSpeed="8.18" duration="386.00" routeLength="951.02" waitingTime="191.00" waitingCount="12" stopTime="0.00" timeLoss="299.19" rerouteNo="0" devices="tripinfo_f_1_3.34" vType="type1" speedFactor="0.92" vaporized=""/>
    <tripinfo id="f_1_3.22" depart="507.00" departLane="np3_nt3_0" departPos="63.36" departSpeed="0.00" departDelay="104.15" arrival="935.00" arrivalLane="nt14_np11_0" arrivalPos="75.00" arrivalSpeed="10.97" duration="428.00" routeLength="887.73" waitingTime="201.00" waitingCount="12" stopTime="0.00" timeLoss="353.63" rerouteNo="0" devices="tripinfo_f_1_3.22" vType="type1" speedFactor="1.00" vaporized=""/>
    <tripinfo id="f_1_3.35" depart="550.00" departLane="np3_nt3_0" departPos="0.00" departSpeed="0.00" departDelay="86.37" arrival="956.00" arrivalLane="nt14_np11_0" arrivalPos="75.00" arrivalSpeed="7.90" duration="406.00" routeLength="951.09" waitingTime="207.00" waitingCount="11" stopTime="0.00" timeLoss="317.94" rerouteNo="0" devices="tripinfo_f_1_3.35" vType="type1" speedFactor="0.91" vaporized=""/>