<?xml version="1.0" encoding="UTF-8"?>

<!-- generated on 2023-08-30 12:51:51 by Eclipse SUMO libsumo Version 1.18.0
<configuration xmlns:xsi="http://www.w3.org/2001/XMLSchema-instance" xsi:noNamespaceSchemaLocation="http://sumo.dlr.de/xsd/libsumoConfiguration.xsd">

    <input>
        <net-file value="/home/stefan/RESCO/./environments/arterial4x4/arterial4x4.net.xml"/>
        <route-files value="/home/stefan/RESCO/./environments/arterial4x4/arterial4x4_93.rou.xml"/>
    </input>

    <output>
        <tripinfo-output value="/home/stefan/results/ITRPO-tr0-arterial4x4-0-drq_norm-wait_norm/tripinfo_93.xml"/>
        <tripinfo-output.write-unfinished value="true"/>
    </output>

    <processing>
        <time-to-teleport value="-1"/>
    </processing>

    <report>
        <no-warnings value="True"/>
        <no-step-log value="True"/>
    </report>

    <random_number>
        <random value="true"/>
    </random_number>

</configuration>
-->

<tripinfos xmlns:xsi="http://www.w3.org/2001/XMLSchema-instance" xsi:noNamespaceSchemaLocation="http://sumo.dlr.de/xsd/tripinfo_file.xsd">
    <tripinfo id="f_0_3.0" depart="0.00" departLane="np3_nt3_0" departPos="36.87" departSpeed="0.00" departDelay="0.00" arrival="114.00" arrivalLane="nt14_np11_0" arrivalPos="75.00" arrivalSpeed="10.61" duration="114.00" routeLength="914.22" waitingTime="28.00" waitingCount="3" stopTime="0.00" timeLoss="46.72" rerouteNo="0" devices="tripinfo_f_0_3.0" vType="type1" speedFactor="1.14" vaporized=""/>
    <tripinfo id="f_0_2.0" depart="0.00" departLane="np2_nt2_0" departPos="35.68" departSpeed="0.00" departDelay="0.00" arrival="121.00" arrivalLane="nt15_np10_0" arrivalPos="75.00" arrivalSpeed="11.48" duration="121.00" routeLength="915.40" waitingTime="29.00" waitingCount="4" stopTime="0.00" timeLoss="55.48" rerouteNo="0" devices="tripinfo_f_0_2.0" vType="type1" speedFactor="1.17" vaporized=""/>
    <tripinfo id="f_0_1.0" depart="0.00" departLane="np16_nt1_0" departPos="41.80" departSpeed="0.00" departDelay="0.00" arrival="158.00" arrivalLane="nt16_np8_0" arrivalPos="75.00" arrivalSpeed="20.93" duration="158.00" routeLength="1306.08" waitingTime="45.00" waitingCount="6" stopTime="0.00" timeLoss="79.38" rerouteNo="0" devices="tripinfo_f_0_1.0" vType="type1" speedFactor="1.16" vaporized=""/>
    <tripinfo id="f_0_2.1" depart="9.00" departLane="np2_nt2_0" departPos="3.89" departSpeed="0.00" departDelay="0.82" arrival="176.00" arrivalLane="nt15_np10_0" arrivalPos="75.00" arrivalSpeed="9.73" duration="167.00" routeLength="947.19" waitingTime="69.00" waitingCount="4" stopTime="0.00" timeLoss="92.57" rerouteNo="0" devices="tripinfo_f_0_2.1" vType="type1" speedFactor="1.08" vaporized=""/>
    <tripinfo id="f_0_3.1" depart="9.00" departLane="np3_nt3_0" departPos="50.09" departSpeed="0.00" departDelay="0.82" arrival="178.00" arrivalLane="nt14_np11_0" arrivalPos="75.00" arrivalSpeed="9.41" duration="169.00" routeLength="901.00" waitingTime="64.00" waitingCount="5" stopTime="0.00" timeLoss="90.36" rerouteNo="0" devices="tripinfo_f_0_3.1" vType="type1" speedFactor="0.96" vaporized=""/>
    <tripinfo id="f_0_3.2" depart="17.00" departLane="np3_nt3_0" departPos="27.80" departSpeed="0.00" departDelay="0.64" arrival="180.00" arrivalLane="nt14_np11_0" arrivalPos="75.00" arrivalSpeed="9.69" duration="163.00" routeLength="923.29" waitingTime="50.00" waitingCount="6" stopTime="0.00" timeLoss="87.75" rerouteNo="0" devices="tripinfo_f_0_3.2" vType="type1" speedFactor="1.04" vaporized=""/>
    <tripinfo id="f_0_3.3" depart="25.00" departLane="np3_nt3_0" departPos="11.68" departSpeed="0.00" departDelay="0.45" arrival="181.00" arrivalLane="nt14_np11_0" arrivalPos="75.00" arrivalSpeed="10.54" duration="156.00" routeLength="939.41" waitingTime="40.00" waitingCount="5" stopTime="0.00" timeLoss="86.63" rerouteNo="0" devices="tripinfo_f_0_3.3" vType="type1" speedFactor="1.14" vaporized=""/>
    <tripinfo id="f_0_0.0" depart="0.00" departLane="np13_nt13_0" departPos="40.65" departSpeed="0.00" departDelay="0.00" arrival="184.00" arrivalLane="nt4_np5_0" arrivalPos="75.00" arrivalSpeed="21.40" duration="184.00" routeLength="1307.24" waitingTime="71.00" waitingCount="6" stopTime="0.00" timeLoss="104.01" rerouteNo="0" devices="tripinfo_f_0_0.0" vType="type1" speedFactor="1.14" vaporized=""/>
    <tripinfo id="f_0_3.4" depart="33.00" departLane="np3_nt3_0" departPos="1.40" departSpeed="0.00" departDelay="0.27" arrival="184.00" arrivalLane="nt14_np11_0" arrivalPos="75.00" arrivalSpeed="9.85" duration="151.00" routeLength="949.69" waitingTime="34.00" waitingCount="5" stopTime="0.00" timeLoss="71.55" rerouteNo="0" devices="tripinfo_f_0_3.4" vType="type1" speedFactor="1.01" vaporized=""/>
    <tripinfo id="f_0_3.5" depart="41.00" departLane="np3_nt3_0" departPos="30.52" departSpeed="0.00" departDelay="0.09" arrival="195.00" arrivalLane="nt14_np11_0" arrivalPos="75.00" arrivalSpeed="8.62" duration="154.00" routeLength="920.57" waitingTime="47.00" waitingCount="3" stopTime="0.00" timeLoss="69.59" rerouteNo="0" devices="tripinfo_f_0_3.5" vType="type1" speedFactor="0.91" vaporized=""/>
    <tripinfo id="f_0_0.1" depart="14.00" departLane="np13_nt13_0" departPos="4.13" departSpeed="0.00" departDelay="0.36" arrival="214.00" arrivalLane="nt4_np5_0" arrivalPos="75.00" arrivalSpeed="17.76" duration="200.00" routeLength="1343.76" waitingTime="65.00" waitingCount="6" stopTime="0.00" timeLoss="102.31" rerouteNo="0" devices="tripinfo_f_0_0.1" vType="type1" speedFactor="0.96" vaporized=""/>
    <tripinfo id="f_0_2.2" depart="17.00" departLane="np2_nt2_0" departPos="36.22" departSpeed="0.00" departDelay="0.64" arrival="218.00" arrivalLane="nt15_np10_0" arrivalPos="75.00" arrivalSpeed="9.77" duration="201.00" routeLength="914.86" waitingTime="92.00" waitingCount="7" stopTime="0.00" timeLoss="123.12" rerouteNo="0" devices="tripinfo_f_0_2.2" vType="type1" speedFactor="0.99" vaporized=""/>
    <tripinfo id="f_0_2.3" depart="25.00" departLane="np2_nt2_0" departPos="1.97" departSpeed="0.00" departDelay="0.45" arrival="220.00" arrivalLane="nt15_np10_0" arrivalPos="75.00" arrivalSpeed="9.19" duration="195.00" routeLength="949.11" waitingTime="75.00" waitingCount="6" stopTime="0.00" timeLoss="110.86" rerouteNo="0" devices="tripinfo_f_0_2.3" vType="type1" speedFactor="0.95" vaporized=""/>
    <tripinfo id="f_0_3.6" depart="50.00" departLane="np3_nt3_0" departPos="26.04" departSpeed="0.00" departDelay="0.91" arrival="233.00" arrivalLane="nt14_np11_0" arrivalPos="75.00" arrivalSpeed="9.02" duration="183.00" routeLength="925.05" waitingTime="64.00" waitingCount="6" stopTime="0.00" timeLoss="99.76" rerouteNo="0" devices="tripinfo_f_0_3.6" vType="type1" speedFactor="0.93" vaporized=""/>
    <tripinfo id="f_0_2.4" depart="33.00" departLane="np2_nt2_0" departPos="46.31" departSpeed="0.00" departDelay="0.27" arrival="234.00" arrivalLane="nt15_np10_0" arrivalPos="75.00" arrivalSpeed="8.65" duration="201.00" routeLength="904.77" waitingTime="69.00" waitingCount="8" stopTime="0.00" timeLoss="111.34" rerouteNo="0" devices="tripinfo_f_0_2.4" vType="type1" speedFactor="0.85" vaporized=""/>
    <tripinfo id="f_0_3.7" depart="58.00" departLane="np3_nt3_0" departPos="10.73" departSpeed="0.00" departDelay="0.73" arrival="235.00" arrivalLane="nt14_np11_0" arrivalPos="75.00" arrivalSpeed="9.21" duration="177.00" routeLength="940.36" waitingTime="58.00" waitingCount="5" stopTime="0.00" timeLoss="98.49" rerouteNo="0" devices="tripinfo_f_0_3.7" vType="type1" speedFactor="1.01" vaporized=""/>
    <tripinfo id="f_0_2.5" depart="41.00" departLane="np2_nt2_0" departPos="1.56" departSpeed="0.00" departDelay="0.09" arrival="236.00" arrivalLane="nt15_np10_0" arrivalPos="75.00" arrivalSpeed="12.68" duration="195.00" routeLength="949.52" waitingTime="73.00" waitingCount="7" stopTime="0.00" timeLoss="128.02" rerouteNo="0" devices="tripinfo_f_0_2.5" vType="type1" speedFactor="1.19" vaporized=""/>
    <tripinfo id="f_0_2.6" depart="50.00" departLane="np2_nt2_0" departPos="39.42" departSpeed="0.00" departDelay="0.91" arrival="238.00" arrivalLane="nt15_np10_0" arrivalPos="75.00" arrivalSpeed="9.03" duration="188.00" routeLength="911.66" waitingTime="62.00" waitingCount="6" stopTime="0.00" timeLoss="111.36" rerouteNo="0" devices="tripinfo_f_0_2.6" vType="type1" speedFactor="1.00" vaporized=""/>
    <tripinfo id="f_0_2.7" depart="58.00" departLane="np2_nt2_0" departPos="29.77" departSpeed="0.00" departDelay="0.73" arrival="240.00" arrivalLane="nt15_np10_0" arrivalPos="75.00" arrivalSpeed="9.65" duration="182.00" routeLength="921.31" waitingTime="52.00" waitingCount="7" stopTime="0.00" timeLoss="109.37" rerouteNo="0" devices="tripinfo_f_0_2.7" vType="type1" speedFactor="1.06" vaporized=""/>
    <tripinfo id="f_0_0.2" depart="28.00" departLane="np13_nt13_0" departPos="61.64" departSpeed="0.00" departDelay="0.73" arrival="242.00" arrivalLane="nt4_np5_0" arrivalPos="75.00" arrivalSpeed="16.83" duration="214.00" routeLength="1286.25" waitingTime="88.00" waitingCount="6" stopTime="0.00" timeLoss="119.06" rerouteNo="0" devices="tripinfo_f_0_0.2" vType="type1" speedFactor="0.95" vaporized=""/>
    <tripinfo id="f_0_2.8" depart="66.00" departLane="np2_nt2_0" departPos="45.12" departSpeed="0.00" departDelay="0.54" arrival="242.00" arrivalLane="nt15_np10_0" arrivalPos="75.00" arrivalSpeed="9.75" duration="176.00" routeLength="905.96" waitingTime="50.00" waitingCount="7" stopTime="0.00" timeLoss="103.12" rerouteNo="0" devices="tripinfo_f_0_2.8" vType="type1" speedFactor="1.04" vaporized=""/>
    <tripinfo id="f_0_2.9" depart="74.00" departLane="np2_nt2_0" departPos="25.94" departSpeed="0.00" departDelay="0.36" arrival="247.00" arrivalLane="nt15_np10_0" arrivalPos="75.00" arrivalSpeed="9.63" duration="173.00" routeLength="925.14" waitingTime="39.00" waitingCount="7" stopTime="0.00" timeLoss="98.55" rerouteNo="0" devices="tripinfo_f_0_2.9" vType="type1" speedFactor="1.03" vaporized=""/>
    <tripinfo id="f_0_1.1" depart="14.00" departLane="np16_nt1_0" departPos="37.08" departSpeed="0.00" departDelay="0.36" arrival="248.00" arrivalLane="nt16_np8_0" arrivalPos="75.00" arrivalSpeed="21.58" duration="234.00" routeLength="1310.80" waitingTime="83.00" waitingCount="9" stopTime="0.00" timeLoss="155.35" rerouteNo="0" devices="tripinfo_f_0_1.1" vType="type1" speedFactor="1.17" vaporized=""/>
    <tripinfo id="f_0_1.2" depart="28.00" departLane="np16_nt1_0" departPos="57.17" departSpeed="0.00" departDelay="0.73" arrival="253.00" arrivalLane="nt16_np8_0" arrivalPos="75.00" arrivalSpeed="18.56" duration="225.00" routeLength="1290.71" waitingTime="72.00" waitingCount="8" stopTime="0.00" timeLoss="132.56" rerouteNo="0" devices="tripinfo_f_0_1.2" vType="type1" speedFactor="0.98" vaporized=""/>
    <tripinfo id="f_0_0.3" depart="41.00" departLane="np13_nt13_0" departPos="29.38" departSpeed="0.00" departDelay="0.09" arrival="260.00" arrivalLane="nt4_np5_0" arrivalPos="75.00" arrivalSpeed="17.86" duration="219.00" routeLength="1318.51" waitingTime="86.00" waitingCount="4" stopTime="0.00" timeLoss="125.55" rerouteNo="0" devices="tripinfo_f_0_0.3" vType="type1" speedFactor="0.98" vaporized=""/>
    <tripinfo id="f_0_0.4" depart="55.00" departLane="np13_nt13_0" departPos="67.41" departSpeed="0.00" departDelay="0.46" arrival="261.00" arrivalLane="nt4_np5_0" arrivalPos="75.00" arrivalSpeed="20.13" duration="206.00" routeLength="1280.48" waitingTime="80.00" waitingCount="7" stopTime="0.00" timeLoss="122.11" rerouteNo="0" devices="tripinfo_f_0_0.4" vType="type1" speedFactor="1.06" vaporized=""/>
    <tripinfo id="f_0_3.8" depart="66.00" departLane="np3_nt3_0" departPos="8.49" departSpeed="0.00" departDelay="0.54" arrival="264.00" arrivalLane="nt14_np11_0" arrivalPos="75.00" arrivalSpeed="8.81" duration="198.00" routeLength="942.60" waitingTime="67.00" waitingCount="6" stopTime="0.00" timeLoss="108.43" rerouteNo="0" devices="tripinfo_f_0_3.8" vType="type1" speedFactor="0.89" vaporized=""/>
    <tripinfo id="f_0_3.9" depart="74.00" departLane="np3_nt3_0" departPos="15.11" departSpeed="0.00" departDelay="0.36" arrival="266.00" arrivalLane="nt14_np11_0" arrivalPos="75.00" arrivalSpeed="9.68" duration="192.00" routeLength="935.98" waitingTime="66.00" waitingCount="7" stopTime="0.00" timeLoss="113.31" rerouteNo="0" devices="tripinfo_f_0_3.9" vType="type1" speedFactor="1.00" vaporized=""/>
    <tripinfo id="f_0_1.3" depart="41.00" departLane="np16_nt1_0" departPos="10.53" departSpeed="0.00" departDelay="0.09" arrival="278.00" arrivalLane="nt16_np8_0" arrivalPos="75.00" arrivalSpeed="17.88" duration="237.00" routeLength="1337.35" waitingTime="90.00" waitingCount="9" stopTime="0.00" timeLoss="144.23" rerouteNo="0" devices="tripinfo_f_0_1.3" vType="type1" speedFactor="1.00" vaporized=""/>
    <tripinfo id="f_0_1.4" depart="55.00" departLane="np16_nt1_0" departPos="57.49" departSpeed="0.00" departDelay="0.46" arrival="280.00" arrivalLane="nt16_np8_0" arrivalPos="75.00" arrivalSpeed="18.52" duration="225.00" routeLength="1290.39" waitingTime="60.00" waitingCount="10" stopTime="0.00" timeLoss="130.92" rerouteNo="0" devices="tripinfo_f_0_1.4" vType="type1" speedFactor="0.96" vaporized=""/>
    <tripinfo id="f_0_0.5" depart="69.00" departLane="np13_nt13_0" departPos="5.05" departSpeed="0.00" departDelay="0.82" arrival="280.00" arrivalLane="nt4_np5_0" arrivalPos="75.00" arrivalSpeed="14.74" duration="211.00" routeLength="1342.84" waitingTime="58.00" waitingCount="7" stopTime="0.00" timeLoss="96.82" rerouteNo="0" devices="tripinfo_f_0_0.5" vType="type1" speedFactor="0.81" vaporized=""/>
    <tripinfo id="f_0_3.10" depart="82.00" departLane="np3_nt3_0" departPos="19.32" departSpeed="0.00" departDelay="0.18" arrival="284.00" arrivalLane="nt14_np11_0" arrivalPos="75.00" arrivalSpeed="9.06" duration="202.00" routeLength="931.77" waitingTime="69.00" waitingCount="8" stopTime="0.00" timeLoss="115.23" rerouteNo="0" devices="tripinfo_f_0_3.10" vType="type1" speedFactor="0.90" vaporized=""/>
    <tripinfo id="f_0_3.11" depart="90.00" departLane="np3_nt3_0" departPos="17.78" departSpeed="0.00" departDelay="0.00" arrival="286.00" arrivalLane="nt14_np11_0" arrivalPos="75.00" arrivalSpeed="10.09" duration="196.00" routeLength="933.31" waitingTime="67.00" waitingCount="7" stopTime="0.00" timeLoss="110.38" rerouteNo="0" devices="tripinfo_f_0_3.11" vType="type1" speedFactor="0.92" vaporized=""/>
    <tripinfo id="f_0_3.12" depart="99.00" departLane="np3_nt3_0" departPos="4.23" departSpeed="0.00" departDelay="0.82" arrival="288.00" arrivalLane="nt14_np11_0" arrivalPos="75.00" arrivalSpeed="9.14" duration="189.00" routeLength="946.86" waitingTime="72.00" waitingCount="4" stopTime="0.00" timeLoss="106.14" rerouteNo="0" devices="tripinfo_f_0_3.12" vType="type1" speedFactor="0.96" vaporized=""/>
    <tripinfo id="f_0_3.13" depart="107.00" departLane="np3_nt3_0" departPos="0.82" departSpeed="0.00" departDelay="0.63" arrival="290.00" arrivalLane="nt14_np11_0" arrivalPos="75.00" arrivalSpeed="10.48" duration="183.00" routeLength="950.27" waitingTime="68.00" waitingCount="3" stopTime="0.00" timeLoss="104.74" rerouteNo="0" devices="tripinfo_f_0_3.13" vType="type1" speedFactor="1.03" vaporized=""/>
    <tripinfo id="f_0_0.6" depart="82.00" departLane="np13_nt13_0" departPos="55.24" departSpeed="0.00" departDelay="0.18" arrival="295.00" arrivalLane="nt4_np5_0" arrivalPos="75.00" arrivalSpeed="18.63" duration="213.00" routeLength="1292.65" waitingTime="69.00" waitingCount="8" stopTime="0.00" timeLoss="121.28" rerouteNo="0" devices="tripinfo_f_0_0.6" vType="type1" speedFactor="0.99" vaporized=""/>
    <tripinfo id="f_0_1.5" depart="69.00" departLane="np16_nt1_0" departPos="52.97" departSpeed="0.00" departDelay="0.82" arrival="297.00" arrivalLane="nt16_np8_0" arrivalPos="75.00" arrivalSpeed="16.93" duration="228.00" routeLength="1294.91" waitingTime="55.00" waitingCount="7" stopTime="0.00" timeLoss="125.06" rerouteNo="0" devices="tripinfo_f_0_1.5" vType="type1" speedFactor="0.88" vaporized=""/>
    <tripinfo id="f_0_3.14" depart="115.00" departLane="np3_nt3_0" departPos="27.57" departSpeed="0.00" departDelay="0.45" arrival="297.00" arrivalLane="nt14_np11_0" arrivalPos="75.00" arrivalSpeed="10.32" duration="182.00" routeLength="923.52" waitingTime="71.00" waitingCount="5" stopTime="0.00" timeLoss="106.79" rerouteNo="0" devices="tripinfo_f_0_3.14" vType="type1" speedFactor="1.03" vaporized=""/>
    <tripinfo id="f_0_3.15" depart="123.00" departLane="np3_nt3_0" departPos="10.70" departSpeed="0.00" departDelay="0.27" arrival="299.00" arrivalLane="nt14_np11_0" arrivalPos="75.00" arrivalSpeed="10.99" duration="176.00" routeLength="940.39" waitingTime="66.00" waitingCount="3" stopTime="0.00" timeLoss="96.70" rerouteNo="0" devices="tripinfo_f_0_3.15" vType="type1" speedFactor="1.00" vaporized=""/>
    <tripinfo id="f_0_0.7" depart="96.00" departLane="np13_nt13_0" departPos="27.09" departSpeed="0.00" departDelay="0.55" arrival="300.00" arrivalLane="nt4_np5_0" arrivalPos="75.00" arrivalSpeed="16.91" duration="204.00" routeLength="1320.80" waitingTime="51.00" waitingCount="9" stopTime="0.00" timeLoss="96.71" rerouteNo="0" devices="tripinfo_f_0_0.7" vType="type1" speedFactor="0.85" vaporized=""/>
    <tripinfo id="f_0_3.16" depart="131.00" departLane="np3_nt3_0" departPos="30.24" departSpeed="0.00" departDelay="0.09" arrival="302.00" arrivalLane="nt14_np11_0" arrivalPos="75.00" arrivalSpeed="9.31" duration="171.00" routeLength="920.85" waitingTime="60.00" waitingCount="3" stopTime="0.00" timeLoss="92.01" rerouteNo="0" devices="tripinfo_f_0_3.16" vType="type1" speedFactor="0.98" vaporized=""/>
    <tripinfo id="f_0_2.10" depart="82.00" departLane="np2_nt2_0" departPos="13.53" departSpeed="0.00" departDelay="0.18" arrival="332.00" arrivalLane="nt15_np10_0" arrivalPos="75.00" arrivalSpeed="9.64" duration="250.00" routeLength="937.55" waitingTime="98.00" waitingCount="9" stopTime="0.00" timeLoss="176.81" rerouteNo="0" devices="tripinfo_f_0_2.10" vType="type1" speedFactor="1.08" vaporized=""/>
    <tripinfo id="f_0_2.11" depart="90.00" departLane="np2_nt2_0" departPos="35.90" departSpeed="0.00" departDelay="0.00" arrival="334.00" arrivalLane="nt15_np10_0" arrivalPos="75.00" arrivalSpeed="11.99" duration="244.00" routeLength="915.18" waitingTime="98.00" waitingCount="8" stopTime="0.00" timeLoss="175.53" rerouteNo="0" devices="tripinfo_f_0_2.11" vType="type1" speedFactor="1.12" vaporized=""/>
    <tripinfo id="f_0_2.12" depart="99.00" departLane="np2_nt2_0" departPos="9.98" departSpeed="0.00" departDelay="0.82" arrival="337.00" arrivalLane="nt15_np10_0" arrivalPos="75.00" arrivalSpeed="9.97" duration="238.00" routeLength="941.10" waitingTime="86.00" waitingCount="6" stopTime="0.00" timeLoss="152.89" rerouteNo="0" devices="tripinfo_f_0_2.12" vType="type1" speedFactor="0.93" vaporized=""/>
    <tripinfo id="f_0_0.8" depart="110.00" departLane="np13_nt13_0" departPos="17.95" departSpeed="0.00" departDelay="0.91" arrival="339.00" arrivalLane="nt4_np5_0" arrivalPos="75.00" arrivalSpeed="14.69" duration="229.00" routeLength="1329.94" waitingTime="66.00" waitingCount="8" stopTime="0.00" timeLoss="113.40" rerouteNo="0" devices="tripinfo_f_0_0.8" vType="type1" speedFactor="0.80" vaporized=""/>
    <tripinfo id="f_0_2.13" depart="107.00" departLane="np2_nt2_0" departPos="10.21" departSpeed="0.00" departDelay="0.63" arrival="340.00" arrivalLane="nt15_np10_0" arrivalPos="75.00" arrivalSpeed="9.74" duration="233.00" routeLength="940.87" waitingTime="83.00" waitingCount="8" stopTime="0.00" timeLoss="154.50" rerouteNo="0" devices="tripinfo_f_0_2.13" vType="type1" speedFactor="1.00" vaporized=""/>
    <tripinfo id="f_0_2.14" depart="115.00" departLane="np2_nt2_0" departPos="8.72" departSpeed="0.00" departDelay="0.45" arrival="342.00" arrivalLane="nt15_np10_0" arrivalPos="75.00" arrivalSpeed="8.75" duration="227.00" routeLength="942.36" waitingTime="81.00" waitingCount="8" stopTime="0.00" timeLoss="149.70" rerouteNo="0" devices="tripinfo_f_0_2.14" vType="type1" speedFactor="1.02" vaporized=""/>
    <tripinfo id="f_0_3.17" depart="140.00" departLane="np3_nt3_0" departPos="7.52" departSpeed="0.00" departDelay="0.91" arrival="344.00" arrivalLane="nt14_np11_0" arrivalPos="75.00" arrivalSpeed="9.13" duration="204.00" routeLength="943.57" waitingTime="74.00" waitingCount="4" stopTime="0.00" timeLoss="112.77" rerouteNo="0" devices="tripinfo_f_0_3.17" vType="type1" speedFactor="0.87" vaporized=""/>
    <tripinfo id="f_0_3.18" depart="148.00" departLane="np3_nt3_0" departPos="12.38" departSpeed="0.00" departDelay="0.72" arrival="346.00" arrivalLane="nt14_np11_0" arrivalPos="75.00" arrivalSpeed="10.40" duration="198.00" routeLength="938.71" waitingTime="67.00" waitingCount="4" stopTime="0.00" timeLoss="116.69" rerouteNo="0" devices="tripinfo_f_0_3.18" vType="type1" speedFactor="0.98" vaporized=""/>
    <tripinfo id="f_0_1.6" depart="82.00" departLane="np16_nt1_0" departPos="34.61" departSpeed="0.00" departDelay="0.18" arrival="347.00" arrivalLane="nt16_np8_0" arrivalPos="75.00" arrivalSpeed="21.09" duration="265.00" routeLength="1313.27" waitingTime="98.00" waitingCount="7" stopTime="0.00" timeLoss="180.33" rerouteNo="0" devices="tripinfo_f_0_1.6" vType="type1" speedFactor="1.09" vaporized=""/>
    <tripinfo id="f_0_0.9" depart="123.00" departLane="np13_nt13_0" departPos="34.49" departSpeed="0.00" departDelay="0.28" arrival="348.00" arrivalLane="nt4_np5_0" arrivalPos="75.00" arrivalSpeed="17.70" duration="225.00" routeLength="1313.40" waitingTime="72.00" waitingCount="9" stopTime="0.00" timeLoss="125.86" rerouteNo="0" devices="tripinfo_f_0_0.9" vType="type1" speedFactor="0.92" vaporized=""/>
    <tripinfo id="f_0_0.10" depart="137.00" departLane="np13_nt13_0" departPos="36.64" departSpeed="0.00" departDelay="0.64" arrival="350.00" arrivalLane="nt4_np5_0" arrivalPos="75.00" arrivalSpeed="19.96" duration="213.00" routeLength="1311.25" waitingTime="71.00" waitingCount="7" stopTime="0.00" timeLoss="127.21" rerouteNo="0" devices="tripinfo_f_0_0.10" vType="type1" speedFactor="1.07" vaporized=""/>
    <tripinfo id="f_0_2.15" depart="123.00" departLane="np2_nt2_0" departPos="53.00" departSpeed="0.00" departDelay="0.27" arrival="352.00" arrivalLane="nt15_np10_0" arrivalPos="75.00" arrivalSpeed="9.91" duration="229.00" routeLength="898.08" waitingTime="85.00" waitingCount="8" stopTime="0.00" timeLoss="151.37" rerouteNo="0" devices="tripinfo_f_0_2.15" vType="type1" speedFactor="0.97" vaporized=""/>
    <tripinfo id="f_0_2.16" depart="131.00" departLane="np2_nt2_0" departPos="24.96" departSpeed="0.00" departDelay="0.09" arrival="354.00" arrivalLane="nt15_np10_0" arrivalPos="75.00" arrivalSpeed="10.70" duration="223.00" routeLength="926.12" waitingTime="78.00" waitingCount="8" stopTime="0.00" timeLoss="145.90" rerouteNo="0" devices="tripinfo_f_0_2.16" vType="type1" speedFactor="1.01" vaporized=""/>
    <tripinfo id="f_0_3.19" depart="156.00" departLane="np3_nt3_0" departPos="7.17" departSpeed="0.00" departDelay="0.54" arrival="366.00" arrivalLane="nt14_np11_0" arrivalPos="75.00" arrivalSpeed="11.35" duration="210.00" routeLength="943.92" waitingTime="99.00" waitingCount="5" stopTime="0.00" timeLoss="139.80" rerouteNo="0" devices="tripinfo_f_0_3.19" vType="type1" speedFactor="1.12" vaporized=""/>
    <tripinfo id="f_0_2.17" depart="140.00" departLane="np2_nt2_0" departPos="25.71" departSpeed="0.00" departDelay="0.91" arrival="368.00" arrivalLane="nt15_np10_0" arrivalPos="75.00" arrivalSpeed="8.26" duration="228.00" routeLength="925.37" waitingTime="73.00" waitingCount="8" stopTime="0.00" timeLoss="143.06" rerouteNo="0" devices="tripinfo_f_0_2.17" vType="type1" speedFactor="0.91" vaporized=""/>
    <tripinfo id="f_0_3.20" depart="164.00" departLane="np3_nt3_0" departPos="0.66" departSpeed="0.00" departDelay="0.36" arrival="369.00" arrivalLane="nt14_np11_0" arrivalPos="75.00" arrivalSpeed="9.64" duration="205.00" routeLength="950.43" waitingTime="86.00" waitingCount="8" stopTime="0.00" timeLoss="131.19" rerouteNo="0" devices="tripinfo_f_0_3.20" vType="type1" speedFactor="1.08" vaporized=""/>
    <tripinfo id="f_0_3.21" depart="178.00" departLane="np3_nt3_0" departPos="0.00" departSpeed="0.00" departDelay="6.18" arrival="373.00" arrivalLane="nt14_np11_0" arrivalPos="75.00" arrivalSpeed="8.53" duration="195.00" routeLength="951.09" waitingTime="66.00" waitingCount="5" stopTime="0.00" timeLoss="102.44" rerouteNo="0" devices="tripinfo_f_0_3.21" vType="type1" speedFactor="0.86" vaporized=""/>
    <tripinfo id="f_0_2.18" depart="148.00" departLane="np2_nt2_0" departPos="32.85" departSpeed="0.00" departDelay="0.72" arrival="387.00" arrivalLane="nt15_np10_0" arrivalPos="75.00" arrivalSpeed="10.98" duration="239.00" routeLength="918.23" waitingTime="85.00" waitingCount="9" stopTime="0.00" timeLoss="165.73" rerouteNo="0" devices="tripinfo_f_0_2.18" vType="type1" speedFactor="1.05" vaporized=""/>
    <tripinfo id="f_0_3.22" depart="181.00" departLane="np3_nt3_0" departPos="8.26" departSpeed="0.00" departDelay="1.00" arrival="401.00" arrivalLane="nt14_np11_0" arrivalPos="75.00" arrivalSpeed="11.19" duration="220.00" routeLength="942.83" waitingTime="101.00" waitingCount="7" stopTime="0.00" timeLoss="144.22" rerouteNo="0" devices="tripinfo_f_0_3.22" vType="type1" speedFactor="1.04" vaporized=""/>
    <tripinfo id="f_0_3.23" depart="189.00" departLane="np3_nt3_0" departPos="32.18" departSpeed="0.00" departDelay="0.81" arrival="403.00" arrivalLane="nt14_np11_0" arrivalPos="75.00" arrivalSpeed="11.87" duration="214.00" routeLength="918.91" waitingTime="102.00" waitingCount="6" stopTime="0.00" timeLoss="147.99" rerouteNo="0" devices="tripinfo_f_0_3.23" vType="type1" speedFactor="1.17" vaporized=""/>
    <tripinfo id="f_0_0.11" depart="150.00" departLane="np13_nt13_0" departPos="62.20" departSpeed="0.00" departDelay="0.00" arrival="404.00" arrivalLane="nt4_np5_0" arrivalPos="75.00" arrivalSpeed="16.36" duration="254.00" routeLength="1285.69" waitingTime="108.00" waitingCount="8" stopTime="0.00" timeLoss="146.46" rerouteNo="0" devices="tripinfo_f_0_0.11" vType="type1" speedFactor="0.84" vaporized=""/>
    <tripinfo id="f_0_0.12" depart="164.00" departLane="np13_nt13_0" departPos="35.63" departSpeed="0.00" departDelay="0.37" arrival="409.00" arrivalLane="nt4_np5_0" arrivalPos="75.00" arrivalSpeed="19.18" duration="245.00" routeLength="1312.26" waitingTime="101.00" waitingCount="6" stopTime="0.00" timeLoss="156.96" rerouteNo="0" devices="tripinfo_f_0_0.12" vType="type1" speedFactor="1.03" vaporized=""/>
    <tripinfo id="f_0_1.7" depart="96.00" departLane="np16_nt1_0" departPos="45.21" departSpeed="0.00" departDelay="0.55" arrival="413.00" arrivalLane="nt16_np8_0" arrivalPos="75.00" arrivalSpeed="21.29" duration="317.00" routeLength="1302.67" waitingTime="131.00" waitingCount="14" stopTime="0.00" timeLoss="236.97" rerouteNo="0" devices="tripinfo_f_0_1.7" vType="type1" speedFactor="1.13" vaporized=""/>
    <tripinfo id="f_0_2.19" depart="156.00" departLane="np2_nt2_0" departPos="46.97" departSpeed="0.00" departDelay="0.54" arrival="418.00" arrivalLane="nt15_np10_0" arrivalPos="75.00" arrivalSpeed="10.01" duration="262.00" routeLength="904.11" waitingTime="83.00" waitingCount="9" stopTime="0.00" timeLoss="185.32" rerouteNo="0" devices="tripinfo_f_0_2.19" vType="type1" speedFactor="1.00" vaporized=""/>
    <tripinfo id="f_0_0.13" depart="178.00" departLane="np13_nt13_0" departPos="25.72" departSpeed="0.00" departDelay="0.73" arrival="429.00" arrivalLane="nt4_np5_0" arrivalPos="75.00" arrivalSpeed="19.49" duration="251.00" routeLength="1322.17" waitingTime="98.00" waitingCount="8" stopTime="0.00" timeLoss="157.09" rerouteNo="0" devices="tripinfo_f_0_0.13" vType="type1" speedFactor="0.98" vaporized=""/>
    <tripinfo id="f_0_2.20" depart="164.00" departLane="np2_nt2_0" departPos="42.88" departSpeed="0.00" departDelay="0.36" arrival="431.00" arrivalLane="nt15_np10_0" arrivalPos="75.00" arrivalSpeed="12.03" duration="267.00" routeLength="908.20" waitingTime="76.00" waitingCount="10" stopTime="0.00" timeLoss="198.89" rerouteNo="0" devices="tripinfo_f_0_2.20" vType="type1" speedFactor="1.11" vaporized=""/>
    <tripinfo id="f_0_2.21" depart="172.00" departLane="np2_nt2_0" departPos="22.52" departSpeed="0.00" departDelay="0.18" arrival="434.00" arrivalLane="nt15_np10_0" arrivalPos="75.00" arrivalSpeed="10.00" duration="262.00" routeLength="928.56" waitingTime="79.00" waitingCount="12" stopTime="0.00" timeLoss="186.42" rerouteNo="0" devices="tripinfo_f_0_2.21" vType="type1" speedFactor="1.04" vaporized=""/>
    <tripinfo id="f_0_1.8" depart="110.00" departLane="np16_nt1_0" departPos="23.95" departSpeed="0.00" departDelay="0.91" arrival="438.00" arrivalLane="nt16_np8_0" arrivalPos="75.00" arrivalSpeed="22.17" duration="328.00" routeLength="1323.93" waitingTime="135.00" waitingCount="15" stopTime="0.00" timeLoss="246.57" rerouteNo="0" devices="tripinfo_f_0_1.8" vType="type1" speedFactor="1.13" vaporized=""/>
    <tripinfo id="f_0_1.9" depart="123.00" departLane="np16_nt1_0" departPos="17.96" departSpeed="0.00" departDelay="0.28" arrival="440.00" arrivalLane="nt16_np8_0" arrivalPos="75.00" arrivalSpeed="17.61" duration="317.00" routeLength="1329.92" waitingTime="101.00" waitingCount="13" stopTime="0.00" timeLoss="222.05" rerouteNo="0" devices="tripinfo_f_0_1.9" vType="type1" speedFactor="0.97" vaporized=""/>
    <tripinfo id="f_0_0.14" depart="191.00" departLane="np13_nt13_0" departPos="48.62" departSpeed="0.00" departDelay="0.10" arrival="453.00" arrivalLane="nt4_np5_0" arrivalPos="75.00" arrivalSpeed="19.17" duration="262.00" routeLength="1299.27" waitingTime="110.00" waitingCount="10" stopTime="0.00" timeLoss="167.44" rerouteNo="0" devices="tripinfo_f_0_0.14" vType="type1" speedFactor="0.96" vaporized=""/>