<?xml version="1.0" encoding="UTF-8"?>

<!-- generated on 2023-08-30 12:48:20 by Eclipse SUMO libsumo Version 1.18.0
<configuration xmlns:xsi="http://www.w3.org/2001/XMLSchema-instance" xsi:noNamespaceSchemaLocation="http://sumo.dlr.de/xsd/libsumoConfiguration.xsd">

    <input>
        <net-file value="/home/stefan/RESCO/./environments/arterial4x4/arterial4x4.net.xml"/>
        <route-files value="/home/stefan/RESCO/./environments/arterial4x4/arterial4x4_82.rou.xml"/>
    </input>

    <output>
        <tripinfo-output value="/home/stefan/results/ITRPO-tr0-arterial4x4-0-drq_norm-wait_norm/tripinfo_82.xml"/>
        <tripinfo-output.write-unfinished value="true"/>
    </output>

    <processing>
        <time-to-teleport value="-1"/>
    </processing>

    <report>
        <no-warnings value="True"/>
        <no-step-log value="True"/>
    </report>

    <random_number>
        <random value="true"/>
    </random_number>

</configuration>
-->

<tripinfos xmlns:xsi="http://www.w3.org/2001/XMLSchema-instance" xsi:noNamespaceSchemaLocation="http://sumo.dlr.de/xsd/tripinfo_file.xsd">
    <tripinfo id="f_0_3.0" depart="0.00" departLane="np3_nt3_0" departPos="6.23" departSpeed="0.00" departDelay="0.00" arrival="112.00" arrivalLane="nt14_np11_0" arrivalPos="75.00" arrivalSpeed="9.03" duration="112.00" routeLength="944.86" waitingTime="9.00" waitingCount="4" stopTime="0.00" timeLoss="34.64" rerouteNo="0" devices="tripinfo_f_0_3.0" vType="type1" speedFactor="1.03" vaporized=""/>
    <tripinfo id="f_0_2.0" depart="0.00" departLane="np2_nt2_0" departPos="17.03" departSpeed="0.00" departDelay="0.00" arrival="121.00" arrivalLane="nt15_np10_0" arrivalPos="75.00" arrivalSpeed="10.61" duration="121.00" routeLength="934.05" waitingTime="22.00" waitingCount="4" stopTime="0.00" timeLoss="53.15" rerouteNo="0" devices="tripinfo_f_0_2.0" vType="type1" speedFactor="1.16" vaporized=""/>
    <tripinfo id="f_0_2.1" depart="9.00" departLane="np2_nt2_0" departPos="48.84" departSpeed="0.00" departDelay="0.82" arrival="124.00" arrivalLane="nt15_np10_0" arrivalPos="75.00" arrivalSpeed="10.24" duration="115.00" routeLength="902.24" waitingTime="15.00" waitingCount="3" stopTime="0.00" timeLoss="44.03" rerouteNo="0" devices="tripinfo_f_0_2.1" vType="type1" speedFactor="1.08" vaporized=""/>
    <tripinfo id="f_0_1.0" depart="0.00" departLane="np16_nt1_0" departPos="62.80" departSpeed="0.00" departDelay="0.00" arrival="134.00" arrivalLane="nt16_np8_0" arrivalPos="75.00" arrivalSpeed="17.90" duration="134.00" routeLength="1285.08" waitingTime="14.00" waitingCount="4" stopTime="0.00" timeLoss="41.62" rerouteNo="0" devices="tripinfo_f_0_1.0" vType="type1" speedFactor="0.97" vaporized=""/>
    <tripinfo id="f_0_3.1" depart="9.00" departLane="np3_nt3_0" departPos="36.04" departSpeed="0.00" departDelay="0.82" arrival="143.00" arrivalLane="nt14_np11_0" arrivalPos="75.00" arrivalSpeed="8.05" duration="134.00" routeLength="915.05" waitingTime="24.00" waitingCount="2" stopTime="0.00" timeLoss="49.36" rerouteNo="0" devices="tripinfo_f_0_3.1" vType="type1" speedFactor="0.90" vaporized=""/>
    <tripinfo id="f_0_3.2" depart="17.00" departLane="np3_nt3_0" departPos="17.69" departSpeed="0.00" departDelay="0.64" arrival="145.00" arrivalLane="nt14_np11_0" arrivalPos="75.00" arrivalSpeed="10.71" duration="128.00" routeLength="933.40" waitingTime="28.00" waitingCount="2" stopTime="0.00" timeLoss="53.91" rerouteNo="0" devices="tripinfo_f_0_3.2" vType="type1" speedFactor="1.06" vaporized=""/>
    <tripinfo id="f_0_2.2" depart="17.00" departLane="np2_nt2_0" departPos="40.67" departSpeed="0.00" departDelay="0.64" arrival="172.00" arrivalLane="nt15_np10_0" arrivalPos="75.00" arrivalSpeed="10.99" duration="155.00" routeLength="910.41" waitingTime="54.00" waitingCount="4" stopTime="0.00" timeLoss="86.01" rerouteNo="0" devices="tripinfo_f_0_2.2" vType="type1" speedFactor="1.12" vaporized=""/>
    <tripinfo id="f_0_0.0" depart="0.00" departLane="np13_nt13_0" departPos="24.38" departSpeed="0.00" departDelay="0.00" arrival="173.00" arrivalLane="nt4_np5_0" arrivalPos="75.00" arrivalSpeed="17.70" duration="173.00" routeLength="1323.51" waitingTime="55.00" waitingCount="2" stopTime="0.00" timeLoss="79.46" rerouteNo="0" devices="tripinfo_f_0_0.0" vType="type1" speedFactor="0.98" vaporized=""/>
    <tripinfo id="f_0_0.1" depart="14.00" departLane="np13_nt13_0" departPos="61.62" departSpeed="0.00" departDelay="0.36" arrival="175.00" arrivalLane="nt4_np5_0" arrivalPos="75.00" arrivalSpeed="20.40" duration="161.00" routeLength="1286.27" waitingTime="43.00" waitingCount="4" stopTime="0.00" timeLoss="75.13" rerouteNo="0" devices="tripinfo_f_0_0.1" vType="type1" speedFactor="1.05" vaporized=""/>
    <tripinfo id="f_0_2.3" depart="25.00" departLane="np2_nt2_0" departPos="3.21" departSpeed="0.00" departDelay="0.45" arrival="182.00" arrivalLane="nt15_np10_0" arrivalPos="75.00" arrivalSpeed="9.97" duration="157.00" routeLength="947.87" waitingTime="54.00" waitingCount="5" stopTime="0.00" timeLoss="77.98" rerouteNo="0" devices="tripinfo_f_0_2.3" vType="type1" speedFactor="1.02" vaporized=""/>
    <tripinfo id="f_0_3.3" depart="25.00" departLane="np3_nt3_0" departPos="52.00" departSpeed="0.00" departDelay="0.45" arrival="224.00" arrivalLane="nt14_np11_0" arrivalPos="75.00" arrivalSpeed="8.99" duration="199.00" routeLength="899.09" waitingTime="85.00" waitingCount="4" stopTime="0.00" timeLoss="108.56" rerouteNo="0" devices="tripinfo_f_0_3.3" vType="type1" speedFactor="0.83" vaporized=""/>
    <tripinfo id="f_0_3.4" depart="33.00" departLane="np3_nt3_0" departPos="47.20" departSpeed="0.00" departDelay="0.27" arrival="226.00" arrivalLane="nt14_np11_0" arrivalPos="75.00" arrivalSpeed="6.90" duration="193.00" routeLength="903.89" waitingTime="74.00" waitingCount="5" stopTime="0.00" timeLoss="101.30" rerouteNo="0" devices="tripinfo_f_0_3.4" vType="type1" speedFactor="0.82" vaporized=""/>
    <tripinfo id="f_0_0.2" depart="28.00" departLane="np13_nt13_0" departPos="17.48" departSpeed="0.00" departDelay="0.73" arrival="229.00" arrivalLane="nt4_np5_0" arrivalPos="75.00" arrivalSpeed="22.06" duration="201.00" routeLength="1330.41" waitingTime="87.00" waitingCount="3" stopTime="0.00" timeLoss="117.93" rerouteNo="0" devices="tripinfo_f_0_0.2" vType="type1" speedFactor="1.11" vaporized=""/>
    <tripinfo id="f_0_3.5" depart="41.00" departLane="np3_nt3_0" departPos="21.71" departSpeed="0.00" departDelay="0.09" arrival="230.00" arrivalLane="nt14_np11_0" arrivalPos="75.00" arrivalSpeed="7.15" duration="189.00" routeLength="929.38" waitingTime="59.00" waitingCount="4" stopTime="0.00" timeLoss="91.54" rerouteNo="0" devices="tripinfo_f_0_3.5" vType="type1" speedFactor="0.80" vaporized=""/>
    <tripinfo id="f_0_0.3" depart="41.00" departLane="np13_nt13_0" departPos="10.79" departSpeed="0.00" departDelay="0.09" arrival="233.00" arrivalLane="nt4_np5_0" arrivalPos="75.00" arrivalSpeed="18.30" duration="192.00" routeLength="1337.10" waitingTime="74.00" waitingCount="3" stopTime="0.00" timeLoss="99.58" rerouteNo="0" devices="tripinfo_f_0_0.3" vType="type1" speedFactor="1.01" vaporized=""/>
    <tripinfo id="f_0_0.4" depart="55.00" departLane="np13_nt13_0" departPos="44.54" departSpeed="0.00" departDelay="0.46" arrival="234.00" arrivalLane="nt4_np5_0" arrivalPos="75.00" arrivalSpeed="21.04" duration="179.00" routeLength="1303.35" waitingTime="53.00" waitingCount="6" stopTime="0.00" timeLoss="95.72" rerouteNo="0" devices="tripinfo_f_0_0.4" vType="type1" speedFactor="1.10" vaporized=""/>
    <tripinfo id="f_0_0.5" depart="69.00" departLane="np13_nt13_0" departPos="49.45" departSpeed="0.00" departDelay="0.82" arrival="243.00" arrivalLane="nt4_np5_0" arrivalPos="75.00" arrivalSpeed="17.18" duration="174.00" routeLength="1298.44" waitingTime="43.00" waitingCount="6" stopTime="0.00" timeLoss="81.28" rerouteNo="0" devices="tripinfo_f_0_0.5" vType="type1" speedFactor="0.98" vaporized=""/>
    <tripinfo id="f_0_3.6" depart="50.00" departLane="np3_nt3_0" departPos="24.67" departSpeed="0.00" departDelay="0.91" arrival="247.00" arrivalLane="nt14_np11_0" arrivalPos="75.00" arrivalSpeed="10.14" duration="197.00" routeLength="926.42" waitingTime="98.00" waitingCount="5" stopTime="0.00" timeLoss="126.35" rerouteNo="0" devices="tripinfo_f_0_3.6" vType="type1" speedFactor="1.11" vaporized=""/>
    <tripinfo id="f_0_0.6" depart="82.00" departLane="np13_nt13_0" departPos="35.96" departSpeed="0.00" departDelay="0.18" arrival="263.00" arrivalLane="nt4_np5_0" arrivalPos="75.00" arrivalSpeed="17.13" duration="181.00" routeLength="1311.93" waitingTime="46.00" waitingCount="6" stopTime="0.00" timeLoss="81.98" rerouteNo="0" devices="tripinfo_f_0_0.6" vType="type1" speedFactor="0.92" vaporized=""/>
    <tripinfo id="f_0_0.7" depart="96.00" departLane="np13_nt13_0" departPos="44.71" departSpeed="0.00" departDelay="0.55" arrival="265.00" arrivalLane="nt4_np5_0" arrivalPos="75.00" arrivalSpeed="18.59" duration="169.00" routeLength="1303.18" waitingTime="40.00" waitingCount="6" stopTime="0.00" timeLoss="79.33" rerouteNo="0" devices="tripinfo_f_0_0.7" vType="type1" speedFactor="1.02" vaporized=""/>
    <tripinfo id="f_0_0.8" depart="110.00" departLane="np13_nt13_0" departPos="8.06" departSpeed="0.00" departDelay="0.91" arrival="266.00" arrivalLane="nt4_np5_0" arrivalPos="75.00" arrivalSpeed="19.24" duration="156.00" routeLength="1339.83" waitingTime="26.00" waitingCount="6" stopTime="0.00" timeLoss="61.57" rerouteNo="0" devices="tripinfo_f_0_0.8" vType="type1" speedFactor="0.98" vaporized=""/>
    <tripinfo id="f_0_3.7" depart="58.00" departLane="np3_nt3_0" departPos="34.26" departSpeed="0.00" departDelay="0.73" arrival="269.00" arrivalLane="nt14_np11_0" arrivalPos="75.00" arrivalSpeed="10.23" duration="211.00" routeLength="916.83" waitingTime="101.00" waitingCount="4" stopTime="0.00" timeLoss="131.12" rerouteNo="0" devices="tripinfo_f_0_3.7" vType="type1" speedFactor="0.96" vaporized=""/>
    <tripinfo id="f_0_3.8" depart="66.00" departLane="np3_nt3_0" departPos="19.70" departSpeed="0.00" departDelay="0.54" arrival="279.00" arrivalLane="nt14_np11_0" arrivalPos="75.00" arrivalSpeed="8.26" duration="213.00" routeLength="931.39" waitingTime="97.00" waitingCount="5" stopTime="0.00" timeLoss="130.74" rerouteNo="0" devices="tripinfo_f_0_3.8" vType="type1" speedFactor="0.95" vaporized=""/>
    <tripinfo id="f_0_0.9" depart="123.00" departLane="np13_nt13_0" departPos="42.44" departSpeed="0.00" departDelay="0.28" arrival="293.00" arrivalLane="nt4_np5_0" arrivalPos="75.00" arrivalSpeed="20.57" duration="170.00" routeLength="1305.45" waitingTime="48.00" waitingCount="5" stopTime="0.00" timeLoss="82.63" rerouteNo="0" devices="tripinfo_f_0_0.9" vType="type1" speedFactor="1.04" vaporized=""/>
    <tripinfo id="f_0_2.4" depart="33.00" departLane="np2_nt2_0" departPos="56.25" departSpeed="0.00" departDelay="0.27" arrival="294.00" arrivalLane="nt15_np10_0" arrivalPos="75.00" arrivalSpeed="10.03" duration="261.00" routeLength="894.83" waitingTime="152.00" waitingCount="4" stopTime="0.00" timeLoss="180.52" rerouteNo="0" devices="tripinfo_f_0_2.4" vType="type1" speedFactor="0.94" vaporized=""/>
    <tripinfo id="f_0_0.10" depart="137.00" departLane="np13_nt13_0" departPos="33.07" departSpeed="0.00" departDelay="0.64" arrival="312.00" arrivalLane="nt4_np5_0" arrivalPos="75.00" arrivalSpeed="18.87" duration="175.00" routeLength="1314.82" waitingTime="45.00" waitingCount="5" stopTime="0.00" timeLoss="84.04" rerouteNo="0" devices="tripinfo_f_0_0.10" vType="type1" speedFactor="1.01" vaporized=""/>
    <tripinfo id="f_0_2.5" depart="41.00" departLane="np2_nt2_0" departPos="54.56" departSpeed="0.00" departDelay="0.09" arrival="316.00" arrivalLane="nt15_np10_0" arrivalPos="75.00" arrivalSpeed="10.82" duration="275.00" routeLength="896.52" waitingTime="169.00" waitingCount="5" stopTime="0.00" timeLoss="207.08" rerouteNo="0" devices="tripinfo_f_0_2.5" vType="type1" speedFactor="1.11" vaporized=""/>
    <tripinfo id="f_0_3.9" depart="74.00" departLane="np3_nt3_0" departPos="30.99" departSpeed="0.00" departDelay="0.36" arrival="328.00" arrivalLane="nt14_np11_0" arrivalPos="75.00" arrivalSpeed="9.70" duration="254.00" routeLength="920.10" waitingTime="135.00" waitingCount="6" stopTime="0.00" timeLoss="170.58" rerouteNo="0" devices="tripinfo_f_0_3.9" vType="type1" speedFactor="0.92" vaporized=""/>
    <tripinfo id="f_0_1.1" depart="14.00" departLane="np16_nt1_0" departPos="16.00" departSpeed="0.00" departDelay="0.36" arrival="332.00" arrivalLane="nt16_np8_0" arrivalPos="75.00" arrivalSpeed="19.10" duration="318.00" routeLength="1331.88" waitingTime="175.00" waitingCount="6" stopTime="0.00" timeLoss="222.16" rerouteNo="0" devices="tripinfo_f_0_1.1" vType="type1" speedFactor="0.96" vaporized=""/>
    <tripinfo id="f_0_1.2" depart="28.00" departLane="np16_nt1_0" departPos="18.99" departSpeed="0.00" departDelay="0.73" arrival="334.00" arrivalLane="nt16_np8_0" arrivalPos="75.00" arrivalSpeed="20.42" duration="306.00" routeLength="1328.89" waitingTime="157.00" waitingCount="6" stopTime="0.00" timeLoss="225.59" rerouteNo="0" devices="tripinfo_f_0_1.2" vType="type1" speedFactor="1.15" vaporized=""/>
    <tripinfo id="f_0_2.6" depart="50.00" departLane="np2_nt2_0" departPos="60.59" departSpeed="0.00" departDelay="0.91" arrival="338.00" arrivalLane="nt15_np10_0" arrivalPos="75.00" arrivalSpeed="7.68" duration="288.00" routeLength="890.49" waitingTime="161.00" waitingCount="8" stopTime="0.00" timeLoss="206.94" rerouteNo="0" devices="tripinfo_f_0_2.6" vType="type1" speedFactor="0.91" vaporized=""/>
    <tripinfo id="f_0_3.10" depart="82.00" departLane="np3_nt3_0" departPos="3.83" departSpeed="0.00" departDelay="0.18" arrival="358.00" arrivalLane="nt14_np11_0" arrivalPos="75.00" arrivalSpeed="9.99" duration="276.00" routeLength="947.26" waitingTime="157.00" waitingCount="6" stopTime="0.00" timeLoss="195.66" rerouteNo="0" devices="tripinfo_f_0_3.10" vType="type1" speedFactor="0.99" vaporized=""/>
    <tripinfo id="f_0_0.11" depart="150.00" departLane="np13_nt13_0" departPos="4.07" departSpeed="0.00" departDelay="0.00" arrival="359.00" arrivalLane="nt4_np5_0" arrivalPos="75.00" arrivalSpeed="20.21" duration="209.00" routeLength="1343.82" waitingTime="90.00" waitingCount="5" stopTime="0.00" timeLoss="122.43" rerouteNo="0" devices="tripinfo_f_0_0.11" vType="type1" speedFactor="1.07" vaporized=""/>
    <tripinfo id="f_0_3.11" depart="90.00" departLane="np3_nt3_0" departPos="8.62" departSpeed="0.00" departDelay="0.00" arrival="360.00" arrivalLane="nt14_np11_0" arrivalPos="75.00" arrivalSpeed="8.38" duration="270.00" routeLength="942.47" waitingTime="145.00" waitingCount="5" stopTime="0.00" timeLoss="181.96" rerouteNo="0" devices="tripinfo_f_0_3.11" vType="type1" speedFactor="0.90" vaporized=""/>
    <tripinfo id="f_0_2.7" depart="58.00" departLane="np2_nt2_0" departPos="16.84" departSpeed="0.00" departDelay="0.73" arrival="362.00" arrivalLane="nt15_np10_0" arrivalPos="75.00" arrivalSpeed="9.35" duration="304.00" routeLength="934.24" waitingTime="135.00" waitingCount="12" stopTime="0.00" timeLoss="225.86" rerouteNo="0" devices="tripinfo_f_0_2.7" vType="type1" speedFactor="1.01" vaporized=""/>
    <tripinfo id="f_0_2.8" depart="66.00" departLane="np2_nt2_0" departPos="43.17" departSpeed="0.00" departDelay="0.54" arrival="365.00" arrivalLane="nt15_np10_0" arrivalPos="75.00" arrivalSpeed="10.16" duration="299.00" routeLength="907.91" waitingTime="118.00" waitingCount="9" stopTime="0.00" timeLoss="216.09" rerouteNo="0" devices="tripinfo_f_0_2.8" vType="type1" speedFactor="0.93" vaporized=""/>
    <tripinfo id="f_0_0.12" depart="164.00" departLane="np13_nt13_0" departPos="46.65" departSpeed="0.00" departDelay="0.37" arrival="374.00" arrivalLane="nt4_np5_0" arrivalPos="75.00" arrivalSpeed="16.81" duration="210.00" routeLength="1301.24" waitingTime="72.00" waitingCount="6" stopTime="0.00" timeLoss="103.80" rerouteNo="0" devices="tripinfo_f_0_0.12" vType="type1" speedFactor="0.86" vaporized=""/>
    <tripinfo id="f_0_1.3" depart="41.00" departLane="np16_nt1_0" departPos="25.32" departSpeed="0.00" departDelay="0.09" arrival="375.00" arrivalLane="nt16_np8_0" arrivalPos="75.00" arrivalSpeed="13.12" duration="334.00" routeLength="1322.56" waitingTime="129.00" waitingCount="11" stopTime="0.00" timeLoss="206.68" rerouteNo="0" devices="tripinfo_f_0_1.3" vType="type1" speedFactor="0.72" vaporized=""/>
    <tripinfo id="f_0_2.9" depart="74.00" departLane="np2_nt2_0" departPos="8.68" departSpeed="0.00" departDelay="0.36" arrival="382.00" arrivalLane="nt15_np10_0" arrivalPos="75.00" arrivalSpeed="9.39" duration="308.00" routeLength="942.40" waitingTime="142.00" waitingCount="11" stopTime="0.00" timeLoss="229.01" rerouteNo="0" devices="tripinfo_f_0_2.9" vType="type1" speedFactor="1.00" vaporized=""/>
    <tripinfo id="f_0_0.13" depart="178.00" departLane="np13_nt13_0" departPos="38.90" departSpeed="0.00" departDelay="0.73" arrival="383.00" arrivalLane="nt4_np5_0" arrivalPos="75.00" arrivalSpeed="20.66" duration="205.00" routeLength="1308.99" waitingTime="73.00" waitingCount="6" stopTime="0.00" timeLoss="123.08" rerouteNo="0" devices="tripinfo_f_0_0.13" vType="type1" speedFactor="1.11" vaporized=""/>
    <tripinfo id="f_0_2.10" depart="82.00" departLane="np2_nt2_0" departPos="12.08" departSpeed="0.00" departDelay="0.18" arrival="386.00" arrivalLane="nt15_np10_0" arrivalPos="75.00" arrivalSpeed="9.16" duration="304.00" routeLength="939.00" waitingTime="127.00" waitingCount="11" stopTime="0.00" timeLoss="210.67" rerouteNo="0" devices="tripinfo_f_0_2.10" vType="type1" speedFactor="0.85" vaporized=""/>
    <tripinfo id="f_0_0.14" depart="191.00" departLane="np13_nt13_0" departPos="19.29" departSpeed="0.00" departDelay="0.10" arrival="393.00" arrivalLane="nt4_np5_0" arrivalPos="75.00" arrivalSpeed="23.67" duration="202.00" routeLength="1328.60" waitingTime="89.00" waitingCount="6" stopTime="0.00" timeLoss="130.24" rerouteNo="0" devices="tripinfo_f_0_0.14" vType="type1" speedFactor="1.28" vaporized=""/>
    <tripinfo id="f_0_1.4" depart="55.00" departLane="np16_nt1_0" departPos="3.67" departSpeed="0.00" departDelay="0.46" arrival="398.00" arrivalLane="nt16_np8_0" arrivalPos="75.00" arrivalSpeed="20.16" duration="343.00" routeLength="1344.21" waitingTime="138.00" waitingCount="13" stopTime="0.00" timeLoss="254.11" rerouteNo="0" devices="tripinfo_f_0_1.4" vType="type1" speedFactor="1.05" vaporized=""/>
    <tripinfo id="f_0_2.11" depart="90.00" departLane="np2_nt2_0" departPos="34.60" departSpeed="0.00" departDelay="0.00" arrival="404.00" arrivalLane="nt15_np10_0" arrivalPos="75.00" arrivalSpeed="8.42" duration="314.00" routeLength="916.48" waitingTime="123.00" waitingCount="14" stopTime="0.00" timeLoss="225.63" rerouteNo="0" devices="tripinfo_f_0_2.11" vType="type1" speedFactor="0.88" vaporized=""/>
    <tripinfo id="f_0_2.12" depart="99.00" departLane="np2_nt2_0" departPos="43.38" departSpeed="0.00" departDelay="0.82" arrival="405.00" arrivalLane="nt15_np10_0" arrivalPos="75.00" arrivalSpeed="11.11" duration="306.00" routeLength="907.70" waitingTime="111.00" waitingCount="13" stopTime="0.00" timeLoss="237.49" rerouteNo="0" devices="tripinfo_f_0_2.12" vType="type1" speedFactor="1.11" vaporized=""/>
    <tripinfo id="f_0_3.12" depart="99.00" departLane="np3_nt3_0" departPos="6.57" departSpeed="0.00" departDelay="0.82" arrival="406.00" arrivalLane="nt14_np11_0" arrivalPos="75.00" arrivalSpeed="11.32" duration="307.00" routeLength="944.52" waitingTime="192.00" waitingCount="8" stopTime="0.00" timeLoss="238.77" rerouteNo="0" devices="tripinfo_f_0_3.12" vType="type1" speedFactor="1.17" vaporized=""/>
    <tripinfo id="f_0_2.13" depart="107.00" departLane="np2_nt2_0" departPos="64.16" departSpeed="0.00" departDelay="0.63" arrival="408.00" arrivalLane="nt15_np10_0" arrivalPos="75.00" arrivalSpeed="9.67" duration="301.00" routeLength="886.92" waitingTime="100.00" waitingCount="12" stopTime="0.00" timeLoss="220.96" rerouteNo="0" devices="tripinfo_f_0_2.13" vType="type1" speedFactor="0.93" vaporized=""/>
    <tripinfo id="f_0_0.15" depart="205.00" departLane="np13_nt13_0" departPos="11.25" departSpeed="0.00" departDelay="0.46" arrival="417.00" arrivalLane="nt4_np5_0" arrivalPos="75.00" arrivalSpeed="15.95" duration="212.00" routeLength="1336.64" waitingTime="68.00" waitingCount="6" stopTime="0.00" timeLoss="111.08" rerouteNo="0" devices="tripinfo_f_0_0.15" vType="type1" speedFactor="0.92" vaporized=""/>
    <tripinfo id="f_0_1.5" depart="69.00" departLane="np16_nt1_0" departPos="26.05" departSpeed="0.00" departDelay="0.82" arrival="418.00" arrivalLane="nt16_np8_0" arrivalPos="75.00" arrivalSpeed="20.54" duration="349.00" routeLength="1321.83" waitingTime="115.00" waitingCount="12" stopTime="0.00" timeLoss="264.31" rerouteNo="0" devices="tripinfo_f_0_1.5" vType="type1" speedFactor="1.10" vaporized=""/>
    <tripinfo id="f_0_0.16" depart="219.00" departLane="np13_nt13_0" departPos="18.26" departSpeed="0.00" departDelay="0.82" arrival="427.00" arrivalLane="nt4_np5_0" arrivalPos="75.00" arrivalSpeed="18.28" duration="208.00" routeLength="1329.63" waitingTime="62.00" waitingCount="5" stopTime="0.00" timeLoss="115.45" rerouteNo="0" devices="tripinfo_f_0_0.16" vType="type1" speedFactor="1.00" vaporized=""/>
    <tripinfo id="f_0_2.14" depart="115.00" departLane="np2_nt2_0" departPos="9.41" departSpeed="0.00" departDelay="0.45" arrival="437.00" arrivalLane="nt15_np10_0" arrivalPos="75.00" arrivalSpeed="9.48" duration="322.00" routeLength="941.67" waitingTime="130.00" waitingCount="12" stopTime="0.00" timeLoss="238.66" rerouteNo="0" devices="tripinfo_f_0_2.14" vType="type1" speedFactor="0.95" vaporized=""/>
    <tripinfo id="f_0_2.15" depart="123.00" departLane="np2_nt2_0" departPos="36.29" departSpeed="0.00" departDelay="0.27" arrival="439.00" arrivalLane="nt15_np10_0" arrivalPos="75.00" arrivalSpeed="9.08" duration="316.00" routeLength="914.79" waitingTime="120.00" waitingCount="11" stopTime="0.00" timeLoss="241.34" rerouteNo="0" devices="tripinfo_f_0_2.15" vType="type1" speedFactor="1.03" vaporized=""/>
    <tripinfo id="f_0_2.16" depart="131.00" departLane="np2_nt2_0" departPos="14.12" departSpeed="0.00" departDelay="0.09" arrival="441.00" arrivalLane="nt15_np10_0" arrivalPos="75.00" arrivalSpeed="8.92" duration="310.00" routeLength="936.96" waitingTime="116.00" waitingCount="12" stopTime="0.00" timeLoss="234.36" rerouteNo="0" devices="tripinfo_f_0_2.16" vType="type1" speedFactor="1.03" vaporized=""/>
    <tripinfo id="f_0_0.17" depart="232.00" departLane="np13_nt13_0" departPos="44.90" departSpeed="0.00" departDelay="0.19" arrival="448.00" arrivalLane="nt4_np5_0" arrivalPos="75.00" arrivalSpeed="18.35" duration="216.00" routeLength="1302.99" waitingTime="74.00" waitingCount="9" stopTime="0.00" timeLoss="124.36" rerouteNo="0" devices="tripinfo_f_0_0.17" vType="type1" speedFactor="1.00" vaporized=""/>
    <tripinfo id="f_0_0.18" depart="246.00" departLane="np13_nt13_0" departPos="0.51" departSpeed="0.00" departDelay="0.55" arrival="449.00" arrivalLane="nt4_np5_0" arrivalPos="75.00" arrivalSpeed="22.19" duration="203.00" routeLength="1347.38" waitingTime="68.00" waitingCount="8" stopTime="0.00" timeLoss="124.47" rerouteNo="0" devices="tripinfo_f_0_0.18" vType="type1" speedFactor="1.18" vaporized=""/>
    <tripinfo id="f_0_1.6" depart="82.00" departLane="np16_nt1_0" departPos="4.85" departSpeed="0.00" departDelay="0.18" arrival="463.00" arrivalLane="nt16_np8_0" arrivalPos="75.00" arrivalSpeed="17.28" duration="381.00" routeLength="1343.03" waitingTime="147.00" waitingCount="18" stopTime="0.00" timeLoss="273.66" rerouteNo="0" devices="tripinfo_f_0_1.6" vType="type1" speedFactor="0.87" vaporized=""/>
    <tripinfo id="f_0_0.19" depart="260.00" departLane="np13_nt13_0" departPos="38.51" departSpeed="0.00" departDelay="0.92" arrival="464.00" arrivalLane="nt4_np5_0" arrivalPos="75.00" arrivalSpeed="16.46" duration="204.00" routeLength="1309.38" waitingTime="45.00" waitingCount="8" stopTime="0.00" timeLoss="96.09" rerouteNo="0" devices="tripinfo_f_0_0.19" vType="type1" speedFactor="0.85" vaporized=""/>
    <tripinfo id="f_0_0.20" depart="273.00" departLane="np13_nt13_0" departPos="58.67" departSpeed="0.00" departDelay="0.28" arrival="465.00" arrivalLane="nt4_np5_0" arrivalPos="75.00" arrivalSpeed="18.94" duration="192.00" routeLength="1289.22" waitingTime="61.00" waitingCount="4" stopTime="0.00" timeLoss="97.68" rerouteNo="0" devices="tripinfo_f_0_0.20" vType="type1" speedFactor="0.95" vaporized=""/>
    <tripinfo id="f_0_3.13" depart="107.00" departLane="np3_nt3_0" departPos="9.09" departSpeed="0.00" departDelay="0.63" arrival="466.00" arrivalLane="nt14_np11_0" arrivalPos="75.00" arrivalSpeed="11.23" duration="359.00" routeLength="942.00" waitingTime="230.00" waitingCount="11" stopTime="0.00" timeLoss="288.22" rerouteNo="0" devices="tripinfo_f_0_3.13" vType="type1" speedFactor="1.12" vaporized=""/>
    <tripinfo id="f_0_3.14" depart="115.00" departLane="np3_nt3_0" departPos="1.55" departSpeed="0.00" departDelay="0.45" arrival="468.00" arrivalLane="nt14_np11_0" arrivalPos="75.00" arrivalSpeed="10.95" duration="353.00" routeLength="949.54" waitingTime="211.00" waitingCount="9" stopTime="0.00" timeLoss="283.11" rerouteNo="0" devices="tripinfo_f_0_3.14" vType="type1" speedFactor="1.14" vaporized=""/>
    <tripinfo id="f_0_0.21" depart="287.00" departLane="np13_nt13_0" departPos="30.71" departSpeed="0.00" departDelay="0.64" arrival="477.00" arrivalLane="nt4_np5_0" arrivalPos="75.00" arrivalSpeed="17.36" duration="190.00" routeLength="1317.18" waitingTime="54.00" waitingCount="5" stopTime="0.00" timeLoss="87.62" rerouteNo="0" devices="tripinfo_f_0_0.21" vType="type1" speedFactor="0.90" vaporized=""/>
    <tripinfo id="f_0_3.16" depart="154.00" departLane="np3_nt3_0" departPos="10.85" departSpeed="0.00" departDelay="23.09" arrival="478.00" arrivalLane="nt14_np11_0" arrivalPos="75.00" arrivalSpeed="8.06" duration="324.00" routeLength="940.24" waitingTime="188.00" waitingCount="8" stopTime="0.00" timeLoss="237.18" rerouteNo="0" devices="tripinfo_f_0_3.16" vType="type1" speedFactor="0.91" vaporized=""/>
    <tripinfo id="f_0_0.22" depart="300.00" departLane="np13_nt13_0" departPos="36.32" departSpeed="0.00" departDelay="0.01" arrival="479.00" arrivalLane="nt4_np5_0" arrivalPos="75.00" arrivalSpeed="18.11" duration="179.00" routeLength="1311.57" waitingTime="44.00" waitingCount="6" stopTime="0.00" timeLoss="82.40" rerouteNo="0" devices="tripinfo_f_0_0.22" vType="type1" speedFactor="0.95" vaporized=""/>
    <tripinfo id="f_1_0.0" depart="300.00" departLane="np13_nt13_0" departPos="4.83" departSpeed="0.00" departDelay="0.00" arrival="480.00" arrivalLane="nt4_np5_0" arrivalPos="75.00" arrivalSpeed="18.93" duration="180.00" routeLength="1343.06" waitingTime="36.00" waitingCount="6" stopTime="0.00" timeLoss="85.22" rerouteNo="0" devices="tripinfo_f_1_0.0" vType="type1" speedFactor="0.98" vaporized=""/>
    <tripinfo id="f_0_3.15" depart="153.00" departLane="np3_nt3_0" departPos="2.11" departSpeed="0.00" departDelay="30.27" arrival="482.00" arrivalLane="nt14_np11_0" arrivalPos="75.00" arrivalSpeed="8.02" duration="329.00" routeLength="948.98" waitingTime="171.00" waitingCount="9" stopTime="0.00" timeLoss="227.97" rerouteNo="0" devices="tripinfo_f_0_3.15" vType="type1" speedFactor="0.79" vaporized=""/>
    <tripinfo id="f_1_0.1" depart="308.00" departLane="np13_nt13_0" departPos="32.29" departSpeed="0.00" departDelay="0.19" arrival="484.00" arrivalLane="nt4_np5_0" arrivalPos="75.00" arrivalSpeed="16.53" duration="176.00" routeLength="1315.60" waitingTime="24.00" waitingCount="5" stopTime="0.00" timeLoss="74.60" rerouteNo="0" devices="tripinfo_f_1_0.1" vType="type1" speedFactor="0.90" vaporized=""/>
    <tripinfo id="f_1_0.2" depart="316.00" departLane="np13_nt13_0" departPos="17.23" departSpeed="0.00" departDelay="0.38" arrival="488.00" arrivalLane="nt4_np5_0" arrivalPos="75.00" arrivalSpeed="18.03" duration="172.00" routeLength="1330.66" waitingTime="22.00" waitingCount="4" stopTime="0.00" timeLoss="77.40" rerouteNo="0" devices="tripinfo_f_1_0.2" vType="type1" speedFactor="0.98" vaporized=""/>
    <tripinfo id="f_0_3.17" depart="159.00" departLane="np3_nt3_0" departPos="0.00" departSpeed="0.00" departDelay="19.91" arrival="500.00" arrivalLane="nt14_np11_0" arrivalPos="75.00" arrivalSpeed="7.70" duration="341.00" routeLength="951.09" waitingTime="185.00" waitingCount="10" stopTime="0.00" timeLoss="244.40" rerouteNo="0" devices="tripinfo_f_0_3.17" vType="type1" speedFactor="0.83" vaporized=""/>
    <tripinfo id="f_0_3.18" depart="223.00" departLane="np3_nt3_0" departPos="0.00" departSpeed="0.00" departDelay="75.72" arrival="502.00" arrivalLane="nt14_np11_0" arrivalPos="75.00" arrivalSpeed="11.56" duration="279.00" routeLength="951.09" waitingTime="125.00" waitingCount="9" stopTime="0.00" timeLoss="202.59" rerouteNo="0" devices="tripinfo_f_0_3.18" vType="type1" speedFactor="1.05" vaporized=""/>
    <tripinfo id="f_1_0.3" depart="324.00" departLane="np13_nt13_0" departPos="47.27" departSpeed="0.00" departDelay="0.57" arrival="502.00" arrivalLane="nt4_np5_0" arrivalPos="75.00" arrivalSpeed="19.33" duration="178.00" routeLength="1300.62" waitingTime="35.00" waitingCount="6" stopTime="0.00" timeLoss="90.52" rerouteNo="0" devices="tripinfo_f_1_0.3" vType="type1" speedFactor="1.04" vaporized=""/>
    <tripinfo id="f_0_3.19" depart="226.00" departLane="np3_nt3_0" departPos="2.41" departSpeed="0.00" departDelay="70.54" arrival="504.00" arrivalLane="nt14_np11_0" arrivalPos="75.00" arrivalSpeed="10.45" duration="278.00" routeLength="948.68" waitingTime="128.00" waitingCount="10" stopTime="0.00" timeLoss="200.44" rerouteNo="0" devices="tripinfo_f_0_3.19" vType="type1" speedFactor="1.04" vaporized=""/>