<?xml version="1.0" encoding="UTF-8"?>

<!-- generated on 2023-08-30 12:20:17 by Eclipse SUMO libsumo Version 1.18.0
<configuration xmlns:xsi="http://www.w3.org/2001/XMLSchema-instance" xsi:noNamespaceSchemaLocation="http://sumo.dlr.de/xsd/libsumoConfiguration.xsd">

    <input>
        <net-file value="/home/stefan/RESCO/./environments/arterial4x4/arterial4x4.net.xml"/>
        <route-files value="/home/stefan/RESCO/./environments/arterial4x4/arterial4x4_6.rou.xml"/>
    </input>

    <output>
        <tripinfo-output value="/home/stefan/results/ITRPO-tr0-arterial4x4-0-drq_norm-wait_norm/tripinfo_6.xml"/>
        <tripinfo-output.write-unfinished value="true"/>
    </output>

    <processing>
        <time-to-teleport value="-1"/>
    </processing>

    <report>
        <no-warnings value="True"/>
        <no-step-log value="True"/>
    </report>

    <random_number>
        <random value="true"/>
    </random_number>

</configuration>
-->

<tripinfos xmlns:xsi="http://www.w3.org/2001/XMLSchema-instance" xsi:noNamespaceSchemaLocation="http://sumo.dlr.de/xsd/tripinfo_file.xsd">
    <tripinfo id="f_0_1.0" depart="0.00" departLane="np16_nt1_0" departPos="59.58" departSpeed="0.00" departDelay="0.00" arrival="108.00" arrivalLane="nt16_np8_0" arrivalPos="75.00" arrivalSpeed="21.24" duration="108.00" routeLength="1288.30" waitingTime="3.00" waitingCount="1" stopTime="0.00" timeLoss="25.32" rerouteNo="0" devices="tripinfo_f_0_1.0" vType="type1" speedFactor="1.09" vaporized=""/>
    <tripinfo id="f_0_2.0" depart="0.00" departLane="np2_nt2_0" departPos="11.49" departSpeed="0.00" departDelay="0.00" arrival="144.00" arrivalLane="nt15_np10_0" arrivalPos="75.00" arrivalSpeed="9.21" duration="144.00" routeLength="939.59" waitingTime="29.00" waitingCount="2" stopTime="0.00" timeLoss="57.07" rerouteNo="0" devices="tripinfo_f_0_2.0" vType="type1" speedFactor="0.92" vaporized=""/>
    <tripinfo id="f_0_2.1" depart="9.00" departLane="np2_nt2_0" departPos="53.07" departSpeed="0.00" departDelay="0.82" arrival="173.00" arrivalLane="nt15_np10_0" arrivalPos="75.00" arrivalSpeed="8.31" duration="164.00" routeLength="898.01" waitingTime="50.00" waitingCount="4" stopTime="0.00" timeLoss="81.23" rerouteNo="0" devices="tripinfo_f_0_2.1" vType="type1" speedFactor="0.90" vaporized=""/>
    <tripinfo id="f_0_1.1" depart="14.00" departLane="np16_nt1_0" departPos="23.85" departSpeed="0.00" departDelay="0.36" arrival="182.00" arrivalLane="nt16_np8_0" arrivalPos="75.00" arrivalSpeed="19.33" duration="168.00" routeLength="1324.03" waitingTime="49.00" waitingCount="3" stopTime="0.00" timeLoss="79.85" rerouteNo="0" devices="tripinfo_f_0_1.1" vType="type1" speedFactor="1.05" vaporized=""/>
    <tripinfo id="f_0_2.2" depart="17.00" departLane="np2_nt2_0" departPos="17.28" departSpeed="0.00" departDelay="0.64" arrival="187.00" arrivalLane="nt15_np10_0" arrivalPos="75.00" arrivalSpeed="10.02" duration="170.00" routeLength="933.80" waitingTime="62.00" waitingCount="5" stopTime="0.00" timeLoss="94.90" rerouteNo="0" devices="tripinfo_f_0_2.2" vType="type1" speedFactor="1.05" vaporized=""/>
    <tripinfo id="f_0_3.0" depart="0.00" departLane="np3_nt3_0" departPos="14.80" departSpeed="0.00" departDelay="0.00" arrival="204.00" arrivalLane="nt14_np11_0" arrivalPos="75.00" arrivalSpeed="9.04" duration="204.00" routeLength="936.29" waitingTime="102.00" waitingCount="3" stopTime="0.00" timeLoss="123.59" rerouteNo="0" devices="tripinfo_f_0_3.0" vType="type1" speedFactor="0.98" vaporized=""/>
    <tripinfo id="f_0_3.1" depart="9.00" departLane="np3_nt3_0" departPos="53.79" departSpeed="0.00" departDelay="0.82" arrival="217.00" arrivalLane="nt14_np11_0" arrivalPos="75.00" arrivalSpeed="11.01" duration="208.00" routeLength="897.30" waitingTime="104.00" waitingCount="5" stopTime="0.00" timeLoss="135.31" rerouteNo="0" devices="tripinfo_f_0_3.1" vType="type1" speedFactor="1.04" vaporized=""/>
    <tripinfo id="f_0_3.2" depart="17.00" departLane="np3_nt3_0" departPos="20.75" departSpeed="0.00" departDelay="0.64" arrival="276.00" arrivalLane="nt14_np11_0" arrivalPos="75.00" arrivalSpeed="12.79" duration="259.00" routeLength="930.34" waitingTime="159.00" waitingCount="5" stopTime="0.00" timeLoss="192.94" rerouteNo="0" devices="tripinfo_f_0_3.2" vType="type1" speedFactor="1.18" vaporized=""/>
    <tripinfo id="f_0_3.3" depart="25.00" departLane="np3_nt3_0" departPos="39.79" departSpeed="0.00" departDelay="0.45" arrival="279.00" arrivalLane="nt14_np11_0" arrivalPos="75.00" arrivalSpeed="10.95" duration="254.00" routeLength="911.30" waitingTime="145.00" waitingCount="7" stopTime="0.00" timeLoss="180.42" rerouteNo="0" devices="tripinfo_f_0_3.3" vType="type1" speedFactor="1.04" vaporized=""/>
    <tripinfo id="f_0_3.4" depart="33.00" departLane="np3_nt3_0" departPos="17.14" departSpeed="0.00" departDelay="0.27" arrival="281.00" arrivalLane="nt14_np11_0" arrivalPos="75.00" arrivalSpeed="11.44" duration="248.00" routeLength="933.95" waitingTime="133.00" waitingCount="7" stopTime="0.00" timeLoss="174.66" rerouteNo="0" devices="tripinfo_f_0_3.4" vType="type1" speedFactor="1.07" vaporized=""/>
    <tripinfo id="f_0_2.3" depart="25.00" departLane="np2_nt2_0" departPos="28.95" departSpeed="0.00" departDelay="0.45" arrival="282.00" arrivalLane="nt15_np10_0" arrivalPos="75.00" arrivalSpeed="9.57" duration="257.00" routeLength="922.13" waitingTime="146.00" waitingCount="8" stopTime="0.00" timeLoss="181.35" rerouteNo="0" devices="tripinfo_f_0_2.3" vType="type1" speedFactor="1.02" vaporized=""/>
    <tripinfo id="f_0_3.5" depart="41.00" departLane="np3_nt3_0" departPos="27.28" departSpeed="0.00" departDelay="0.09" arrival="283.00" arrivalLane="nt14_np11_0" arrivalPos="75.00" arrivalSpeed="10.76" duration="242.00" routeLength="923.81" waitingTime="123.00" waitingCount="7" stopTime="0.00" timeLoss="173.10" rerouteNo="0" devices="tripinfo_f_0_3.5" vType="type1" speedFactor="1.13" vaporized=""/>
    <tripinfo id="f_0_2.4" depart="33.00" departLane="np2_nt2_0" departPos="42.27" departSpeed="0.00" departDelay="0.27" arrival="285.00" arrivalLane="nt15_np10_0" arrivalPos="75.00" arrivalSpeed="10.46" duration="252.00" routeLength="908.81" waitingTime="136.00" waitingCount="9" stopTime="0.00" timeLoss="175.78" rerouteNo="0" devices="tripinfo_f_0_2.4" vType="type1" speedFactor="1.01" vaporized=""/>
    <tripinfo id="f_0_2.5" depart="41.00" departLane="np2_nt2_0" departPos="38.25" departSpeed="0.00" departDelay="0.09" arrival="301.00" arrivalLane="nt15_np10_0" arrivalPos="75.00" arrivalSpeed="12.19" duration="260.00" routeLength="912.83" waitingTime="134.00" waitingCount="9" stopTime="0.00" timeLoss="192.09" rerouteNo="0" devices="tripinfo_f_0_2.5" vType="type1" speedFactor="1.12" vaporized=""/>
    <tripinfo id="f_0_1.2" depart="28.00" departLane="np16_nt1_0" departPos="11.90" departSpeed="0.00" departDelay="0.73" arrival="318.00" arrivalLane="nt16_np8_0" arrivalPos="75.00" arrivalSpeed="17.20" duration="290.00" routeLength="1335.98" waitingTime="129.00" waitingCount="10" stopTime="0.00" timeLoss="184.35" rerouteNo="0" devices="tripinfo_f_0_1.2" vType="type1" speedFactor="0.88" vaporized=""/>
    <tripinfo id="f_0_3.6" depart="50.00" departLane="np3_nt3_0" departPos="5.47" departSpeed="0.00" departDelay="0.91" arrival="325.00" arrivalLane="nt14_np11_0" arrivalPos="75.00" arrivalSpeed="8.31" duration="275.00" routeLength="945.62" waitingTime="140.00" waitingCount="7" stopTime="0.00" timeLoss="177.39" rerouteNo="0" devices="tripinfo_f_0_3.6" vType="type1" speedFactor="0.82" vaporized=""/>
    <tripinfo id="f_0_3.7" depart="58.00" departLane="np3_nt3_0" departPos="23.24" departSpeed="0.00" departDelay="0.73" arrival="327.00" arrivalLane="nt14_np11_0" arrivalPos="75.00" arrivalSpeed="8.26" duration="269.00" routeLength="927.85" waitingTime="141.00" waitingCount="5" stopTime="0.00" timeLoss="185.56" rerouteNo="0" devices="tripinfo_f_0_3.7" vType="type1" speedFactor="0.94" vaporized=""/>
    <tripinfo id="f_0_1.3" depart="41.00" departLane="np16_nt1_0" departPos="20.68" departSpeed="0.00" departDelay="0.09" arrival="343.00" arrivalLane="nt16_np8_0" arrivalPos="75.00" arrivalSpeed="20.34" duration="302.00" routeLength="1327.20" waitingTime="149.00" waitingCount="10" stopTime="0.00" timeLoss="213.36" rerouteNo="0" devices="tripinfo_f_0_1.3" vType="type1" speedFactor="1.04" vaporized=""/>
    <tripinfo id="f_0_2.6" depart="50.00" departLane="np2_nt2_0" departPos="0.79" departSpeed="0.00" departDelay="0.91" arrival="346.00" arrivalLane="nt15_np10_0" arrivalPos="75.00" arrivalSpeed="11.36" duration="296.00" routeLength="950.29" waitingTime="155.00" waitingCount="10" stopTime="0.00" timeLoss="227.60" rerouteNo="0" devices="tripinfo_f_0_2.6" vType="type1" speedFactor="1.17" vaporized=""/>
    <tripinfo id="f_0_3.8" depart="66.00" departLane="np3_nt3_0" departPos="13.08" departSpeed="0.00" departDelay="0.54" arrival="347.00" arrivalLane="nt14_np11_0" arrivalPos="75.00" arrivalSpeed="11.13" duration="281.00" routeLength="938.01" waitingTime="165.00" waitingCount="7" stopTime="0.00" timeLoss="206.95" rerouteNo="0" devices="tripinfo_f_0_3.8" vType="type1" speedFactor="1.06" vaporized=""/>
    <tripinfo id="f_0_0.0" depart="0.00" departLane="np13_nt13_0" departPos="3.66" departSpeed="0.00" departDelay="0.00" arrival="353.00" arrivalLane="nt4_np5_0" arrivalPos="75.00" arrivalSpeed="16.65" duration="353.00" routeLength="1344.23" waitingTime="213.00" waitingCount="6" stopTime="0.00" timeLoss="253.96" rerouteNo="0" devices="tripinfo_f_0_0.0" vType="type1" speedFactor="0.94" vaporized=""/>
    <tripinfo id="f_0_0.1" depart="14.00" departLane="np13_nt13_0" departPos="46.56" departSpeed="0.00" departDelay="0.36" arrival="354.00" arrivalLane="nt4_np5_0" arrivalPos="75.00" arrivalSpeed="20.39" duration="340.00" routeLength="1301.33" waitingTime="203.00" waitingCount="6" stopTime="0.00" timeLoss="256.39" rerouteNo="0" devices="tripinfo_f_0_0.1" vType="type1" speedFactor="1.08" vaporized=""/>
    <tripinfo id="f_0_3.9" depart="74.00" departLane="np3_nt3_0" departPos="5.64" departSpeed="0.00" departDelay="0.36" arrival="362.00" arrivalLane="nt14_np11_0" arrivalPos="75.00" arrivalSpeed="9.37" duration="288.00" routeLength="945.45" waitingTime="162.00" waitingCount="10" stopTime="0.00" timeLoss="213.33" rerouteNo="0" devices="tripinfo_f_0_3.9" vType="type1" speedFactor="1.06" vaporized=""/>
    <tripinfo id="f_0_3.10" depart="82.00" departLane="np3_nt3_0" departPos="25.36" departSpeed="0.00" departDelay="0.18" arrival="364.00" arrivalLane="nt14_np11_0" arrivalPos="75.00" arrivalSpeed="11.65" duration="282.00" routeLength="925.73" waitingTime="165.00" waitingCount="8" stopTime="0.00" timeLoss="209.75" rerouteNo="0" devices="tripinfo_f_0_3.10" vType="type1" speedFactor="1.08" vaporized=""/>
    <tripinfo id="f_0_0.2" depart="28.00" departLane="np13_nt13_0" departPos="41.67" departSpeed="0.00" departDelay="0.73" arrival="369.00" arrivalLane="nt4_np5_0" arrivalPos="75.00" arrivalSpeed="16.19" duration="341.00" routeLength="1306.22" waitingTime="184.00" waitingCount="8" stopTime="0.00" timeLoss="231.26" rerouteNo="0" devices="tripinfo_f_0_0.2" vType="type1" speedFactor="0.83" vaporized=""/>
    <tripinfo id="f_0_0.3" depart="41.00" departLane="np13_nt13_0" departPos="62.59" departSpeed="0.00" departDelay="0.09" arrival="371.00" arrivalLane="nt4_np5_0" arrivalPos="75.00" arrivalSpeed="15.93" duration="330.00" routeLength="1285.30" waitingTime="181.00" waitingCount="9" stopTime="0.00" timeLoss="231.05" rerouteNo="0" devices="tripinfo_f_0_0.3" vType="type1" speedFactor="0.91" vaporized=""/>
    <tripinfo id="f_0_0.4" depart="55.00" departLane="np13_nt13_0" departPos="42.15" departSpeed="0.00" departDelay="0.46" arrival="373.00" arrivalLane="nt4_np5_0" arrivalPos="75.00" arrivalSpeed="22.66" duration="318.00" routeLength="1305.74" waitingTime="179.00" waitingCount="8" stopTime="0.00" timeLoss="237.83" rerouteNo="0" devices="tripinfo_f_0_0.4" vType="type1" speedFactor="1.14" vaporized=""/>
    <tripinfo id="f_0_0.5" depart="69.00" departLane="np13_nt13_0" departPos="42.50" departSpeed="0.00" departDelay="0.82" arrival="374.00" arrivalLane="nt4_np5_0" arrivalPos="75.00" arrivalSpeed="17.26" duration="305.00" routeLength="1305.39" waitingTime="152.00" waitingCount="10" stopTime="0.00" timeLoss="201.05" rerouteNo="0" devices="tripinfo_f_0_0.5" vType="type1" speedFactor="0.87" vaporized=""/>
    <tripinfo id="f_0_0.6" depart="82.00" departLane="np13_nt13_0" departPos="44.91" departSpeed="0.00" departDelay="0.18" arrival="384.00" arrivalLane="nt4_np5_0" arrivalPos="75.00" arrivalSpeed="19.30" duration="302.00" routeLength="1302.98" waitingTime="155.00" waitingCount="8" stopTime="0.00" timeLoss="209.39" rerouteNo="0" devices="tripinfo_f_0_0.6" vType="type1" speedFactor="0.99" vaporized=""/>
    <tripinfo id="f_0_0.7" depart="96.00" departLane="np13_nt13_0" departPos="37.26" departSpeed="0.00" departDelay="0.55" arrival="403.00" arrivalLane="nt4_np5_0" arrivalPos="75.00" arrivalSpeed="19.49" duration="307.00" routeLength="1310.63" waitingTime="153.00" waitingCount="9" stopTime="0.00" timeLoss="214.31" rerouteNo="0" devices="tripinfo_f_0_0.7" vType="type1" speedFactor="0.99" vaporized=""/>
    <tripinfo id="f_0_0.8" depart="110.00" departLane="np13_nt13_0" departPos="54.28" departSpeed="0.00" departDelay="0.91" arrival="405.00" arrivalLane="nt4_np5_0" arrivalPos="75.00" arrivalSpeed="17.69" duration="295.00" routeLength="1293.61" waitingTime="140.00" waitingCount="9" stopTime="0.00" timeLoss="201.38" rerouteNo="0" devices="tripinfo_f_0_0.8" vType="type1" speedFactor="0.97" vaporized=""/>
    <tripinfo id="f_0_0.9" depart="123.00" departLane="np13_nt13_0" departPos="26.48" departSpeed="0.00" departDelay="0.28" arrival="407.00" arrivalLane="nt4_np5_0" arrivalPos="75.00" arrivalSpeed="17.25" duration="284.00" routeLength="1321.41" waitingTime="118.00" waitingCount="10" stopTime="0.00" timeLoss="188.31" rerouteNo="0" devices="tripinfo_f_0_0.9" vType="type1" speedFactor="0.96" vaporized=""/>
    <tripinfo id="f_0_0.10" depart="137.00" departLane="np13_nt13_0" departPos="45.82" departSpeed="0.00" departDelay="0.64" arrival="409.00" arrivalLane="nt4_np5_0" arrivalPos="75.00" arrivalSpeed="16.27" duration="272.00" routeLength="1302.07" waitingTime="121.00" waitingCount="8" stopTime="0.00" timeLoss="175.18" rerouteNo="0" devices="tripinfo_f_0_0.10" vType="type1" speedFactor="0.94" vaporized=""/>
    <tripinfo id="f_0_0.11" depart="150.00" departLane="np13_nt13_0" departPos="14.07" departSpeed="0.00" departDelay="0.00" arrival="424.00" arrivalLane="nt4_np5_0" arrivalPos="75.00" arrivalSpeed="13.57" duration="274.00" routeLength="1333.82" waitingTime="101.00" waitingCount="9" stopTime="0.00" timeLoss="152.26" rerouteNo="0" devices="tripinfo_f_0_0.11" vType="type1" speedFactor="0.76" vaporized=""/>
    <tripinfo id="f_0_2.7" depart="58.00" departLane="np2_nt2_0" departPos="9.53" departSpeed="0.00" departDelay="0.73" arrival="428.00" arrivalLane="nt15_np10_0" arrivalPos="75.00" arrivalSpeed="8.95" duration="370.00" routeLength="941.55" waitingTime="217.00" waitingCount="9" stopTime="0.00" timeLoss="287.67" rerouteNo="0" devices="tripinfo_f_0_2.7" vType="type1" speedFactor="0.97" vaporized=""/>
    <tripinfo id="f_0_2.8" depart="66.00" departLane="np2_nt2_0" departPos="25.88" departSpeed="0.00" departDelay="0.54" arrival="443.00" arrivalLane="nt15_np10_0" arrivalPos="75.00" arrivalSpeed="8.33" duration="377.00" routeLength="925.20" waitingTime="210.00" waitingCount="11" stopTime="0.00" timeLoss="294.66" rerouteNo="0" devices="tripinfo_f_0_2.8" vType="type1" speedFactor="0.94" vaporized=""/>
    <tripinfo id="f_0_1.4" depart="55.00" departLane="np16_nt1_0" departPos="5.04" departSpeed="0.00" departDelay="0.46" arrival="449.00" arrivalLane="nt16_np8_0" arrivalPos="75.00" arrivalSpeed="18.91" duration="394.00" routeLength="1342.84" waitingTime="223.00" waitingCount="10" stopTime="0.00" timeLoss="300.43" rerouteNo="0" devices="tripinfo_f_0_1.4" vType="type1" speedFactor="0.99" vaporized=""/>
    <tripinfo id="f_0_2.9" depart="74.00" departLane="np2_nt2_0" departPos="13.45" departSpeed="0.00" departDelay="0.36" arrival="456.00" arrivalLane="nt15_np10_0" arrivalPos="75.00" arrivalSpeed="10.80" duration="382.00" routeLength="937.63" waitingTime="215.00" waitingCount="12" stopTime="0.00" timeLoss="309.14" rerouteNo="0" devices="tripinfo_f_0_2.9" vType="type1" speedFactor="1.08" vaporized=""/>
    <tripinfo id="f_0_2.10" depart="82.00" departLane="np2_nt2_0" departPos="9.46" departSpeed="0.00" departDelay="0.18" arrival="458.00" arrivalLane="nt15_np10_0" arrivalPos="75.00" arrivalSpeed="11.41" duration="376.00" routeLength="941.62" waitingTime="211.00" waitingCount="10" stopTime="0.00" timeLoss="307.27" rerouteNo="0" devices="tripinfo_f_0_2.10" vType="type1" speedFactor="1.15" vaporized=""/>
    <tripinfo id="f_0_3.11" depart="90.00" departLane="np3_nt3_0" departPos="19.11" departSpeed="0.00" departDelay="0.00" arrival="472.00" arrivalLane="nt14_np11_0" arrivalPos="75.00" arrivalSpeed="11.76" duration="382.00" routeLength="931.98" waitingTime="261.00" waitingCount="10" stopTime="0.00" timeLoss="309.26" rerouteNo="0" devices="tripinfo_f_0_3.11" vType="type1" speedFactor="1.08" vaporized=""/>
    <tripinfo id="f_0_1.5" depart="69.00" departLane="np16_nt1_0" departPos="35.10" departSpeed="0.00" departDelay="0.82" arrival="488.00" arrivalLane="nt16_np8_0" arrivalPos="75.00" arrivalSpeed="20.10" duration="419.00" routeLength="1312.78" waitingTime="229.00" waitingCount="14" stopTime="0.00" timeLoss="335.07" rerouteNo="0" devices="tripinfo_f_0_1.5" vType="type1" speedFactor="1.09" vaporized=""/>
    <tripinfo id="f_0_1.6" depart="82.00" departLane="np16_nt1_0" departPos="51.71" departSpeed="0.00" departDelay="0.18" arrival="528.00" arrivalLane="nt16_np8_0" arrivalPos="75.00" arrivalSpeed="19.38" duration="446.00" routeLength="1296.17" waitingTime="249.00" waitingCount="13" stopTime="0.00" timeLoss="355.20" rerouteNo="0" devices="tripinfo_f_0_1.6" vType="type1" speedFactor="1.00" vaporized=""/>
    <tripinfo id="f_0_3.12" depart="99.00" departLane="np3_nt3_0" departPos="11.18" departSpeed="0.00" departDelay="0.82" arrival="558.00" arrivalLane="nt14_np11_0" arrivalPos="75.00" arrivalSpeed="9.79" duration="459.00" routeLength="939.91" waitingTime="323.00" waitingCount="9" stopTime="0.00" timeLoss="373.90" rerouteNo="0" devices="tripinfo_f_0_3.12" vType="type1" speedFactor="0.93" vaporized=""/>
    <tripinfo id="f_0_3.13" depart="107.00" departLane="np3_nt3_0" departPos="18.07" departSpeed="0.00" departDelay="0.63" arrival="560.00" arrivalLane="nt14_np11_0" arrivalPos="75.00" arrivalSpeed="11.17" duration="453.00" routeLength="933.02" waitingTime="325.00" waitingCount="10" stopTime="0.00" timeLoss="382.29" rerouteNo="0" devices="tripinfo_f_0_3.13" vType="type1" speedFactor="1.11" vaporized=""/>
    <tripinfo id="f_0_3.14" depart="115.00" departLane="np3_nt3_0" departPos="2.94" departSpeed="0.00" departDelay="0.45" arrival="573.00" arrivalLane="nt14_np11_0" arrivalPos="75.00" arrivalSpeed="11.00" duration="458.00" routeLength="948.15" waitingTime="313.00" waitingCount="13" stopTime="0.00" timeLoss="378.09" rerouteNo="0" devices="tripinfo_f_0_3.14" vType="type1" speedFactor="1.00" vaporized=""/>
    <tripinfo id="f_0_3.15" depart="123.00" departLane="np3_nt3_0" departPos="0.00" departSpeed="0.00" departDelay="0.27" arrival="583.00" arrivalLane="nt14_np11_0" arrivalPos="75.00" arrivalSpeed="10.12" duration="460.00" routeLength="951.09" waitingTime="297.00" waitingCount="12" stopTime="0.00" timeLoss="378.84" rerouteNo="0" devices="tripinfo_f_0_3.15" vType="type1" speedFactor="0.98" vaporized=""/>
    <tripinfo id="f_0_3.16" depart="131.00" departLane="np3_nt3_0" departPos="4.74" departSpeed="0.00" departDelay="0.09" arrival="613.00" arrivalLane="nt14_np11_0" arrivalPos="75.00" arrivalSpeed="10.42" duration="482.00" routeLength="946.35" waitingTime="327.00" waitingCount="10" stopTime="0.00" timeLoss="400.31" rerouteNo="0" devices="tripinfo_f_0_3.16" vType="type1" speedFactor="0.98" vaporized=""/>
    <tripinfo id="f_0_3.17" depart="140.00" departLane="np3_nt3_0" departPos="2.30" departSpeed="0.00" departDelay="0.91" arrival="615.00" arrivalLane="nt14_np11_0" arrivalPos="75.00" arrivalSpeed="8.22" duration="475.00" routeLength="948.79" waitingTime="321.00" waitingCount="10" stopTime="0.00" timeLoss="390.77" rerouteNo="0" devices="tripinfo_f_0_3.17" vType="type1" speedFactor="0.95" vaporized=""/>
    <tripinfo id="f_0_3.18" depart="148.00" departLane="np3_nt3_0" departPos="0.00" departSpeed="0.00" departDelay="0.72" arrival="617.00" arrivalLane="nt14_np11_0" arrivalPos="75.00" arrivalSpeed="9.11" duration="469.00" routeLength="951.09" waitingTime="312.00" waitingCount="12" stopTime="0.00" timeLoss="388.99" rerouteNo="0" devices="tripinfo_f_0_3.18" vType="type1" speedFactor="1.00" vaporized=""/>
    <tripinfo id="f_0_3.19" depart="158.00" departLane="np3_nt3_0" departPos="0.47" departSpeed="0.00" departDelay="2.54" arrival="669.00" arrivalLane="nt14_np11_0" arrivalPos="75.00" arrivalSpeed="8.47" duration="511.00" routeLength="950.62" waitingTime="337.00" waitingCount="10" stopTime="0.00" timeLoss="412.67" rerouteNo="0" devices="tripinfo_f_0_3.19" vType="type1" speedFactor="0.81" vaporized=""/>
    <tripinfo id="f_0_3.20" depart="182.00" departLane="np3_nt3_0" departPos="0.00" departSpeed="0.00" departDelay="18.36" arrival="671.00" arrivalLane="nt14_np11_0" arrivalPos="75.00" arrivalSpeed="12.27" duration="489.00" routeLength="951.09" waitingTime="335.00" waitingCount="10" stopTime="0.00" timeLoss="418.15" rerouteNo="0" devices="tripinfo_f_0_3.20" vType="type1" speedFactor="1.13" vaporized=""/>
    <tripinfo id="f_0_3.21" depart="186.00" departLane="np3_nt3_0" departPos="0.00" departSpeed="0.00" departDelay="14.18" arrival="673.00" arrivalLane="nt14_np11_0" arrivalPos="75.00" arrivalSpeed="11.09" duration="487.00" routeLength="951.09" waitingTime="326.00" waitingCount="10" stopTime="0.00" timeLoss="412.57" rerouteNo="0" devices="tripinfo_f_0_3.21" vType="type1" speedFactor="1.08" vaporized=""/>
    <tripinfo id="f_0_3.22" depart="342.00" departLane="np3_nt3_0" departPos="0.00" departSpeed="0.00" departDelay="162.00" arrival="675.00" arrivalLane="nt14_np11_0" arrivalPos="75.00" arrivalSpeed="10.30" duration="333.00" routeLength="951.09" waitingTime="169.00" waitingCount="10" stopTime="0.00" timeLoss="249.60" rerouteNo="0" devices="tripinfo_f_0_3.22" vType="type1" speedFactor="0.96" vaporized=""/>
    <tripinfo id="f_0_3.23" depart="345.00" departLane="np3_nt3_0" departPos="0.77" departSpeed="0.00" departDelay="156.81" arrival="742.00" arrivalLane="nt14_np11_0" arrivalPos="75.00" arrivalSpeed="9.22" duration="397.00" routeLength="950.32" waitingTime="232.00" waitingCount="11" stopTime="0.00" timeLoss="319.69" rerouteNo="0" devices="tripinfo_f_0_3.23" vType="type1" speedFactor="1.03" vaporized=""/>
    <tripinfo id="f_0_3.24" depart="348.00" departLane="np3_nt3_0" departPos="0.00" departSpeed="0.00" departDelay="151.63" arrival="744.00" arrivalLane="nt14_np11_0" arrivalPos="75.00" arrivalSpeed="9.88" duration="396.00" routeLength="951.09" waitingTime="230.00" waitingCount="10" stopTime="0.00" timeLoss="316.09" rerouteNo="0" devices="tripinfo_f_0_3.24" vType="type1" speedFactor="1.00" vaporized=""/>
    <tripinfo id="f_0_3.25" depart="351.00" departLane="np3_nt3_0" departPos="0.00" departSpeed="0.00" departDelay="146.45" arrival="759.00" arrivalLane="nt14_np11_0" arrivalPos="75.00" arrivalSpeed="8.55" duration="408.00" routeLength="951.09" waitingTime="236.00" waitingCount="13" stopTime="0.00" timeLoss="316.48" rerouteNo="0" devices="tripinfo_f_0_3.25" vType="type1" speedFactor="0.88" vaporized=""/>
    <tripinfo id="f_0_3.26" depart="358.00" departLane="np3_nt3_0" departPos="0.00" departSpeed="0.00" departDelay="145.27" arrival="793.00" arrivalLane="nt14_np11_0" arrivalPos="75.00" arrivalSpeed="9.01" duration="435.00" routeLength="951.09" waitingTime="263.00" waitingCount="9" stopTime="0.00" timeLoss="350.18" rerouteNo="0" devices="tripinfo_f_0_3.26" vType="type1" speedFactor="0.95" vaporized=""/>
    <tripinfo id="f_0_3.27" depart="360.00" departLane="np3_nt3_0" departPos="0.00" departSpeed="0.00" departDelay="139.09" arrival="831.00" arrivalLane="nt14_np11_0" arrivalPos="75.00" arrivalSpeed="11.02" duration="471.00" routeLength="951.09" waitingTime="303.00" waitingCount="11" stopTime="0.00" timeLoss="393.76" rerouteNo="0" devices="tripinfo_f_0_3.27" vType="type1" speedFactor="1.04" vaporized=""/>
    <tripinfo id="f_0_3.28" depart="365.00" departLane="np3_nt3_0" departPos="0.00" departSpeed="0.00" departDelay="135.90" arrival="833.00" arrivalLane="nt14_np11_0" arrivalPos="75.00" arrivalSpeed="11.01" duration="468.00" routeLength="951.09" waitingTime="302.00" waitingCount="11" stopTime="0.00" timeLoss="395.46" rerouteNo="0" devices="tripinfo_f_0_3.28" vType="type1" speedFactor="1.10" vaporized=""/>
    <tripinfo id="f_0_3.29" depart="372.00" departLane="np3_nt3_0" departPos="0.48" departSpeed="0.00" departDelay="134.72" arrival="899.00" arrivalLane="nt14_np11_0" arrivalPos="75.00" arrivalSpeed="10.09" duration="527.00" routeLength="950.61" waitingTime="342.00" waitingCount="12" stopTime="0.00" timeLoss="443.77" rerouteNo="0" devices="tripinfo_f_0_3.29" vType="type1" speedFactor="0.96" vaporized=""/>
    <tripinfo id="f_0_3.30" depart="375.00" departLane="np3_nt3_0" departPos="0.00" departSpeed="0.00" departDelay="129.54" arrival="916.00" arrivalLane="nt14_np11_0" arrivalPos="75.00" arrivalSpeed="11.56" duration="541.00" routeLength="951.09" waitingTime="346.00" waitingCount="13" stopTime="0.00" timeLoss="466.82" rerouteNo="0" devices="tripinfo_f_0_3.30" vType="type1" speedFactor="1.08" vaporized=""/>
    <tripinfo id="f_3_5.0" depart="900.00" departLane="np8_nt16_0" departPos="55.55" departSpeed="0.00" departDelay="0.00" arrival="1089.00" arrivalLane="nt1_np16_0" arrivalPos="67.80" arrivalSpeed="18.55" duration="189.00" routeLength="1292.33" waitingTime="60.00" waitingCount="5" stopTime="0.00" timeLoss="94.59" rerouteNo="0" devices="tripinfo_f_3_5.0" vType="type1" speedFactor="0.96" vaporized=""/>
    <tripinfo id="f_3_5.1" depart="922.00" departLane="np8_nt16_0" departPos="61.19" departSpeed="0.00" departDelay="0.31" arrival="1096.00" arrivalLane="nt1_np16_0" arrivalPos="67.80" arrivalSpeed="21.94" duration="174.00" routeLength="1286.69" waitingTime="42.00" waitingCount="4" stopTime="0.00" timeLoss="94.04" rerouteNo="0" devices="tripinfo_f_3_5.1" vType="type1" speedFactor="1.13" vaporized=""/>
    <tripinfo id="f_3_5.2" depart="944.00" departLane="np8_nt16_0" departPos="9.60" departSpeed="0.00" departDelay="0.63" arrival="1115.00" arrivalLane="nt1_np16_0" arrivalPos="67.80" arrivalSpeed="20.16" duration="171.00" routeLength="1338.28" waitingTime="54.00" waitingCount="5" stopTime="0.00" timeLoss="87.56" rerouteNo="0" devices="tripinfo_f_3_5.2" vType="type1" speedFactor="1.11" vaporized=""/>
    <tripinfo id="f_3_5.3" depart="966.00" departLane="np8_nt16_0" departPos="44.95" departSpeed="0.00" departDelay="0.94" arrival="1121.00" arrivalLane="nt1_np16_0" arrivalPos="67.80" arrivalSpeed="19.44" duration="155.00" routeLength="1302.93" waitingTime="26.00" waitingCount="5" stopTime="0.00" timeLoss="62.03" rerouteNo="0" devices="tripinfo_f_3_5.3" vType="type1" speedFactor="0.98" vaporized=""/>
    <tripinfo id="f_3_5.4" depart="987.00" departLane="np8_nt16_0" departPos="70.27" departSpeed="0.00" departDelay="0.25" arrival="1174.00" arrivalLane="nt1_np16_0" arrivalPos="67.80" arrivalSpeed="16.71" duration="187.00" routeLength="1277.61" waitingTime="54.00" waitingCount="4" stopTime="0.00" timeLoss="82.61" rerouteNo="0" devices="tripinfo_f_3_5.4" vType="type1" speedFactor="0.86" vaporized=""/>
    <tripinfo id="f_3_5.5" depart="1009.00" departLane="np8_nt16_0" departPos="41.57" departSpeed="0.00" departDelay="0.56" arrival="1198.00" arrivalLane="nt1_np16_0" arrivalPos="67.80" arrivalSpeed="18.83" duration="189.00" routeLength="1306.31" waitingTime="63.00" waitingCount="5" stopTime="0.00" timeLoss="95.31" rerouteNo="0" devices="tripinfo_f_3_5.5" vType="type1" speedFactor="0.97" vaporized=""/>
    <tripinfo id="f_3_5.6" depart="1031.00" departLane="np8_nt16_0" departPos="71.83" departSpeed="0.00" departDelay="0.88" arrival="2948.00" arrivalLane="nt1_np16_0" arrivalPos="67.80" arrivalSpeed="17.35" duration="1917.00" routeLength="1276.05" waitingTime="1791.00" waitingCount="4" stopTime="0.00" timeLoss="1819.44" rerouteNo="0" devices="tripinfo_f_3_5.6" vType="type1" speedFactor="0.92" vaporized=""/>
    <tripinfo id="f_3_5.7" depart="1052.00" departLane="np8_nt16_0" departPos="49.35" departSpeed="0.00" departDelay="0.19" arrival="2976.00" arrivalLane="nt1_np16_0" arrivalPos="67.80" arrivalSpeed="16.39" duration="1924.00" routeLength="1298.53" waitingTime="1784.00" waitingCount="7" stopTime="0.00" timeLoss="1821.86" rerouteNo="0" devices="tripinfo_f_3_5.7" vType="type1" speedFactor="0.89" vaporized=""/>
    <tripinfo id="f_0_2.11" depart="90.00" departLane="np2_nt2_0" departPos="43.88" departSpeed="0.00" departDelay="0.00" arrival="-1.00" arrivalLane="" arrivalPos="-1.00" arrivalSpeed="-1.00" duration="3510.00" routeLength="410.40" waitingTime="3405.00" waitingCount="8" stopTime="0.00" timeLoss="3477.56" rerouteNo="0" devices="tripinfo_f_0_2.11" vType="type1" speedFactor="0.97" vaporized="end"/>
    <tripinfo id="f_0_1.7" depart="96.00" departLane="np16_nt1_0" departPos="44.50" departSpeed="0.00" departDelay="0.55" arrival="-1.00" arrivalLane="" arrivalPos="-1.00" arrivalSpeed="-1.00" duration="3504.00" routeLength="498.33" waitingTime="3412.00" waitingCount="9" stopTime="0.00" timeLoss="3470.72" rerouteNo="0" devices="tripinfo_f_0_1.7" vType="type1" speedFactor="0.88" vaporized="end"/>