<?xml version="1.0" encoding="UTF-8"?>

<!-- generated on 2023-08-30 12:50:32 by Eclipse SUMO libsumo Version 1.18.0
<configuration xmlns:xsi="http://www.w3.org/2001/XMLSchema-instance" xsi:noNamespaceSchemaLocation="http://sumo.dlr.de/xsd/libsumoConfiguration.xsd">

    <input>
        <net-file value="/home/stefan/RESCO/./environments/arterial4x4/arterial4x4.net.xml"/>
        <route-files value="/home/stefan/RESCO/./environments/arterial4x4/arterial4x4_89.rou.xml"/>
    </input>

    <output>
        <tripinfo-output value="/home/stefan/results/ITRPO-tr0-arterial4x4-0-drq_norm-wait_norm/tripinfo_89.xml"/>
        <tripinfo-output.write-unfinished value="true"/>
    </output>

    <processing>
        <time-to-teleport value="-1"/>
    </processing>

    <report>
        <no-warnings value="True"/>
        <no-step-log value="True"/>
    </report>

    <random_number>
        <random value="true"/>
    </random_number>

</configuration>
-->

<tripinfos xmlns:xsi="http://www.w3.org/2001/XMLSchema-instance" xsi:noNamespaceSchemaLocation="http://sumo.dlr.de/xsd/tripinfo_file.xsd">
    <tripinfo id="f_0_2.0" depart="0.00" departLane="np2_nt2_0" departPos="23.92" departSpeed="0.00" departDelay="0.00" arrival="133.00" arrivalLane="nt15_np10_0" arrivalPos="75.00" arrivalSpeed="8.62" duration="133.00" routeLength="927.16" waitingTime="33.00" waitingCount="1" stopTime="0.00" timeLoss="54.07" rerouteNo="0" devices="tripinfo_f_0_2.0" vType="type1" speedFactor="0.99" vaporized=""/>
    <tripinfo id="f_0_0.0" depart="0.00" departLane="np13_nt13_0" departPos="55.05" departSpeed="0.00" departDelay="0.00" arrival="157.00" arrivalLane="nt4_np5_0" arrivalPos="75.00" arrivalSpeed="19.79" duration="157.00" routeLength="1292.84" waitingTime="42.00" waitingCount="4" stopTime="0.00" timeLoss="70.47" rerouteNo="0" devices="tripinfo_f_0_0.0" vType="type1" speedFactor="1.05" vaporized=""/>
    <tripinfo id="f_0_3.0" depart="0.00" departLane="np3_nt3_0" departPos="8.99" departSpeed="0.00" departDelay="0.00" arrival="157.00" arrivalLane="nt14_np11_0" arrivalPos="75.00" arrivalSpeed="11.08" duration="157.00" routeLength="942.10" waitingTime="53.00" waitingCount="4" stopTime="0.00" timeLoss="80.18" rerouteNo="0" devices="tripinfo_f_0_3.0" vType="type1" speedFactor="1.03" vaporized=""/>
    <tripinfo id="f_0_0.1" depart="14.00" departLane="np13_nt13_0" departPos="57.34" departSpeed="0.00" departDelay="0.36" arrival="159.00" arrivalLane="nt4_np5_0" arrivalPos="75.00" arrivalSpeed="18.27" duration="145.00" routeLength="1290.55" waitingTime="28.00" waitingCount="3" stopTime="0.00" timeLoss="56.39" rerouteNo="0" devices="tripinfo_f_0_0.1" vType="type1" speedFactor="1.02" vaporized=""/>
    <tripinfo id="f_0_3.1" depart="9.00" departLane="np3_nt3_0" departPos="38.03" departSpeed="0.00" departDelay="0.82" arrival="162.00" arrivalLane="nt14_np11_0" arrivalPos="75.00" arrivalSpeed="9.29" duration="153.00" routeLength="913.06" waitingTime="46.00" waitingCount="3" stopTime="0.00" timeLoss="68.07" rerouteNo="0" devices="tripinfo_f_0_3.1" vType="type1" speedFactor="0.91" vaporized=""/>
    <tripinfo id="f_0_3.2" depart="17.00" departLane="np3_nt3_0" departPos="6.01" departSpeed="0.00" departDelay="0.64" arrival="164.00" arrivalLane="nt14_np11_0" arrivalPos="75.00" arrivalSpeed="9.74" duration="147.00" routeLength="945.08" waitingTime="33.00" waitingCount="3" stopTime="0.00" timeLoss="74.38" rerouteNo="0" devices="tripinfo_f_0_3.2" vType="type1" speedFactor="1.10" vaporized=""/>
    <tripinfo id="f_0_3.3" depart="25.00" departLane="np3_nt3_0" departPos="25.72" departSpeed="0.00" departDelay="0.45" arrival="173.00" arrivalLane="nt14_np11_0" arrivalPos="75.00" arrivalSpeed="8.47" duration="148.00" routeLength="925.37" waitingTime="30.00" waitingCount="5" stopTime="0.00" timeLoss="65.15" rerouteNo="0" devices="tripinfo_f_0_3.3" vType="type1" speedFactor="0.94" vaporized=""/>
    <tripinfo id="f_0_0.2" depart="28.00" departLane="np13_nt13_0" departPos="45.97" departSpeed="0.00" departDelay="0.73" arrival="208.00" arrivalLane="nt4_np5_0" arrivalPos="75.00" arrivalSpeed="17.57" duration="180.00" routeLength="1301.92" waitingTime="55.00" waitingCount="5" stopTime="0.00" timeLoss="87.38" rerouteNo="0" devices="tripinfo_f_0_0.2" vType="type1" speedFactor="0.98" vaporized=""/>
    <tripinfo id="f_0_2.1" depart="9.00" departLane="np2_nt2_0" departPos="29.04" departSpeed="0.00" departDelay="0.82" arrival="223.00" arrivalLane="nt15_np10_0" arrivalPos="75.00" arrivalSpeed="9.40" duration="214.00" routeLength="922.04" waitingTime="105.00" waitingCount="3" stopTime="0.00" timeLoss="129.52" rerouteNo="0" devices="tripinfo_f_0_2.1" vType="type1" speedFactor="0.91" vaporized=""/>
    <tripinfo id="f_0_2.2" depart="17.00" departLane="np2_nt2_0" departPos="20.19" departSpeed="0.00" departDelay="0.64" arrival="226.00" arrivalLane="nt15_np10_0" arrivalPos="75.00" arrivalSpeed="8.59" duration="209.00" routeLength="930.89" waitingTime="98.00" waitingCount="4" stopTime="0.00" timeLoss="122.93" rerouteNo="0" devices="tripinfo_f_0_2.2" vType="type1" speedFactor="0.91" vaporized=""/>
    <tripinfo id="f_0_2.3" depart="25.00" departLane="np2_nt2_0" departPos="53.95" departSpeed="0.00" departDelay="0.45" arrival="228.00" arrivalLane="nt15_np10_0" arrivalPos="75.00" arrivalSpeed="10.09" duration="203.00" routeLength="897.13" waitingTime="93.00" waitingCount="4" stopTime="0.00" timeLoss="131.04" rerouteNo="0" devices="tripinfo_f_0_2.3" vType="type1" speedFactor="1.05" vaporized=""/>
    <tripinfo id="f_0_3.4" depart="33.00" departLane="np3_nt3_0" departPos="2.75" departSpeed="0.00" departDelay="0.27" arrival="230.00" arrivalLane="nt14_np11_0" arrivalPos="75.00" arrivalSpeed="7.78" duration="197.00" routeLength="948.34" waitingTime="61.00" waitingCount="5" stopTime="0.00" timeLoss="96.11" rerouteNo="0" devices="tripinfo_f_0_3.4" vType="type1" speedFactor="0.79" vaporized=""/>
    <tripinfo id="f_0_2.4" depart="33.00" departLane="np2_nt2_0" departPos="59.34" departSpeed="0.00" departDelay="0.27" arrival="242.00" arrivalLane="nt15_np10_0" arrivalPos="75.00" arrivalSpeed="9.09" duration="209.00" routeLength="891.74" waitingTime="90.00" waitingCount="8" stopTime="0.00" timeLoss="136.59" rerouteNo="0" devices="tripinfo_f_0_2.4" vType="type1" speedFactor="1.03" vaporized=""/>
    <tripinfo id="f_0_1.0" depart="0.00" departLane="np16_nt1_0" departPos="55.75" departSpeed="0.00" departDelay="0.00" arrival="244.00" arrivalLane="nt16_np8_0" arrivalPos="75.00" arrivalSpeed="17.53" duration="244.00" routeLength="1292.13" waitingTime="99.00" waitingCount="8" stopTime="0.00" timeLoss="150.09" rerouteNo="0" devices="tripinfo_f_0_1.0" vType="type1" speedFactor="0.97" vaporized=""/>
    <tripinfo id="f_0_2.5" depart="41.00" departLane="np2_nt2_0" departPos="20.59" departSpeed="0.00" departDelay="0.09" arrival="244.00" arrivalLane="nt15_np10_0" arrivalPos="75.00" arrivalSpeed="13.50" duration="203.00" routeLength="930.49" waitingTime="82.00" waitingCount="6" stopTime="0.00" timeLoss="144.50" rerouteNo="0" devices="tripinfo_f_0_2.5" vType="type1" speedFactor="1.35" vaporized=""/>
    <tripinfo id="f_0_2.6" depart="50.00" departLane="np2_nt2_0" departPos="36.20" departSpeed="0.00" departDelay="0.91" arrival="251.00" arrivalLane="nt15_np10_0" arrivalPos="75.00" arrivalSpeed="10.83" duration="201.00" routeLength="914.88" waitingTime="86.00" waitingCount="9" stopTime="0.00" timeLoss="133.43" rerouteNo="0" devices="tripinfo_f_0_2.6" vType="type1" speedFactor="1.14" vaporized=""/>
    <tripinfo id="f_0_2.7" depart="58.00" departLane="np2_nt2_0" departPos="3.34" departSpeed="0.00" departDelay="0.73" arrival="253.00" arrivalLane="nt15_np10_0" arrivalPos="75.00" arrivalSpeed="9.71" duration="195.00" routeLength="947.74" waitingTime="78.00" waitingCount="8" stopTime="0.00" timeLoss="120.33" rerouteNo="0" devices="tripinfo_f_0_2.7" vType="type1" speedFactor="1.06" vaporized=""/>
    <tripinfo id="f_0_0.3" depart="41.00" departLane="np13_nt13_0" departPos="32.34" departSpeed="0.00" departDelay="0.09" arrival="264.00" arrivalLane="nt4_np5_0" arrivalPos="75.00" arrivalSpeed="18.06" duration="223.00" routeLength="1315.55" waitingTime="88.00" waitingCount="7" stopTime="0.00" timeLoss="133.15" rerouteNo="0" devices="tripinfo_f_0_0.3" vType="type1" speedFactor="1.02" vaporized=""/>
    <tripinfo id="f_0_3.5" depart="41.00" departLane="np3_nt3_0" departPos="17.48" departSpeed="0.00" departDelay="0.09" arrival="264.00" arrivalLane="nt14_np11_0" arrivalPos="75.00" arrivalSpeed="8.69" duration="223.00" routeLength="933.61" waitingTime="88.00" waitingCount="8" stopTime="0.00" timeLoss="133.76" rerouteNo="0" devices="tripinfo_f_0_3.5" vType="type1" speedFactor="0.88" vaporized=""/>
    <tripinfo id="f_0_2.8" depart="66.00" departLane="np2_nt2_0" departPos="31.63" departSpeed="0.00" departDelay="0.54" arrival="268.00" arrivalLane="nt15_np10_0" arrivalPos="75.00" arrivalSpeed="7.87" duration="202.00" routeLength="919.45" waitingTime="52.00" waitingCount="10" stopTime="0.00" timeLoss="120.08" rerouteNo="0" devices="tripinfo_f_0_2.8" vType="type1" speedFactor="0.94" vaporized=""/>
    <tripinfo id="f_0_2.9" depart="74.00" departLane="np2_nt2_0" departPos="47.89" departSpeed="0.00" departDelay="0.36" arrival="269.00" arrivalLane="nt15_np10_0" arrivalPos="75.00" arrivalSpeed="11.61" duration="195.00" routeLength="903.19" waitingTime="41.00" waitingCount="9" stopTime="0.00" timeLoss="124.86" rerouteNo="0" devices="tripinfo_f_0_2.9" vType="type1" speedFactor="1.07" vaporized=""/>
    <tripinfo id="f_0_1.1" depart="14.00" departLane="np16_nt1_0" departPos="26.92" departSpeed="0.00" departDelay="0.36" arrival="273.00" arrivalLane="nt16_np8_0" arrivalPos="75.00" arrivalSpeed="17.35" duration="259.00" routeLength="1320.96" waitingTime="101.00" waitingCount="11" stopTime="0.00" timeLoss="165.34" rerouteNo="0" devices="tripinfo_f_0_1.1" vType="type1" speedFactor="0.98" vaporized=""/>
    <tripinfo id="f_0_1.2" depart="28.00" departLane="np16_nt1_0" departPos="49.97" departSpeed="0.00" departDelay="0.73" arrival="276.00" arrivalLane="nt16_np8_0" arrivalPos="75.00" arrivalSpeed="16.94" duration="248.00" routeLength="1297.91" waitingTime="78.00" waitingCount="10" stopTime="0.00" timeLoss="142.03" rerouteNo="0" devices="tripinfo_f_0_1.2" vType="type1" speedFactor="0.86" vaporized=""/>
    <tripinfo id="f_0_3.6" depart="50.00" departLane="np3_nt3_0" departPos="24.09" departSpeed="0.00" departDelay="0.91" arrival="277.00" arrivalLane="nt14_np11_0" arrivalPos="75.00" arrivalSpeed="9.93" duration="227.00" routeLength="927.00" waitingTime="105.00" waitingCount="9" stopTime="0.00" timeLoss="149.82" rerouteNo="0" devices="tripinfo_f_0_3.6" vType="type1" speedFactor="1.01" vaporized=""/>
    <tripinfo id="f_0_0.4" depart="55.00" departLane="np13_nt13_0" departPos="63.05" departSpeed="0.00" departDelay="0.46" arrival="279.00" arrivalLane="nt4_np5_0" arrivalPos="75.00" arrivalSpeed="16.18" duration="224.00" routeLength="1284.84" waitingTime="74.00" waitingCount="8" stopTime="0.00" timeLoss="118.81" rerouteNo="0" devices="tripinfo_f_0_0.4" vType="type1" speedFactor="0.86" vaporized=""/>
    <tripinfo id="f_0_3.7" depart="58.00" departLane="np3_nt3_0" departPos="27.84" departSpeed="0.00" departDelay="0.73" arrival="280.00" arrivalLane="nt14_np11_0" arrivalPos="75.00" arrivalSpeed="9.84" duration="222.00" routeLength="923.25" waitingTime="89.00" waitingCount="9" stopTime="0.00" timeLoss="140.28" rerouteNo="0" devices="tripinfo_f_0_3.7" vType="type1" speedFactor="0.95" vaporized=""/>
    <tripinfo id="f_0_0.5" depart="69.00" departLane="np13_nt13_0" departPos="24.03" departSpeed="0.00" departDelay="0.82" arrival="281.00" arrivalLane="nt4_np5_0" arrivalPos="75.00" arrivalSpeed="19.23" duration="212.00" routeLength="1323.86" waitingTime="65.00" waitingCount="6" stopTime="0.00" timeLoss="116.33" rerouteNo="0" devices="tripinfo_f_0_0.5" vType="type1" speedFactor="0.97" vaporized=""/>
    <tripinfo id="f_0_3.8" depart="66.00" departLane="np3_nt3_0" departPos="23.41" departSpeed="0.00" departDelay="0.54" arrival="287.00" arrivalLane="nt14_np11_0" arrivalPos="75.00" arrivalSpeed="9.92" duration="221.00" routeLength="927.68" waitingTime="82.00" waitingCount="9" stopTime="0.00" timeLoss="144.49" rerouteNo="0" devices="tripinfo_f_0_3.8" vType="type1" speedFactor="1.01" vaporized=""/>
    <tripinfo id="f_0_2.10" depart="82.00" departLane="np2_nt2_0" departPos="51.90" departSpeed="0.00" departDelay="0.18" arrival="287.00" arrivalLane="nt15_np10_0" arrivalPos="75.00" arrivalSpeed="10.41" duration="205.00" routeLength="899.18" waitingTime="52.00" waitingCount="9" stopTime="0.00" timeLoss="132.23" rerouteNo="0" devices="tripinfo_f_0_2.10" vType="type1" speedFactor="1.04" vaporized=""/>
    <tripinfo id="f_0_0.6" depart="82.00" departLane="np13_nt13_0" departPos="27.12" departSpeed="0.00" departDelay="0.18" arrival="288.00" arrivalLane="nt4_np5_0" arrivalPos="75.00" arrivalSpeed="18.14" duration="206.00" routeLength="1320.77" waitingTime="63.00" waitingCount="7" stopTime="0.00" timeLoss="114.37" rerouteNo="0" devices="tripinfo_f_0_0.6" vType="type1" speedFactor="1.00" vaporized=""/>
    <tripinfo id="f_0_0.7" depart="96.00" departLane="np13_nt13_0" departPos="34.86" departSpeed="0.00" departDelay="0.55" arrival="289.00" arrivalLane="nt4_np5_0" arrivalPos="75.00" arrivalSpeed="21.61" duration="193.00" routeLength="1313.03" waitingTime="58.00" waitingCount="7" stopTime="0.00" timeLoss="113.89" rerouteNo="0" devices="tripinfo_f_0_0.7" vType="type1" speedFactor="1.16" vaporized=""/>
    <tripinfo id="f_0_3.9" depart="74.00" departLane="np3_nt3_0" departPos="57.92" departSpeed="0.00" departDelay="0.36" arrival="292.00" arrivalLane="nt14_np11_0" arrivalPos="75.00" arrivalSpeed="8.01" duration="218.00" routeLength="893.17" waitingTime="77.00" waitingCount="9" stopTime="0.00" timeLoss="128.17" rerouteNo="0" devices="tripinfo_f_0_3.9" vType="type1" speedFactor="0.83" vaporized=""/>
    <tripinfo id="f_0_0.8" depart="110.00" departLane="np13_nt13_0" departPos="36.02" departSpeed="0.00" departDelay="0.91" arrival="292.00" arrivalLane="nt4_np5_0" arrivalPos="75.00" arrivalSpeed="17.20" duration="182.00" routeLength="1311.87" waitingTime="34.00" waitingCount="7" stopTime="0.00" timeLoss="81.95" rerouteNo="0" devices="tripinfo_f_0_0.8" vType="type1" speedFactor="0.92" vaporized=""/>
    <tripinfo id="f_0_3.10" depart="82.00" departLane="np3_nt3_0" departPos="7.89" departSpeed="0.00" departDelay="0.18" arrival="294.00" arrivalLane="nt14_np11_0" arrivalPos="75.00" arrivalSpeed="8.33" duration="212.00" routeLength="943.20" waitingTime="57.00" waitingCount="7" stopTime="0.00" timeLoss="118.59" rerouteNo="0" devices="tripinfo_f_0_3.10" vType="type1" speedFactor="0.85" vaporized=""/>
    <tripinfo id="f_0_3.11" depart="90.00" departLane="np3_nt3_0" departPos="29.67" departSpeed="0.00" departDelay="0.00" arrival="296.00" arrivalLane="nt14_np11_0" arrivalPos="75.00" arrivalSpeed="11.08" duration="206.00" routeLength="921.42" waitingTime="50.00" waitingCount="4" stopTime="0.00" timeLoss="131.09" rerouteNo="0" devices="tripinfo_f_0_3.11" vType="type1" speedFactor="1.03" vaporized=""/>
    <tripinfo id="f_0_2.11" depart="90.00" departLane="np2_nt2_0" departPos="33.77" departSpeed="0.00" departDelay="0.00" arrival="297.00" arrivalLane="nt15_np10_0" arrivalPos="75.00" arrivalSpeed="10.46" duration="207.00" routeLength="917.31" waitingTime="62.00" waitingCount="8" stopTime="0.00" timeLoss="129.42" rerouteNo="0" devices="tripinfo_f_0_2.11" vType="type1" speedFactor="0.99" vaporized=""/>
    <tripinfo id="f_0_2.12" depart="99.00" departLane="np2_nt2_0" departPos="22.35" departSpeed="0.00" departDelay="0.82" arrival="312.00" arrivalLane="nt15_np10_0" arrivalPos="75.00" arrivalSpeed="10.58" duration="213.00" routeLength="928.73" waitingTime="74.00" waitingCount="8" stopTime="0.00" timeLoss="137.00" rerouteNo="0" devices="tripinfo_f_0_2.12" vType="type1" speedFactor="1.03" vaporized=""/>
    <tripinfo id="f_0_1.3" depart="41.00" departLane="np16_nt1_0" departPos="47.98" departSpeed="0.00" departDelay="0.09" arrival="313.00" arrivalLane="nt16_np8_0" arrivalPos="75.00" arrivalSpeed="21.50" duration="272.00" routeLength="1299.90" waitingTime="96.00" waitingCount="12" stopTime="0.00" timeLoss="192.86" rerouteNo="0" devices="tripinfo_f_0_1.3" vType="type1" speedFactor="1.15" vaporized=""/>
    <tripinfo id="f_0_2.13" depart="107.00" departLane="np2_nt2_0" departPos="45.12" departSpeed="0.00" departDelay="0.63" arrival="316.00" arrivalLane="nt15_np10_0" arrivalPos="75.00" arrivalSpeed="8.96" duration="209.00" routeLength="905.96" waitingTime="63.00" waitingCount="9" stopTime="0.00" timeLoss="121.22" rerouteNo="0" devices="tripinfo_f_0_2.13" vType="type1" speedFactor="0.87" vaporized=""/>
    <tripinfo id="f_0_2.14" depart="115.00" departLane="np2_nt2_0" departPos="25.60" departSpeed="0.00" departDelay="0.45" arrival="322.00" arrivalLane="nt15_np10_0" arrivalPos="75.00" arrivalSpeed="9.57" duration="207.00" routeLength="925.48" waitingTime="69.00" waitingCount="10" stopTime="0.00" timeLoss="132.53" rerouteNo="0" devices="tripinfo_f_0_2.14" vType="type1" speedFactor="1.04" vaporized=""/>
    <tripinfo id="f_0_2.15" depart="123.00" departLane="np2_nt2_0" departPos="17.24" departSpeed="0.00" departDelay="0.27" arrival="324.00" arrivalLane="nt15_np10_0" arrivalPos="75.00" arrivalSpeed="10.41" duration="201.00" routeLength="933.84" waitingTime="60.00" waitingCount="8" stopTime="0.00" timeLoss="127.69" rerouteNo="0" devices="tripinfo_f_0_2.15" vType="type1" speedFactor="1.07" vaporized=""/>
    <tripinfo id="f_0_3.12" depart="99.00" departLane="np3_nt3_0" departPos="21.43" departSpeed="0.00" departDelay="0.82" arrival="327.00" arrivalLane="nt14_np11_0" arrivalPos="75.00" arrivalSpeed="9.97" duration="228.00" routeLength="929.66" waitingTime="80.00" waitingCount="6" stopTime="0.00" timeLoss="155.71" rerouteNo="0" devices="tripinfo_f_0_3.12" vType="type1" speedFactor="1.09" vaporized=""/>
    <tripinfo id="f_0_2.16" depart="131.00" departLane="np2_nt2_0" departPos="54.28" departSpeed="0.00" departDelay="0.09" arrival="328.00" arrivalLane="nt15_np10_0" arrivalPos="75.00" arrivalSpeed="7.70" duration="197.00" routeLength="896.80" waitingTime="53.00" waitingCount="9" stopTime="0.00" timeLoss="115.04" rerouteNo="0" devices="tripinfo_f_0_2.16" vType="type1" speedFactor="0.92" vaporized=""/>
    <tripinfo id="f_0_2.17" depart="140.00" departLane="np2_nt2_0" departPos="15.59" departSpeed="0.00" departDelay="0.91" arrival="329.00" arrivalLane="nt15_np10_0" arrivalPos="75.00" arrivalSpeed="10.80" duration="189.00" routeLength="935.49" waitingTime="41.00" waitingCount="8" stopTime="0.00" timeLoss="110.63" rerouteNo="0" devices="tripinfo_f_0_2.17" vType="type1" speedFactor="1.00" vaporized=""/>
    <tripinfo id="f_0_1.4" depart="55.00" departLane="np16_nt1_0" departPos="45.53" departSpeed="0.00" departDelay="0.46" arrival="338.00" arrivalLane="nt16_np8_0" arrivalPos="75.00" arrivalSpeed="22.65" duration="283.00" routeLength="1302.35" waitingTime="97.00" waitingCount="12" stopTime="0.00" timeLoss="204.48" rerouteNo="0" devices="tripinfo_f_0_1.4" vType="type1" speedFactor="1.16" vaporized=""/>
    <tripinfo id="f_0_0.9" depart="123.00" departLane="np13_nt13_0" departPos="27.05" departSpeed="0.00" departDelay="0.28" arrival="339.00" arrivalLane="nt4_np5_0" arrivalPos="75.00" arrivalSpeed="17.51" duration="216.00" routeLength="1320.84" waitingTime="83.00" waitingCount="5" stopTime="0.00" timeLoss="120.23" rerouteNo="0" devices="tripinfo_f_0_0.9" vType="type1" speedFactor="0.96" vaporized=""/>
    <tripinfo id="f_0_1.5" depart="69.00" departLane="np16_nt1_0" departPos="43.34" departSpeed="0.00" departDelay="0.82" arrival="340.00" arrivalLane="nt16_np8_0" arrivalPos="75.00" arrivalSpeed="23.06" duration="271.00" routeLength="1304.54" waitingTime="117.00" waitingCount="9" stopTime="0.00" timeLoss="195.83" rerouteNo="0" devices="tripinfo_f_0_1.5" vType="type1" speedFactor="1.22" vaporized=""/>
    <tripinfo id="f_0_1.6" depart="82.00" departLane="np16_nt1_0" departPos="37.56" departSpeed="0.00" departDelay="0.18" arrival="354.00" arrivalLane="nt16_np8_0" arrivalPos="75.00" arrivalSpeed="19.06" duration="272.00" routeLength="1310.32" waitingTime="106.00" waitingCount="10" stopTime="0.00" timeLoss="184.66" rerouteNo="0" devices="tripinfo_f_0_1.6" vType="type1" speedFactor="1.05" vaporized=""/>
    <tripinfo id="f_0_0.10" depart="137.00" departLane="np13_nt13_0" departPos="46.65" departSpeed="0.00" departDelay="0.64" arrival="354.00" arrivalLane="nt4_np5_0" arrivalPos="75.00" arrivalSpeed="17.55" duration="217.00" routeLength="1301.24" waitingTime="78.00" waitingCount="6" stopTime="0.00" timeLoss="118.47" rerouteNo="0" devices="tripinfo_f_0_0.10" vType="type1" speedFactor="0.93" vaporized=""/>
    <tripinfo id="f_0_0.11" depart="150.00" departLane="np13_nt13_0" departPos="59.18" departSpeed="0.00" departDelay="0.00" arrival="355.00" arrivalLane="nt4_np5_0" arrivalPos="75.00" arrivalSpeed="18.09" duration="205.00" routeLength="1288.71" waitingTime="67.00" waitingCount="6" stopTime="0.00" timeLoss="109.03" rerouteNo="0" devices="tripinfo_f_0_0.11" vType="type1" speedFactor="0.94" vaporized=""/>
    <tripinfo id="f_0_1.7" depart="96.00" departLane="np16_nt1_0" departPos="33.51" departSpeed="0.00" departDelay="0.55" arrival="368.00" arrivalLane="nt16_np8_0" arrivalPos="75.00" arrivalSpeed="19.87" duration="272.00" routeLength="1314.37" waitingTime="108.00" waitingCount="12" stopTime="0.00" timeLoss="189.44" rerouteNo="0" devices="tripinfo_f_0_1.7" vType="type1" speedFactor="1.11" vaporized=""/>
    <tripinfo id="f_0_3.13" depart="107.00" departLane="np3_nt3_0" departPos="22.97" departSpeed="0.00" departDelay="0.63" arrival="377.00" arrivalLane="nt14_np11_0" arrivalPos="75.00" arrivalSpeed="10.45" duration="270.00" routeLength="928.12" waitingTime="140.00" waitingCount="6" stopTime="0.00" timeLoss="189.91" rerouteNo="0" devices="tripinfo_f_0_3.13" vType="type1" speedFactor="0.97" vaporized=""/>
    <tripinfo id="f_0_3.14" depart="115.00" departLane="np3_nt3_0" departPos="44.08" departSpeed="0.00" departDelay="0.45" arrival="379.00" arrivalLane="nt14_np11_0" arrivalPos="75.00" arrivalSpeed="11.05" duration="264.00" routeLength="907.01" waitingTime="134.00" waitingCount="7" stopTime="0.00" timeLoss="192.34" rerouteNo="0" devices="tripinfo_f_0_3.14" vType="type1" speedFactor="1.06" vaporized=""/>
    <tripinfo id="f_0_0.12" depart="164.00" departLane="np13_nt13_0" departPos="21.86" departSpeed="0.00" departDelay="0.37" arrival="388.00" arrivalLane="nt4_np5_0" arrivalPos="75.00" arrivalSpeed="19.10" duration="224.00" routeLength="1326.03" waitingTime="88.00" waitingCount="8" stopTime="0.00" timeLoss="135.08" rerouteNo="0" devices="tripinfo_f_0_0.12" vType="type1" speedFactor="1.04" vaporized=""/>
    <tripinfo id="f_0_2.18" depart="148.00" departLane="np2_nt2_0" departPos="41.44" departSpeed="0.00" departDelay="0.72" arrival="397.00" arrivalLane="nt15_np10_0" arrivalPos="75.00" arrivalSpeed="10.65" duration="249.00" routeLength="909.64" waitingTime="93.00" waitingCount="9" stopTime="0.00" timeLoss="175.29" rerouteNo="0" devices="tripinfo_f_0_2.18" vType="type1" speedFactor="1.04" vaporized=""/>
    <tripinfo id="f_0_3.15" depart="123.00" departLane="np3_nt3_0" departPos="15.96" departSpeed="0.00" departDelay="0.27" arrival="401.00" arrivalLane="nt14_np11_0" arrivalPos="75.00" arrivalSpeed="10.11" duration="278.00" routeLength="935.13" waitingTime="137.00" waitingCount="9" stopTime="0.00" timeLoss="203.39" rerouteNo="0" devices="tripinfo_f_0_3.15" vType="type1" speedFactor="1.05" vaporized=""/>
    <tripinfo id="f_0_1.8" depart="110.00" departLane="np16_nt1_0" departPos="16.93" departSpeed="0.00" departDelay="0.91" arrival="404.00" arrivalLane="nt16_np8_0" arrivalPos="75.00" arrivalSpeed="16.43" duration="294.00" routeLength="1330.95" waitingTime="112.00" waitingCount="12" stopTime="0.00" timeLoss="182.96" rerouteNo="0" devices="tripinfo_f_0_1.8" vType="type1" speedFactor="0.83" vaporized=""/>
    <tripinfo id="f_0_3.16" depart="131.00" departLane="np3_nt3_0" departPos="28.40" departSpeed="0.00" departDelay="0.09" arrival="405.00" arrivalLane="nt14_np11_0" arrivalPos="75.00" arrivalSpeed="9.46" duration="274.00" routeLength="922.69" waitingTime="128.00" waitingCount="8" stopTime="0.00" timeLoss="193.53" rerouteNo="0" devices="tripinfo_f_0_3.16" vType="type1" speedFactor="0.97" vaporized=""/>
    <tripinfo id="f_0_2.19" depart="156.00" departLane="np2_nt2_0" departPos="52.38" departSpeed="0.00" departDelay="0.54" arrival="405.00" arrivalLane="nt15_np10_0" arrivalPos="75.00" arrivalSpeed="6.85" duration="249.00" routeLength="898.70" waitingTime="78.00" waitingCount="7" stopTime="0.00" timeLoss="154.91" rerouteNo="0" devices="tripinfo_f_0_2.19" vType="type1" speedFactor="0.80" vaporized=""/>
    <tripinfo id="f_0_3.17" depart="140.00" departLane="np3_nt3_0" departPos="7.61" departSpeed="0.00" departDelay="0.91" arrival="406.00" arrivalLane="nt14_np11_0" arrivalPos="75.00" arrivalSpeed="10.03" duration="266.00" routeLength="943.48" waitingTime="130.00" waitingCount="8" stopTime="0.00" timeLoss="194.11" rerouteNo="0" devices="tripinfo_f_0_3.17" vType="type1" speedFactor="1.10" vaporized=""/>
    <tripinfo id="f_0_0.13" depart="178.00" departLane="np13_nt13_0" departPos="38.22" departSpeed="0.00" departDelay="0.73" arrival="407.00" arrivalLane="nt4_np5_0" arrivalPos="75.00" arrivalSpeed="19.05" duration="229.00" routeLength="1309.67" waitingTime="76.00" waitingCount="8" stopTime="0.00" timeLoss="134.27" rerouteNo="0" devices="tripinfo_f_0_0.13" vType="type1" speedFactor="0.97" vaporized=""/>
    <tripinfo id="f_0_3.18" depart="148.00" departLane="np3_nt3_0" departPos="30.04" departSpeed="0.00" departDelay="0.72" arrival="408.00" arrivalLane="nt14_np11_0" arrivalPos="75.00" arrivalSpeed="8.66" duration="260.00" routeLength="921.05" waitingTime="125.00" waitingCount="8" stopTime="0.00" timeLoss="182.06" rerouteNo="0" devices="tripinfo_f_0_3.18" vType="type1" speedFactor="0.99" vaporized=""/>
    <tripinfo id="f_0_0.14" depart="191.00" departLane="np13_nt13_0" departPos="39.68" departSpeed="0.00" departDelay="0.10" arrival="412.00" arrivalLane="nt4_np5_0" arrivalPos="75.00" arrivalSpeed="14.03" duration="221.00" routeLength="1308.21" waitingTime="58.00" waitingCount="6" stopTime="0.00" timeLoss="107.21" rerouteNo="0" devices="tripinfo_f_0_0.14" vType="type1" speedFactor="0.80" vaporized=""/>
    <tripinfo id="f_0_0.15" depart="205.00" departLane="np13_nt13_0" departPos="61.35" departSpeed="0.00" departDelay="0.46" arrival="417.00" arrivalLane="nt4_np5_0" arrivalPos="75.00" arrivalSpeed="17.22" duration="212.00" routeLength="1286.54" waitingTime="53.00" waitingCount="8" stopTime="0.00" timeLoss="116.08" rerouteNo="0" devices="tripinfo_f_0_0.15" vType="type1" speedFactor="0.94" vaporized=""/>
    <tripinfo id="f_0_3.19" depart="156.00" departLane="np3_nt3_0" departPos="16.20" departSpeed="0.00" departDelay="0.54" arrival="418.00" arrivalLane="nt14_np11_0" arrivalPos="75.00" arrivalSpeed="8.24" duration="262.00" routeLength="934.89" waitingTime="138.00" waitingCount="7" stopTime="0.00" timeLoss="178.98" rerouteNo="0" devices="tripinfo_f_0_3.19" vType="type1" speedFactor="0.95" vaporized=""/>
    <tripinfo id="f_0_0.16" depart="219.00" departLane="np13_nt13_0" departPos="7.13" departSpeed="0.00" departDelay="0.82" arrival="419.00" arrivalLane="nt4_np5_0" arrivalPos="75.00" arrivalSpeed="17.21" duration="200.00" routeLength="1340.76" waitingTime="36.00" waitingCount="6" stopTime="0.00" timeLoss="102.67" rerouteNo="0" devices="tripinfo_f_0_0.16" vType="type1" speedFactor="0.96" vaporized=""/>
    <tripinfo id="f_0_3.20" depart="164.00" departLane="np3_nt3_0" departPos="40.90" departSpeed="0.00" departDelay="0.36" arrival="421.00" arrivalLane="nt14_np11_0" arrivalPos="75.00" arrivalSpeed="9.09" duration="257.00" routeLength="910.19" waitingTime="120.00" waitingCount="9" stopTime="0.00" timeLoss="167.79" rerouteNo="0" devices="tripinfo_f_0_3.20" vType="type1" speedFactor="0.85" vaporized=""/>
    <tripinfo id="f_0_0.17" depart="232.00" departLane="np13_nt13_0" departPos="39.76" departSpeed="0.00" departDelay="0.19" arrival="421.00" arrivalLane="nt4_np5_0" arrivalPos="75.00" arrivalSpeed="19.06" duration="189.00" routeLength="1308.13" waitingTime="32.00" waitingCount="5" stopTime="0.00" timeLoss="95.25" rerouteNo="0" devices="tripinfo_f_0_0.17" vType="type1" speedFactor="0.98" vaporized=""/>
    <tripinfo id="f_0_3.21" depart="172.00" departLane="np3_nt3_0" departPos="35.13" departSpeed="0.00" departDelay="0.18" arrival="423.00" arrivalLane="nt14_np11_0" arrivalPos="75.00" arrivalSpeed="9.69" duration="251.00" routeLength="915.96" waitingTime="109.00" waitingCount="8" stopTime="0.00" timeLoss="178.94" rerouteNo="0" devices="tripinfo_f_0_3.21" vType="type1" speedFactor="1.07" vaporized=""/>
    <tripinfo id="f_0_3.29" depart="255.00" departLane="np3_nt3_0" departPos="64.02" departSpeed="0.00" departDelay="17.72" arrival="426.00" arrivalLane="nt14_np11_0" arrivalPos="75.00" arrivalSpeed="9.78" duration="171.00" routeLength="887.07" waitingTime="37.00" waitingCount="6" stopTime="0.00" timeLoss="89.45" rerouteNo="0" devices="tripinfo_f_0_3.29" vType="type1" speedFactor="0.91" vaporized=""/>
    <tripinfo id="f_0_0.18" depart="246.00" departLane="np13_nt13_0" departPos="2.59" departSpeed="0.00" departDelay="0.55" arrival="432.00" arrivalLane="nt4_np5_0" arrivalPos="75.00" arrivalSpeed="16.49" duration="186.00" routeLength="1345.30" waitingTime="36.00" waitingCount="5" stopTime="0.00" timeLoss="87.86" rerouteNo="0" devices="tripinfo_f_0_0.18" vType="type1" speedFactor="0.95" vaporized=""/>