<?xml version="1.0" encoding="UTF-8"?>

<!-- generated on 2023-08-30 12:47:06 by Eclipse SUMO libsumo Version 1.18.0
<configuration xmlns:xsi="http://www.w3.org/2001/XMLSchema-instance" xsi:noNamespaceSchemaLocation="http://sumo.dlr.de/xsd/libsumoConfiguration.xsd">

    <input>
        <net-file value="/home/stefan/RESCO/./environments/arterial4x4/arterial4x4.net.xml"/>
        <route-files value="/home/stefan/RESCO/./environments/arterial4x4/arterial4x4_78.rou.xml"/>
    </input>

    <output>
        <tripinfo-output value="/home/stefan/results/ITRPO-tr0-arterial4x4-0-drq_norm-wait_norm/tripinfo_78.xml"/>
        <tripinfo-output.write-unfinished value="true"/>
    </output>

    <processing>
        <time-to-teleport value="-1"/>
    </processing>

    <report>
        <no-warnings value="True"/>
        <no-step-log value="True"/>
    </report>

    <random_number>
        <random value="true"/>
    </random_number>

</configuration>
-->

<tripinfos xmlns:xsi="http://www.w3.org/2001/XMLSchema-instance" xsi:noNamespaceSchemaLocation="http://sumo.dlr.de/xsd/tripinfo_file.xsd">
    <tripinfo id="f_0_0.0" depart="0.00" departLane="np13_nt13_0" departPos="21.08" departSpeed="0.00" departDelay="0.00" arrival="122.00" arrivalLane="nt4_np5_0" arrivalPos="75.00" arrivalSpeed="18.00" duration="122.00" routeLength="1326.81" waitingTime="8.00" waitingCount="3" stopTime="0.00" timeLoss="25.97" rerouteNo="0" devices="tripinfo_f_0_0.0" vType="type1" speedFactor="0.96" vaporized=""/>
    <tripinfo id="f_0_2.0" depart="0.00" departLane="np2_nt2_0" departPos="47.81" departSpeed="0.00" departDelay="0.00" arrival="159.00" arrivalLane="nt15_np10_0" arrivalPos="75.00" arrivalSpeed="9.22" duration="159.00" routeLength="903.27" waitingTime="46.00" waitingCount="4" stopTime="0.00" timeLoss="73.12" rerouteNo="0" devices="tripinfo_f_0_2.0" vType="type1" speedFactor="0.89" vaporized=""/>
    <tripinfo id="f_0_2.1" depart="9.00" departLane="np2_nt2_0" departPos="58.37" departSpeed="0.00" departDelay="0.82" arrival="168.00" arrivalLane="nt15_np10_0" arrivalPos="75.00" arrivalSpeed="7.91" duration="159.00" routeLength="892.71" waitingTime="51.00" waitingCount="4" stopTime="0.00" timeLoss="75.70" rerouteNo="0" devices="tripinfo_f_0_2.1" vType="type1" speedFactor="0.90" vaporized=""/>
    <tripinfo id="f_0_3.0" depart="0.00" departLane="np3_nt3_0" departPos="33.24" departSpeed="0.00" departDelay="0.00" arrival="172.00" arrivalLane="nt14_np11_0" arrivalPos="75.00" arrivalSpeed="8.67" duration="172.00" routeLength="917.85" waitingTime="70.00" waitingCount="5" stopTime="0.00" timeLoss="90.95" rerouteNo="0" devices="tripinfo_f_0_3.0" vType="type1" speedFactor="0.95" vaporized=""/>
    <tripinfo id="f_0_3.1" depart="9.00" departLane="np3_nt3_0" departPos="3.56" departSpeed="0.00" departDelay="0.82" arrival="174.00" arrivalLane="nt14_np11_0" arrivalPos="75.00" arrivalSpeed="11.19" duration="165.00" routeLength="947.53" waitingTime="54.00" waitingCount="6" stopTime="0.00" timeLoss="87.79" rerouteNo="0" devices="tripinfo_f_0_3.1" vType="type1" speedFactor="1.03" vaporized=""/>
    <tripinfo id="f_0_1.0" depart="0.00" departLane="np16_nt1_0" departPos="8.04" departSpeed="0.00" departDelay="0.00" arrival="177.00" arrivalLane="nt16_np8_0" arrivalPos="75.00" arrivalSpeed="22.90" duration="177.00" routeLength="1339.84" waitingTime="49.00" waitingCount="6" stopTime="0.00" timeLoss="96.76" rerouteNo="0" devices="tripinfo_f_0_1.0" vType="type1" speedFactor="1.17" vaporized=""/>
    <tripinfo id="f_0_3.2" depart="17.00" departLane="np3_nt3_0" departPos="13.38" departSpeed="0.00" departDelay="0.64" arrival="191.00" arrivalLane="nt14_np11_0" arrivalPos="75.00" arrivalSpeed="11.18" duration="174.00" routeLength="937.71" waitingTime="72.00" waitingCount="4" stopTime="0.00" timeLoss="102.04" rerouteNo="0" devices="tripinfo_f_0_3.2" vType="type1" speedFactor="1.10" vaporized=""/>
    <tripinfo id="f_0_0.1" depart="14.00" departLane="np13_nt13_0" departPos="18.86" departSpeed="0.00" departDelay="0.36" arrival="195.00" arrivalLane="nt4_np5_0" arrivalPos="75.00" arrivalSpeed="19.12" duration="181.00" routeLength="1329.03" waitingTime="68.00" waitingCount="4" stopTime="0.00" timeLoss="91.96" rerouteNo="0" devices="tripinfo_f_0_0.1" vType="type1" speedFactor="1.04" vaporized=""/>
    <tripinfo id="f_0_0.2" depart="28.00" departLane="np13_nt13_0" departPos="14.13" departSpeed="0.00" departDelay="0.73" arrival="200.00" arrivalLane="nt4_np5_0" arrivalPos="75.00" arrivalSpeed="15.94" duration="172.00" routeLength="1333.76" waitingTime="39.00" waitingCount="3" stopTime="0.00" timeLoss="69.74" rerouteNo="0" devices="tripinfo_f_0_0.2" vType="type1" speedFactor="0.91" vaporized=""/>
    <tripinfo id="f_0_0.3" depart="41.00" departLane="np13_nt13_0" departPos="3.57" departSpeed="0.00" departDelay="0.09" arrival="208.00" arrivalLane="nt4_np5_0" arrivalPos="75.00" arrivalSpeed="19.71" duration="167.00" routeLength="1344.32" waitingTime="36.00" waitingCount="6" stopTime="0.00" timeLoss="75.26" rerouteNo="0" devices="tripinfo_f_0_0.3" vType="type1" speedFactor="1.01" vaporized=""/>
    <tripinfo id="f_0_2.2" depart="17.00" departLane="np2_nt2_0" departPos="24.00" departSpeed="0.00" departDelay="0.64" arrival="212.00" arrivalLane="nt15_np10_0" arrivalPos="75.00" arrivalSpeed="10.29" duration="195.00" routeLength="927.08" waitingTime="89.00" waitingCount="6" stopTime="0.00" timeLoss="119.26" rerouteNo="0" devices="tripinfo_f_0_2.2" vType="type1" speedFactor="1.03" vaporized=""/>
    <tripinfo id="f_0_2.3" depart="25.00" departLane="np2_nt2_0" departPos="22.31" departSpeed="0.00" departDelay="0.45" arrival="228.00" arrivalLane="nt15_np10_0" arrivalPos="75.00" arrivalSpeed="8.02" duration="203.00" routeLength="928.77" waitingTime="76.00" waitingCount="8" stopTime="0.00" timeLoss="119.01" rerouteNo="0" devices="tripinfo_f_0_2.3" vType="type1" speedFactor="0.93" vaporized=""/>
    <tripinfo id="f_0_1.1" depart="14.00" departLane="np16_nt1_0" departPos="46.37" departSpeed="0.00" departDelay="0.36" arrival="237.00" arrivalLane="nt16_np8_0" arrivalPos="75.00" arrivalSpeed="21.25" duration="223.00" routeLength="1301.51" waitingTime="81.00" waitingCount="9" stopTime="0.00" timeLoss="143.13" rerouteNo="0" devices="tripinfo_f_0_1.1" vType="type1" speedFactor="1.14" vaporized=""/>
    <tripinfo id="f_0_3.3" depart="25.00" departLane="np3_nt3_0" departPos="44.95" departSpeed="0.00" departDelay="0.45" arrival="238.00" arrivalLane="nt14_np11_0" arrivalPos="75.00" arrivalSpeed="9.66" duration="213.00" routeLength="906.14" waitingTime="91.00" waitingCount="6" stopTime="0.00" timeLoss="126.99" rerouteNo="0" devices="tripinfo_f_0_3.3" vType="type1" speedFactor="0.88" vaporized=""/>
    <tripinfo id="f_0_0.4" depart="55.00" departLane="np13_nt13_0" departPos="53.02" departSpeed="0.00" departDelay="0.46" arrival="238.00" arrivalLane="nt4_np5_0" arrivalPos="75.00" arrivalSpeed="15.17" duration="183.00" routeLength="1294.87" waitingTime="38.00" waitingCount="4" stopTime="0.00" timeLoss="75.21" rerouteNo="0" devices="tripinfo_f_0_0.4" vType="type1" speedFactor="0.84" vaporized=""/>
    <tripinfo id="f_0_3.4" depart="33.00" departLane="np3_nt3_0" departPos="14.71" departSpeed="0.00" departDelay="0.27" arrival="240.00" arrivalLane="nt14_np11_0" arrivalPos="75.00" arrivalSpeed="10.47" duration="207.00" routeLength="936.38" waitingTime="89.00" waitingCount="6" stopTime="0.00" timeLoss="131.52" rerouteNo="0" devices="tripinfo_f_0_3.4" vType="type1" speedFactor="1.04" vaporized=""/>
    <tripinfo id="f_0_0.5" depart="69.00" departLane="np13_nt13_0" departPos="37.95" departSpeed="0.00" departDelay="0.82" arrival="247.00" arrivalLane="nt4_np5_0" arrivalPos="75.00" arrivalSpeed="17.45" duration="178.00" routeLength="1309.94" waitingTime="46.00" waitingCount="5" stopTime="0.00" timeLoss="83.66" rerouteNo="0" devices="tripinfo_f_0_0.5" vType="type1" speedFactor="0.97" vaporized=""/>
    <tripinfo id="f_0_1.2" depart="28.00" departLane="np16_nt1_0" departPos="3.88" departSpeed="0.00" departDelay="0.73" arrival="258.00" arrivalLane="nt16_np8_0" arrivalPos="75.00" arrivalSpeed="23.13" duration="230.00" routeLength="1344.00" waitingTime="88.00" waitingCount="6" stopTime="0.00" timeLoss="153.88" rerouteNo="0" devices="tripinfo_f_0_1.2" vType="type1" speedFactor="1.22" vaporized=""/>
    <tripinfo id="f_0_0.6" depart="82.00" departLane="np13_nt13_0" departPos="57.44" departSpeed="0.00" departDelay="0.18" arrival="268.00" arrivalLane="nt4_np5_0" arrivalPos="75.00" arrivalSpeed="19.16" duration="186.00" routeLength="1290.45" waitingTime="50.00" waitingCount="7" stopTime="0.00" timeLoss="93.32" rerouteNo="0" devices="tripinfo_f_0_0.6" vType="type1" speedFactor="0.98" vaporized=""/>
    <tripinfo id="f_0_2.4" depart="33.00" departLane="np2_nt2_0" departPos="7.40" departSpeed="0.00" departDelay="0.27" arrival="273.00" arrivalLane="nt15_np10_0" arrivalPos="75.00" arrivalSpeed="7.42" duration="240.00" routeLength="943.68" waitingTime="111.00" waitingCount="4" stopTime="0.00" timeLoss="149.52" rerouteNo="0" devices="tripinfo_f_0_2.4" vType="type1" speedFactor="0.88" vaporized=""/>
    <tripinfo id="f_0_2.5" depart="41.00" departLane="np2_nt2_0" departPos="12.18" departSpeed="0.00" departDelay="0.09" arrival="288.00" arrivalLane="nt15_np10_0" arrivalPos="75.00" arrivalSpeed="9.69" duration="247.00" routeLength="938.90" waitingTime="124.00" waitingCount="4" stopTime="0.00" timeLoss="164.00" rerouteNo="0" devices="tripinfo_f_0_2.5" vType="type1" speedFactor="0.95" vaporized=""/>
    <tripinfo id="f_0_3.5" depart="41.00" departLane="np3_nt3_0" departPos="23.07" departSpeed="0.00" departDelay="0.09" arrival="289.00" arrivalLane="nt14_np11_0" arrivalPos="75.00" arrivalSpeed="8.42" duration="248.00" routeLength="928.02" waitingTime="120.00" waitingCount="5" stopTime="0.00" timeLoss="155.57" rerouteNo="0" devices="tripinfo_f_0_3.5" vType="type1" speedFactor="0.84" vaporized=""/>
    <tripinfo id="f_0_0.7" depart="96.00" departLane="np13_nt13_0" departPos="37.06" departSpeed="0.00" departDelay="0.55" arrival="289.00" arrivalLane="nt4_np5_0" arrivalPos="75.00" arrivalSpeed="18.64" duration="193.00" routeLength="1310.83" waitingTime="70.00" waitingCount="5" stopTime="0.00" timeLoss="101.90" rerouteNo="0" devices="tripinfo_f_0_0.7" vType="type1" speedFactor="1.00" vaporized=""/>
    <tripinfo id="f_0_0.8" depart="110.00" departLane="np13_nt13_0" departPos="11.11" departSpeed="0.00" departDelay="0.91" arrival="303.00" arrivalLane="nt4_np5_0" arrivalPos="75.00" arrivalSpeed="20.65" duration="193.00" routeLength="1336.78" waitingTime="72.00" waitingCount="5" stopTime="0.00" timeLoss="107.98" rerouteNo="0" devices="tripinfo_f_0_0.8" vType="type1" speedFactor="1.09" vaporized=""/>
    <tripinfo id="f_0_0.9" depart="123.00" departLane="np13_nt13_0" departPos="44.48" departSpeed="0.00" departDelay="0.28" arrival="305.00" arrivalLane="nt4_np5_0" arrivalPos="75.00" arrivalSpeed="18.86" duration="182.00" routeLength="1303.41" waitingTime="49.00" waitingCount="6" stopTime="0.00" timeLoss="87.35" rerouteNo="0" devices="tripinfo_f_0_0.9" vType="type1" speedFactor="0.96" vaporized=""/>
    <tripinfo id="f_0_3.6" depart="50.00" departLane="np3_nt3_0" departPos="22.62" departSpeed="0.00" departDelay="0.91" arrival="317.00" arrivalLane="nt14_np11_0" arrivalPos="75.00" arrivalSpeed="10.91" duration="267.00" routeLength="928.47" waitingTime="141.00" waitingCount="6" stopTime="0.00" timeLoss="190.75" rerouteNo="0" devices="tripinfo_f_0_3.6" vType="type1" speedFactor="1.03" vaporized=""/>
    <tripinfo id="f_0_2.6" depart="50.00" departLane="np2_nt2_0" departPos="33.44" departSpeed="0.00" departDelay="0.91" arrival="322.00" arrivalLane="nt15_np10_0" arrivalPos="75.00" arrivalSpeed="10.09" duration="272.00" routeLength="917.64" waitingTime="150.00" waitingCount="5" stopTime="0.00" timeLoss="195.79" rerouteNo="0" devices="tripinfo_f_0_2.6" vType="type1" speedFactor="1.01" vaporized=""/>
    <tripinfo id="f_0_0.10" depart="137.00" departLane="np13_nt13_0" departPos="2.48" departSpeed="0.00" departDelay="0.64" arrival="323.00" arrivalLane="nt4_np5_0" arrivalPos="75.00" arrivalSpeed="19.64" duration="186.00" routeLength="1345.41" waitingTime="52.00" waitingCount="6" stopTime="0.00" timeLoss="99.83" rerouteNo="0" devices="tripinfo_f_0_0.10" vType="type1" speedFactor="1.08" vaporized=""/>
    <tripinfo id="f_0_0.11" depart="150.00" departLane="np13_nt13_0" departPos="61.72" departSpeed="0.00" departDelay="0.00" arrival="325.00" arrivalLane="nt4_np5_0" arrivalPos="75.00" arrivalSpeed="21.09" duration="175.00" routeLength="1286.17" waitingTime="49.00" waitingCount="5" stopTime="0.00" timeLoss="92.05" rerouteNo="0" devices="tripinfo_f_0_0.11" vType="type1" speedFactor="1.09" vaporized=""/>
    <tripinfo id="f_0_0.12" depart="164.00" departLane="np13_nt13_0" departPos="54.33" departSpeed="0.00" departDelay="0.37" arrival="327.00" arrivalLane="nt4_np5_0" arrivalPos="75.00" arrivalSpeed="18.66" duration="163.00" routeLength="1293.56" waitingTime="32.00" waitingCount="8" stopTime="0.00" timeLoss="74.60" rerouteNo="0" devices="tripinfo_f_0_0.12" vType="type1" speedFactor="1.03" vaporized=""/>
    <tripinfo id="f_0_0.13" depart="178.00" departLane="np13_nt13_0" departPos="54.66" departSpeed="0.00" departDelay="0.73" arrival="339.00" arrivalLane="nt4_np5_0" arrivalPos="75.00" arrivalSpeed="21.17" duration="161.00" routeLength="1293.23" waitingTime="32.00" waitingCount="6" stopTime="0.00" timeLoss="77.13" rerouteNo="0" devices="tripinfo_f_0_0.13" vType="type1" speedFactor="1.08" vaporized=""/>
    <tripinfo id="f_0_3.7" depart="58.00" departLane="np3_nt3_0" departPos="16.04" departSpeed="0.00" departDelay="0.73" arrival="342.00" arrivalLane="nt14_np11_0" arrivalPos="75.00" arrivalSpeed="10.08" duration="284.00" routeLength="935.05" waitingTime="157.00" waitingCount="7" stopTime="0.00" timeLoss="201.65" rerouteNo="0" devices="tripinfo_f_0_3.7" vType="type1" speedFactor="0.95" vaporized=""/>
    <tripinfo id="f_0_1.3" depart="41.00" departLane="np16_nt1_0" departPos="41.08" departSpeed="0.00" departDelay="0.09" arrival="348.00" arrivalLane="nt16_np8_0" arrivalPos="75.00" arrivalSpeed="18.80" duration="307.00" routeLength="1306.80" waitingTime="168.00" waitingCount="7" stopTime="0.00" timeLoss="217.71" rerouteNo="0" devices="tripinfo_f_0_1.3" vType="type1" speedFactor="1.02" vaporized=""/>
    <tripinfo id="f_0_3.8" depart="66.00" departLane="np3_nt3_0" departPos="6.64" departSpeed="0.00" departDelay="0.54" arrival="349.00" arrivalLane="nt14_np11_0" arrivalPos="75.00" arrivalSpeed="5.68" duration="283.00" routeLength="944.45" waitingTime="123.00" waitingCount="6" stopTime="0.00" timeLoss="170.22" rerouteNo="0" devices="tripinfo_f_0_3.8" vType="type1" speedFactor="0.70" vaporized=""/>
    <tripinfo id="f_0_0.14" depart="191.00" departLane="np13_nt13_0" departPos="4.15" departSpeed="0.00" departDelay="0.10" arrival="353.00" arrivalLane="nt4_np5_0" arrivalPos="75.00" arrivalSpeed="20.62" duration="162.00" routeLength="1343.74" waitingTime="44.00" waitingCount="4" stopTime="0.00" timeLoss="74.18" rerouteNo="0" devices="tripinfo_f_0_0.14" vType="type1" speedFactor="1.07" vaporized=""/>
    <tripinfo id="f_0_3.9" depart="74.00" departLane="np3_nt3_0" departPos="0.87" departSpeed="0.00" departDelay="0.36" arrival="382.00" arrivalLane="nt14_np11_0" arrivalPos="75.00" arrivalSpeed="9.40" duration="308.00" routeLength="950.22" waitingTime="149.00" waitingCount="8" stopTime="0.00" timeLoss="231.72" rerouteNo="0" devices="tripinfo_f_0_3.9" vType="type1" speedFactor="1.05" vaporized=""/>
    <tripinfo id="f_0_1.8" depart="110.00" departLane="np16_nt1_0" departPos="63.51" departSpeed="0.00" departDelay="0.91" arrival="383.00" arrivalLane="nt16_np8_0" arrivalPos="75.00" arrivalSpeed="18.01" duration="273.00" routeLength="1284.37" waitingTime="132.00" waitingCount="9" stopTime="0.00" timeLoss="181.61" rerouteNo="0" devices="tripinfo_f_0_1.8" vType="type1" speedFactor="0.99" vaporized=""/>
    <tripinfo id="f_0_3.10" depart="82.00" departLane="np3_nt3_0" departPos="2.06" departSpeed="0.00" departDelay="0.18" arrival="384.00" arrivalLane="nt14_np11_0" arrivalPos="75.00" arrivalSpeed="9.87" duration="302.00" routeLength="949.03" waitingTime="153.00" waitingCount="10" stopTime="0.00" timeLoss="223.62" rerouteNo="0" devices="tripinfo_f_0_3.10" vType="type1" speedFactor="1.02" vaporized=""/>
    <tripinfo id="f_0_1.4" depart="55.00" departLane="np16_nt1_0" departPos="47.68" departSpeed="0.00" departDelay="0.46" arrival="385.00" arrivalLane="nt16_np8_0" arrivalPos="75.00" arrivalSpeed="18.13" duration="330.00" routeLength="1300.20" waitingTime="181.00" waitingCount="7" stopTime="0.00" timeLoss="229.78" rerouteNo="0" devices="tripinfo_f_0_1.4" vType="type1" speedFactor="0.91" vaporized=""/>
    <tripinfo id="f_0_3.11" depart="112.00" departLane="np3_nt3_0" departPos="0.00" departSpeed="0.00" departDelay="22.00" arrival="386.00" arrivalLane="nt14_np11_0" arrivalPos="75.00" arrivalSpeed="12.12" duration="274.00" routeLength="951.09" waitingTime="140.00" waitingCount="11" stopTime="0.00" timeLoss="202.38" rerouteNo="0" devices="tripinfo_f_0_3.11" vType="type1" speedFactor="1.12" vaporized=""/>
    <tripinfo id="f_0_3.12" depart="115.00" departLane="np3_nt3_0" departPos="0.00" departSpeed="0.00" departDelay="16.82" arrival="388.00" arrivalLane="nt14_np11_0" arrivalPos="75.00" arrivalSpeed="10.01" duration="273.00" routeLength="951.09" waitingTime="125.00" waitingCount="10" stopTime="0.00" timeLoss="194.79" rerouteNo="0" devices="tripinfo_f_0_3.12" vType="type1" speedFactor="1.03" vaporized=""/>
    <tripinfo id="f_0_0.15" depart="205.00" departLane="np13_nt13_0" departPos="7.48" departSpeed="0.00" departDelay="0.46" arrival="393.00" arrivalLane="nt4_np5_0" arrivalPos="75.00" arrivalSpeed="18.72" duration="188.00" routeLength="1340.41" waitingTime="63.00" waitingCount="4" stopTime="0.00" timeLoss="92.73" rerouteNo="0" devices="tripinfo_f_0_0.15" vType="type1" speedFactor="0.97" vaporized=""/>
    <tripinfo id="f_0_0.16" depart="219.00" departLane="np13_nt13_0" departPos="5.07" departSpeed="0.00" departDelay="0.82" arrival="395.00" arrivalLane="nt4_np5_0" arrivalPos="75.00" arrivalSpeed="21.65" duration="176.00" routeLength="1342.82" waitingTime="55.00" waitingCount="6" stopTime="0.00" timeLoss="91.99" rerouteNo="0" devices="tripinfo_f_0_0.16" vType="type1" speedFactor="1.11" vaporized=""/>
    <tripinfo id="f_0_3.20" depart="180.00" departLane="np3_nt3_0" departPos="62.39" departSpeed="0.00" departDelay="16.36" arrival="396.00" arrivalLane="nt14_np11_0" arrivalPos="75.00" arrivalSpeed="12.12" duration="216.00" routeLength="888.70" waitingTime="91.00" waitingCount="8" stopTime="0.00" timeLoss="150.47" rerouteNo="0" devices="tripinfo_f_0_3.20" vType="type1" speedFactor="1.13" vaporized=""/>
    <tripinfo id="f_0_1.9" depart="123.00" departLane="np16_nt1_0" departPos="31.87" departSpeed="0.00" departDelay="0.28" arrival="398.00" arrivalLane="nt16_np8_0" arrivalPos="75.00" arrivalSpeed="17.38" duration="275.00" routeLength="1316.01" waitingTime="120.00" waitingCount="11" stopTime="0.00" timeLoss="181.73" rerouteNo="0" devices="tripinfo_f_0_1.9" vType="type1" speedFactor="0.98" vaporized=""/>
    <tripinfo id="f_0_3.13" depart="127.00" departLane="np3_nt3_0" departPos="0.00" departSpeed="0.00" departDelay="20.63" arrival="400.00" arrivalLane="nt14_np11_0" arrivalPos="75.00" arrivalSpeed="8.92" duration="273.00" routeLength="951.09" waitingTime="111.00" waitingCount="10" stopTime="0.00" timeLoss="184.88" rerouteNo="0" devices="tripinfo_f_0_3.13" vType="type1" speedFactor="0.90" vaporized=""/>
    <tripinfo id="f_0_3.14" depart="130.00" departLane="np3_nt3_0" departPos="0.00" departSpeed="0.00" departDelay="15.45" arrival="411.00" arrivalLane="nt14_np11_0" arrivalPos="75.00" arrivalSpeed="11.64" duration="281.00" routeLength="951.09" waitingTime="113.00" waitingCount="11" stopTime="0.00" timeLoss="212.54" rerouteNo="0" devices="tripinfo_f_0_3.14" vType="type1" speedFactor="1.18" vaporized=""/>
    <tripinfo id="f_0_2.7" depart="58.00" departLane="np2_nt2_0" departPos="23.96" departSpeed="0.00" departDelay="0.73" arrival="413.00" arrivalLane="nt15_np10_0" arrivalPos="75.00" arrivalSpeed="8.80" duration="355.00" routeLength="927.12" waitingTime="219.00" waitingCount="11" stopTime="0.00" timeLoss="271.18" rerouteNo="0" devices="tripinfo_f_0_2.7" vType="type1" speedFactor="0.93" vaporized=""/>
    <tripinfo id="f_0_0.17" depart="232.00" departLane="np13_nt13_0" departPos="60.54" departSpeed="0.00" departDelay="0.19" arrival="413.00" arrivalLane="nt4_np5_0" arrivalPos="75.00" arrivalSpeed="20.20" duration="181.00" routeLength="1287.35" waitingTime="54.00" waitingCount="5" stopTime="0.00" timeLoss="95.70" rerouteNo="0" devices="tripinfo_f_0_0.17" vType="type1" speedFactor="1.06" vaporized=""/>
    <tripinfo id="f_0_2.8" depart="66.00" departLane="np2_nt2_0" departPos="10.11" departSpeed="0.00" departDelay="0.54" arrival="416.00" arrivalLane="nt15_np10_0" arrivalPos="75.00" arrivalSpeed="8.51" duration="350.00" routeLength="940.97" waitingTime="200.00" waitingCount="9" stopTime="0.00" timeLoss="259.41" rerouteNo="0" devices="tripinfo_f_0_2.8" vType="type1" speedFactor="0.87" vaporized=""/>
    <tripinfo id="f_0_2.9" depart="74.00" departLane="np2_nt2_0" departPos="30.77" departSpeed="0.00" departDelay="0.36" arrival="422.00" arrivalLane="nt15_np10_0" arrivalPos="75.00" arrivalSpeed="9.49" duration="348.00" routeLength="920.31" waitingTime="219.00" waitingCount="8" stopTime="0.00" timeLoss="272.39" rerouteNo="0" devices="tripinfo_f_0_2.9" vType="type1" speedFactor="1.03" vaporized=""/>
    <tripinfo id="f_0_3.15" depart="133.00" departLane="np3_nt3_0" departPos="0.00" departSpeed="0.00" departDelay="10.27" arrival="434.00" arrivalLane="nt14_np11_0" arrivalPos="75.00" arrivalSpeed="8.55" duration="301.00" routeLength="951.09" waitingTime="141.00" waitingCount="8" stopTime="0.00" timeLoss="206.74" rerouteNo="0" devices="tripinfo_f_0_3.15" vType="type1" speedFactor="0.85" vaporized=""/>
    <tripinfo id="f_0_1.10" depart="137.00" departLane="np16_nt1_0" departPos="12.47" departSpeed="0.00" departDelay="0.64" arrival="434.00" arrivalLane="nt16_np8_0" arrivalPos="75.00" arrivalSpeed="21.24" duration="297.00" routeLength="1335.41" waitingTime="151.00" waitingCount="11" stopTime="0.00" timeLoss="215.24" rerouteNo="0" devices="tripinfo_f_0_1.10" vType="type1" speedFactor="1.14" vaporized=""/>
    <tripinfo id="f_0_0.18" depart="246.00" departLane="np13_nt13_0" departPos="40.47" departSpeed="0.00" departDelay="0.55" arrival="447.00" arrivalLane="nt4_np5_0" arrivalPos="75.00" arrivalSpeed="18.21" duration="201.00" routeLength="1307.42" waitingTime="85.00" waitingCount="3" stopTime="0.00" timeLoss="109.16" rerouteNo="0" devices="tripinfo_f_0_0.18" vType="type1" speedFactor="0.99" vaporized=""/>
    <tripinfo id="f_0_3.16" depart="136.00" departLane="np3_nt3_0" departPos="0.75" departSpeed="0.00" departDelay="5.09" arrival="458.00" arrivalLane="nt14_np11_0" arrivalPos="75.00" arrivalSpeed="9.00" duration="322.00" routeLength="950.34" waitingTime="157.00" waitingCount="9" stopTime="0.00" timeLoss="236.39" rerouteNo="0" devices="tripinfo_f_0_3.16" vType="type1" speedFactor="0.94" vaporized=""/>
    <tripinfo id="f_0_3.17" depart="140.00" departLane="np3_nt3_0" departPos="0.00" departSpeed="0.00" departDelay="0.91" arrival="462.00" arrivalLane="nt14_np11_0" arrivalPos="75.00" arrivalSpeed="7.96" duration="322.00" routeLength="951.09" waitingTime="149.00" waitingCount="11" stopTime="0.00" timeLoss="224.04" rerouteNo="0" devices="tripinfo_f_0_3.17" vType="type1" speedFactor="0.82" vaporized=""/>
    <tripinfo id="f_0_1.12" depart="164.00" departLane="np16_nt1_0" departPos="13.30" departSpeed="0.00" departDelay="0.37" arrival="462.00" arrivalLane="nt16_np8_0" arrivalPos="75.00" arrivalSpeed="22.68" duration="298.00" routeLength="1334.58" waitingTime="172.00" waitingCount="7" stopTime="0.00" timeLoss="218.03" rerouteNo="0" devices="tripinfo_f_0_1.12" vType="type1" speedFactor="1.15" vaporized=""/>
    <tripinfo id="f_0_0.19" depart="260.00" departLane="np13_nt13_0" departPos="32.62" departSpeed="0.00" departDelay="0.92" arrival="478.00" arrivalLane="nt4_np5_0" arrivalPos="75.00" arrivalSpeed="21.54" duration="218.00" routeLength="1315.27" waitingTime="103.00" waitingCount="4" stopTime="0.00" timeLoss="133.42" rerouteNo="0" devices="tripinfo_f_0_0.19" vType="type1" speedFactor="1.09" vaporized=""/>
    <tripinfo id="f_0_0.20" depart="273.00" departLane="np13_nt13_0" departPos="7.33" departSpeed="0.00" departDelay="0.28" arrival="480.00" arrivalLane="nt4_np5_0" arrivalPos="75.00" arrivalSpeed="18.10" duration="207.00" routeLength="1340.56" waitingTime="74.00" waitingCount="3" stopTime="0.00" timeLoss="108.03" rerouteNo="0" devices="tripinfo_f_0_0.20" vType="type1" speedFactor="0.94" vaporized=""/>
    <tripinfo id="f_0_0.21" depart="287.00" departLane="np13_nt13_0" departPos="27.13" departSpeed="0.00" departDelay="0.64" arrival="485.00" arrivalLane="nt4_np5_0" arrivalPos="75.00" arrivalSpeed="21.12" duration="198.00" routeLength="1320.76" waitingTime="74.00" waitingCount="5" stopTime="0.00" timeLoss="110.54" rerouteNo="0" devices="tripinfo_f_0_0.21" vType="type1" speedFactor="1.06" vaporized=""/>
    <tripinfo id="f_0_1.11" depart="150.00" departLane="np16_nt1_0" departPos="6.78" departSpeed="0.00" departDelay="0.00" arrival="487.00" arrivalLane="nt16_np8_0" arrivalPos="75.00" arrivalSpeed="22.07" duration="337.00" routeLength="1341.10" waitingTime="195.00" waitingCount="9" stopTime="0.00" timeLoss="254.41" rerouteNo="0" devices="tripinfo_f_0_1.11" vType="type1" speedFactor="1.12" vaporized=""/>
    <tripinfo id="f_0_0.22" depart="300.00" departLane="np13_nt13_0" departPos="54.49" departSpeed="0.00" departDelay="0.01" arrival="492.00" arrivalLane="nt4_np5_0" arrivalPos="75.00" arrivalSpeed="17.29" duration="192.00" routeLength="1293.40" waitingTime="55.00" waitingCount="4" stopTime="0.00" timeLoss="94.87" rerouteNo="0" devices="tripinfo_f_0_0.22" vType="type1" speedFactor="0.94" vaporized=""/>
    <tripinfo id="f_1_0.0" depart="300.00" departLane="np13_nt13_0" departPos="31.72" departSpeed="0.00" departDelay="0.00" arrival="493.00" arrivalLane="nt4_np5_0" arrivalPos="75.00" arrivalSpeed="20.16" duration="193.00" routeLength="1316.17" waitingTime="59.00" waitingCount="6" stopTime="0.00" timeLoss="113.18" rerouteNo="0" devices="tripinfo_f_1_0.0" vType="type1" speedFactor="1.14" vaporized=""/>
    <tripinfo id="f_0_3.18" depart="149.00" departLane="np3_nt3_0" departPos="0.00" departSpeed="0.00" departDelay="1.72" arrival="498.00" arrivalLane="nt14_np11_0" arrivalPos="75.00" arrivalSpeed="8.91" duration="349.00" routeLength="951.09" waitingTime="170.00" waitingCount="12" stopTime="0.00" timeLoss="268.88" rerouteNo="0" devices="tripinfo_f_0_3.18" vType="type1" speedFactor="1.00" vaporized=""/>
    <tripinfo id="f_1_0.1" depart="308.00" departLane="np13_nt13_0" departPos="46.90" departSpeed="0.00" departDelay="0.19" arrival="504.00" arrivalLane="nt4_np5_0" arrivalPos="75.00" arrivalSpeed="21.52" duration="196.00" routeLength="1300.99" waitingTime="51.00" waitingCount="7" stopTime="0.00" timeLoss="111.78" rerouteNo="0" devices="tripinfo_f_1_0.1" vType="type1" speedFactor="1.09" vaporized=""/>
    <tripinfo id="f_0_1.13" depart="178.00" departLane="np16_nt1_0" departPos="44.72" departSpeed="0.00" departDelay="0.73" arrival="518.00" arrivalLane="nt16_np8_0" arrivalPos="75.00" arrivalSpeed="18.67" duration="340.00" routeLength="1303.16" waitingTime="194.00" waitingCount="9" stopTime="0.00" timeLoss="248.33" rerouteNo="0" devices="tripinfo_f_0_1.13" vType="type1" speedFactor="1.00" vaporized=""/>
    <tripinfo id="f_0_3.19" depart="174.00" departLane="np3_nt3_0" departPos="0.00" departSpeed="0.00" departDelay="18.54" arrival="519.00" arrivalLane="nt14_np11_0" arrivalPos="75.00" arrivalSpeed="8.86" duration="345.00" routeLength="951.09" waitingTime="172.00" waitingCount="13" stopTime="0.00" timeLoss="256.80" rerouteNo="0" devices="tripinfo_f_0_3.19" vType="type1" speedFactor="0.91" vaporized=""/>
    <tripinfo id="f_1_0.2" depart="316.00" departLane="np13_nt13_0" departPos="32.19" departSpeed="0.00" departDelay="0.38" arrival="538.00" arrivalLane="nt4_np5_0" arrivalPos="75.00" arrivalSpeed="18.55" duration="222.00" routeLength="1315.70" waitingTime="70.00" waitingCount="8" stopTime="0.00" timeLoss="134.03" rerouteNo="0" devices="tripinfo_f_1_0.2" vType="type1" speedFactor="1.04" vaporized=""/>
    <tripinfo id="f_1_0.3" depart="324.00" departLane="np13_nt13_0" departPos="30.61" departSpeed="0.00" departDelay="0.57" arrival="540.00" arrivalLane="nt4_np5_0" arrivalPos="75.00" arrivalSpeed="18.01" duration="216.00" routeLength="1317.28" waitingTime="54.00" waitingCount="7" stopTime="0.00" timeLoss="122.46" rerouteNo="0" devices="tripinfo_f_1_0.3" vType="type1" speedFactor="0.98" vaporized=""/>
    <tripinfo id="f_0_3.21" depart="189.00" departLane="np3_nt3_0" departPos="0.00" departSpeed="0.00" departDelay="17.18" arrival="548.00" arrivalLane="nt14_np11_0" arrivalPos="75.00" arrivalSpeed="10.09" duration="359.00" routeLength="951.09" waitingTime="195.00" waitingCount="12" stopTime="0.00" timeLoss="273.81" rerouteNo="0" devices="tripinfo_f_0_3.21" vType="type1" speedFactor="0.94" vaporized=""/>
    <tripinfo id="f_1_0.4" depart="332.00" departLane="np13_nt13_0" departPos="33.34" departSpeed="0.00" departDelay="0.76" arrival="548.00" arrivalLane="nt4_np5_0" arrivalPos="75.00" arrivalSpeed="21.86" duration="216.00" routeLength="1314.55" waitingTime="55.00" waitingCount="8" stopTime="0.00" timeLoss="135.03" rerouteNo="0" devices="tripinfo_f_1_0.4" vType="type1" speedFactor="1.14" vaporized=""/>