<?xml version="1.0" encoding="UTF-8"?>

<!-- generated on 2023-08-30 12:46:27 by Eclipse SUMO libsumo Version 1.18.0
<configuration xmlns:xsi="http://www.w3.org/2001/XMLSchema-instance" xsi:noNamespaceSchemaLocation="http://sumo.dlr.de/xsd/libsumoConfiguration.xsd">

    <input>
        <net-file value="/home/stefan/RESCO/./environments/arterial4x4/arterial4x4.net.xml"/>
        <route-files value="/home/stefan/RESCO/./environments/arterial4x4/arterial4x4_76.rou.xml"/>
    </input>

    <output>
        <tripinfo-output value="/home/stefan/results/ITRPO-tr0-arterial4x4-0-drq_norm-wait_norm/tripinfo_76.xml"/>
        <tripinfo-output.write-unfinished value="true"/>
    </output>

    <processing>
        <time-to-teleport value="-1"/>
    </processing>

    <report>
        <no-warnings value="True"/>
        <no-step-log value="True"/>
    </report>

    <random_number>
        <random value="true"/>
    </random_number>

</configuration>
-->

<tripinfos xmlns:xsi="http://www.w3.org/2001/XMLSchema-instance" xsi:noNamespaceSchemaLocation="http://sumo.dlr.de/xsd/tripinfo_file.xsd">
    <tripinfo id="f_0_2.0" depart="0.00" departLane="np2_nt2_0" departPos="4.17" departSpeed="0.00" departDelay="0.00" arrival="111.00" arrivalLane="nt15_np10_0" arrivalPos="75.00" arrivalSpeed="11.61" duration="111.00" routeLength="946.91" waitingTime="20.00" waitingCount="3" stopTime="0.00" timeLoss="44.19" rerouteNo="0" devices="tripinfo_f_0_2.0" vType="type1" speedFactor="1.20" vaporized=""/>
    <tripinfo id="f_0_2.1" depart="9.00" departLane="np2_nt2_0" departPos="38.56" departSpeed="0.00" departDelay="0.82" arrival="141.00" arrivalLane="nt15_np10_0" arrivalPos="75.00" arrivalSpeed="10.64" duration="132.00" routeLength="912.52" waitingTime="36.00" waitingCount="4" stopTime="0.00" timeLoss="61.96" rerouteNo="0" devices="tripinfo_f_0_2.1" vType="type1" speedFactor="1.09" vaporized=""/>
    <tripinfo id="f_0_2.2" depart="17.00" departLane="np2_nt2_0" departPos="40.12" departSpeed="0.00" departDelay="0.64" arrival="144.00" arrivalLane="nt15_np10_0" arrivalPos="75.00" arrivalSpeed="11.07" duration="127.00" routeLength="910.96" waitingTime="27.00" waitingCount="5" stopTime="0.00" timeLoss="52.82" rerouteNo="0" devices="tripinfo_f_0_2.2" vType="type1" speedFactor="1.04" vaporized=""/>
    <tripinfo id="f_0_3.0" depart="0.00" departLane="np3_nt3_0" departPos="21.00" departSpeed="0.00" departDelay="0.00" arrival="147.00" arrivalLane="nt14_np11_0" arrivalPos="75.00" arrivalSpeed="10.69" duration="147.00" routeLength="930.09" waitingTime="47.00" waitingCount="4" stopTime="0.00" timeLoss="70.25" rerouteNo="0" devices="tripinfo_f_0_3.0" vType="type1" speedFactor="1.02" vaporized=""/>
    <tripinfo id="f_0_3.1" depart="9.00" departLane="np3_nt3_0" departPos="27.93" departSpeed="0.00" departDelay="0.82" arrival="150.00" arrivalLane="nt14_np11_0" arrivalPos="75.00" arrivalSpeed="8.99" duration="141.00" routeLength="923.16" waitingTime="30.00" waitingCount="6" stopTime="0.00" timeLoss="58.46" rerouteNo="0" devices="tripinfo_f_0_3.1" vType="type1" speedFactor="0.94" vaporized=""/>
    <tripinfo id="f_0_1.0" depart="0.00" departLane="np16_nt1_0" departPos="34.16" departSpeed="0.00" departDelay="0.00" arrival="158.00" arrivalLane="nt16_np8_0" arrivalPos="75.00" arrivalSpeed="18.53" duration="158.00" routeLength="1313.72" waitingTime="31.00" waitingCount="5" stopTime="0.00" timeLoss="61.74" rerouteNo="0" devices="tripinfo_f_0_1.0" vType="type1" speedFactor="0.95" vaporized=""/>
    <tripinfo id="f_0_1.1" depart="14.00" departLane="np16_nt1_0" departPos="48.04" departSpeed="0.00" departDelay="0.36" arrival="159.00" arrivalLane="nt16_np8_0" arrivalPos="75.00" arrivalSpeed="23.17" duration="145.00" routeLength="1299.84" waitingTime="16.00" waitingCount="4" stopTime="0.00" timeLoss="74.29" rerouteNo="0" devices="tripinfo_f_0_1.1" vType="type1" speedFactor="1.28" vaporized=""/>
    <tripinfo id="f_0_3.2" depart="17.00" departLane="np3_nt3_0" departPos="19.12" departSpeed="0.00" departDelay="0.64" arrival="167.00" arrivalLane="nt14_np11_0" arrivalPos="75.00" arrivalSpeed="10.59" duration="150.00" routeLength="931.97" waitingTime="34.00" waitingCount="6" stopTime="0.00" timeLoss="79.74" rerouteNo="0" devices="tripinfo_f_0_3.2" vType="type1" speedFactor="1.12" vaporized=""/>
    <tripinfo id="f_0_2.3" depart="25.00" departLane="np2_nt2_0" departPos="21.91" departSpeed="0.00" departDelay="0.45" arrival="171.00" arrivalLane="nt15_np10_0" arrivalPos="75.00" arrivalSpeed="11.48" duration="146.00" routeLength="929.17" waitingTime="28.00" waitingCount="5" stopTime="0.00" timeLoss="77.88" rerouteNo="0" devices="tripinfo_f_0_2.3" vType="type1" speedFactor="1.15" vaporized=""/>
    <tripinfo id="f_0_0.0" depart="0.00" departLane="np13_nt13_0" departPos="10.93" departSpeed="0.00" departDelay="0.00" arrival="184.00" arrivalLane="nt4_np5_0" arrivalPos="75.00" arrivalSpeed="16.01" duration="184.00" routeLength="1336.96" waitingTime="45.00" waitingCount="4" stopTime="0.00" timeLoss="77.80" rerouteNo="0" devices="tripinfo_f_0_0.0" vType="type1" speedFactor="0.88" vaporized=""/>
    <tripinfo id="f_0_3.3" depart="25.00" departLane="np3_nt3_0" departPos="13.89" departSpeed="0.00" departDelay="0.45" arrival="224.00" arrivalLane="nt14_np11_0" arrivalPos="75.00" arrivalSpeed="6.37" duration="199.00" routeLength="937.20" waitingTime="78.00" waitingCount="2" stopTime="0.00" timeLoss="101.34" rerouteNo="0" devices="tripinfo_f_0_3.3" vType="type1" speedFactor="0.81" vaporized=""/>
    <tripinfo id="f_0_2.4" depart="33.00" departLane="np2_nt2_0" departPos="35.37" departSpeed="0.00" departDelay="0.27" arrival="225.00" arrivalLane="nt15_np10_0" arrivalPos="75.00" arrivalSpeed="8.45" duration="192.00" routeLength="915.71" waitingTime="74.00" waitingCount="4" stopTime="0.00" timeLoss="98.91" rerouteNo="0" devices="tripinfo_f_0_2.4" vType="type1" speedFactor="0.83" vaporized=""/>
    <tripinfo id="f_0_3.4" depart="33.00" departLane="np3_nt3_0" departPos="33.66" departSpeed="0.00" departDelay="0.27" arrival="226.00" arrivalLane="nt14_np11_0" arrivalPos="75.00" arrivalSpeed="10.27" duration="193.00" routeLength="917.43" waitingTime="75.00" waitingCount="2" stopTime="0.00" timeLoss="117.56" rerouteNo="0" devices="tripinfo_f_0_3.4" vType="type1" speedFactor="1.02" vaporized=""/>
    <tripinfo id="f_0_2.5" depart="41.00" departLane="np2_nt2_0" departPos="18.06" departSpeed="0.00" departDelay="0.09" arrival="233.00" arrivalLane="nt15_np10_0" arrivalPos="75.00" arrivalSpeed="9.15" duration="192.00" routeLength="933.02" waitingTime="68.00" waitingCount="5" stopTime="0.00" timeLoss="109.37" rerouteNo="0" devices="tripinfo_f_0_2.5" vType="type1" speedFactor="0.96" vaporized=""/>
    <tripinfo id="f_0_1.2" depart="28.00" departLane="np16_nt1_0" departPos="63.30" departSpeed="0.00" departDelay="0.73" arrival="238.00" arrivalLane="nt16_np8_0" arrivalPos="75.00" arrivalSpeed="16.41" duration="210.00" routeLength="1284.58" waitingTime="72.00" waitingCount="5" stopTime="0.00" timeLoss="109.14" rerouteNo="0" devices="tripinfo_f_0_1.2" vType="type1" speedFactor="0.89" vaporized=""/>
    <tripinfo id="f_0_0.1" depart="14.00" departLane="np13_nt13_0" departPos="64.21" departSpeed="0.00" departDelay="0.36" arrival="258.00" arrivalLane="nt4_np5_0" arrivalPos="75.00" arrivalSpeed="18.83" duration="244.00" routeLength="1283.68" waitingTime="116.00" waitingCount="5" stopTime="0.00" timeLoss="156.15" rerouteNo="0" devices="tripinfo_f_0_0.1" vType="type1" speedFactor="1.02" vaporized=""/>
    <tripinfo id="f_0_0.2" depart="28.00" departLane="np13_nt13_0" departPos="43.69" departSpeed="0.00" departDelay="0.73" arrival="273.00" arrivalLane="nt4_np5_0" arrivalPos="75.00" arrivalSpeed="19.09" duration="245.00" routeLength="1304.20" waitingTime="117.00" waitingCount="8" stopTime="0.00" timeLoss="160.16" rerouteNo="0" devices="tripinfo_f_0_0.2" vType="type1" speedFactor="1.07" vaporized=""/>
    <tripinfo id="f_0_0.3" depart="41.00" departLane="np13_nt13_0" departPos="66.42" departSpeed="0.00" departDelay="0.09" arrival="275.00" arrivalLane="nt4_np5_0" arrivalPos="75.00" arrivalSpeed="17.53" duration="234.00" routeLength="1281.47" waitingTime="102.00" waitingCount="6" stopTime="0.00" timeLoss="144.01" rerouteNo="0" devices="tripinfo_f_0_0.3" vType="type1" speedFactor="1.00" vaporized=""/>
    <tripinfo id="f_0_3.5" depart="41.00" departLane="np3_nt3_0" departPos="33.07" departSpeed="0.00" departDelay="0.09" arrival="278.00" arrivalLane="nt14_np11_0" arrivalPos="75.00" arrivalSpeed="10.40" duration="237.00" routeLength="918.02" waitingTime="132.00" waitingCount="6" stopTime="0.00" timeLoss="158.98" rerouteNo="0" devices="tripinfo_f_0_3.5" vType="type1" speedFactor="0.99" vaporized=""/>
    <tripinfo id="f_0_2.6" depart="50.00" departLane="np2_nt2_0" departPos="44.53" departSpeed="0.00" departDelay="0.91" arrival="289.00" arrivalLane="nt15_np10_0" arrivalPos="75.00" arrivalSpeed="7.33" duration="239.00" routeLength="906.55" waitingTime="113.00" waitingCount="6" stopTime="0.00" timeLoss="150.75" rerouteNo="0" devices="tripinfo_f_0_2.6" vType="type1" speedFactor="0.86" vaporized=""/>
    <tripinfo id="f_0_3.6" depart="50.00" departLane="np3_nt3_0" departPos="40.56" departSpeed="0.00" departDelay="0.91" arrival="294.00" arrivalLane="nt14_np11_0" arrivalPos="75.00" arrivalSpeed="7.68" duration="244.00" routeLength="910.53" waitingTime="120.00" waitingCount="6" stopTime="0.00" timeLoss="155.12" rerouteNo="0" devices="tripinfo_f_0_3.6" vType="type1" speedFactor="0.86" vaporized=""/>
    <tripinfo id="f_0_1.3" depart="41.00" departLane="np16_nt1_0" departPos="59.68" departSpeed="0.00" departDelay="0.09" arrival="297.00" arrivalLane="nt16_np8_0" arrivalPos="75.00" arrivalSpeed="18.64" duration="256.00" routeLength="1288.20" waitingTime="109.00" waitingCount="6" stopTime="0.00" timeLoss="162.51" rerouteNo="0" devices="tripinfo_f_0_1.3" vType="type1" speedFactor="0.97" vaporized=""/>
    <tripinfo id="f_0_3.14" depart="150.00" departLane="np3_nt3_0" departPos="63.57" departSpeed="0.00" departDelay="35.45" arrival="307.00" arrivalLane="nt14_np11_0" arrivalPos="75.00" arrivalSpeed="10.63" duration="157.00" routeLength="887.52" waitingTime="37.00" waitingCount="6" stopTime="0.00" timeLoss="85.27" rerouteNo="0" devices="tripinfo_f_0_3.14" vType="type1" speedFactor="1.03" vaporized=""/>
    <tripinfo id="f_0_2.7" depart="58.00" departLane="np2_nt2_0" departPos="43.46" departSpeed="0.00" departDelay="0.73" arrival="308.00" arrivalLane="nt15_np10_0" arrivalPos="75.00" arrivalSpeed="9.73" duration="250.00" routeLength="907.62" waitingTime="115.00" waitingCount="9" stopTime="0.00" timeLoss="165.88" rerouteNo="0" devices="tripinfo_f_0_2.7" vType="type1" speedFactor="0.91" vaporized=""/>
    <tripinfo id="f_0_3.7" depart="58.00" departLane="np3_nt3_0" departPos="14.78" departSpeed="0.00" departDelay="0.73" arrival="309.00" arrivalLane="nt14_np11_0" arrivalPos="75.00" arrivalSpeed="9.78" duration="251.00" routeLength="936.31" waitingTime="110.00" waitingCount="7" stopTime="0.00" timeLoss="174.65" rerouteNo="0" devices="tripinfo_f_0_3.7" vType="type1" speedFactor="1.03" vaporized=""/>
    <tripinfo id="f_0_2.8" depart="66.00" departLane="np2_nt2_0" departPos="0.32" departSpeed="0.00" departDelay="0.54" arrival="310.00" arrivalLane="nt15_np10_0" arrivalPos="75.00" arrivalSpeed="11.93" duration="244.00" routeLength="950.76" waitingTime="114.00" waitingCount="10" stopTime="0.00" timeLoss="173.01" rerouteNo="0" devices="tripinfo_f_0_2.8" vType="type1" speedFactor="1.14" vaporized=""/>
    <tripinfo id="f_0_0.4" depart="55.00" departLane="np13_nt13_0" departPos="21.18" departSpeed="0.00" departDelay="0.46" arrival="313.00" arrivalLane="nt4_np5_0" arrivalPos="75.00" arrivalSpeed="18.21" duration="258.00" routeLength="1326.71" waitingTime="122.00" waitingCount="7" stopTime="0.00" timeLoss="163.33" rerouteNo="0" devices="tripinfo_f_0_0.4" vType="type1" speedFactor="0.97" vaporized=""/>
    <tripinfo id="f_0_2.9" depart="74.00" departLane="np2_nt2_0" departPos="19.04" departSpeed="0.00" departDelay="0.36" arrival="314.00" arrivalLane="nt15_np10_0" arrivalPos="75.00" arrivalSpeed="10.92" duration="240.00" routeLength="932.04" waitingTime="94.00" waitingCount="11" stopTime="0.00" timeLoss="164.65" rerouteNo="0" devices="tripinfo_f_0_2.9" vType="type1" speedFactor="1.05" vaporized=""/>
    <tripinfo id="f_0_0.5" depart="69.00" departLane="np13_nt13_0" departPos="17.37" departSpeed="0.00" departDelay="0.82" arrival="315.00" arrivalLane="nt4_np5_0" arrivalPos="75.00" arrivalSpeed="17.43" duration="246.00" routeLength="1330.52" waitingTime="103.00" waitingCount="7" stopTime="0.00" timeLoss="144.76" rerouteNo="0" devices="tripinfo_f_0_0.5" vType="type1" speedFactor="0.91" vaporized=""/>
    <tripinfo id="f_0_2.10" depart="82.00" departLane="np2_nt2_0" departPos="26.29" departSpeed="0.00" departDelay="0.18" arrival="316.00" arrivalLane="nt15_np10_0" arrivalPos="75.00" arrivalSpeed="9.97" duration="234.00" routeLength="924.79" waitingTime="84.00" waitingCount="11" stopTime="0.00" timeLoss="152.57" rerouteNo="0" devices="tripinfo_f_0_2.10" vType="type1" speedFactor="0.95" vaporized=""/>
    <tripinfo id="f_0_3.15" depart="155.00" departLane="np3_nt3_0" departPos="63.68" departSpeed="0.00" departDelay="32.27" arrival="317.00" arrivalLane="nt14_np11_0" arrivalPos="75.00" arrivalSpeed="8.81" duration="162.00" routeLength="887.41" waitingTime="40.00" waitingCount="7" stopTime="0.00" timeLoss="87.99" rerouteNo="0" devices="tripinfo_f_0_3.15" vType="type1" speedFactor="1.00" vaporized=""/>
    <tripinfo id="f_0_3.8" depart="66.00" departLane="np3_nt3_0" departPos="8.33" departSpeed="0.00" departDelay="0.54" arrival="319.00" arrivalLane="nt14_np11_0" arrivalPos="75.00" arrivalSpeed="11.24" duration="253.00" routeLength="942.76" waitingTime="153.00" waitingCount="4" stopTime="0.00" timeLoss="185.85" rerouteNo="0" devices="tripinfo_f_0_3.8" vType="type1" speedFactor="1.18" vaporized=""/>
    <tripinfo id="f_0_2.11" depart="90.00" departLane="np2_nt2_0" departPos="35.90" departSpeed="0.00" departDelay="0.00" arrival="320.00" arrivalLane="nt15_np10_0" arrivalPos="75.00" arrivalSpeed="9.26" duration="230.00" routeLength="915.18" waitingTime="78.00" waitingCount="11" stopTime="0.00" timeLoss="144.71" rerouteNo="0" devices="tripinfo_f_0_2.11" vType="type1" speedFactor="0.90" vaporized=""/>
    <tripinfo id="f_0_0.6" depart="82.00" departLane="np13_nt13_0" departPos="30.82" departSpeed="0.00" departDelay="0.18" arrival="323.00" arrivalLane="nt4_np5_0" arrivalPos="75.00" arrivalSpeed="18.24" duration="241.00" routeLength="1317.07" waitingTime="94.00" waitingCount="7" stopTime="0.00" timeLoss="142.65" rerouteNo="0" devices="tripinfo_f_0_0.6" vType="type1" speedFactor="0.93" vaporized=""/>
    <tripinfo id="f_0_0.7" depart="96.00" departLane="np13_nt13_0" departPos="37.37" departSpeed="0.00" departDelay="0.55" arrival="325.00" arrivalLane="nt4_np5_0" arrivalPos="75.00" arrivalSpeed="17.91" duration="229.00" routeLength="1310.52" waitingTime="82.00" waitingCount="8" stopTime="0.00" timeLoss="135.12" rerouteNo="0" devices="tripinfo_f_0_0.7" vType="type1" speedFactor="0.97" vaporized=""/>
    <tripinfo id="f_0_0.8" depart="110.00" departLane="np13_nt13_0" departPos="36.54" departSpeed="0.00" departDelay="0.91" arrival="326.00" arrivalLane="nt4_np5_0" arrivalPos="75.00" arrivalSpeed="22.26" duration="216.00" routeLength="1311.35" waitingTime="76.00" waitingCount="6" stopTime="0.00" timeLoss="138.09" rerouteNo="0" devices="tripinfo_f_0_0.8" vType="type1" speedFactor="1.17" vaporized=""/>
    <tripinfo id="f_0_2.12" depart="99.00" departLane="np2_nt2_0" departPos="49.21" departSpeed="0.00" departDelay="0.82" arrival="327.00" arrivalLane="nt15_np10_0" arrivalPos="75.00" arrivalSpeed="10.13" duration="228.00" routeLength="901.87" waitingTime="68.00" waitingCount="11" stopTime="0.00" timeLoss="150.43" rerouteNo="0" devices="tripinfo_f_0_2.12" vType="type1" speedFactor="0.97" vaporized=""/>
    <tripinfo id="f_0_1.4" depart="55.00" departLane="np16_nt1_0" departPos="35.97" departSpeed="0.00" departDelay="0.46" arrival="338.00" arrivalLane="nt16_np8_0" arrivalPos="75.00" arrivalSpeed="20.91" duration="283.00" routeLength="1311.91" waitingTime="129.00" waitingCount="12" stopTime="0.00" timeLoss="199.23" rerouteNo="0" devices="tripinfo_f_0_1.4" vType="type1" speedFactor="1.09" vaporized=""/>
    <tripinfo id="f_0_1.5" depart="69.00" departLane="np16_nt1_0" departPos="21.63" departSpeed="0.00" departDelay="0.82" arrival="343.00" arrivalLane="nt16_np8_0" arrivalPos="75.00" arrivalSpeed="16.52" duration="274.00" routeLength="1326.25" waitingTime="76.00" waitingCount="11" stopTime="0.00" timeLoss="166.49" rerouteNo="0" devices="tripinfo_f_0_1.5" vType="type1" speedFactor="0.86" vaporized=""/>
    <tripinfo id="f_0_1.6" depart="82.00" departLane="np16_nt1_0" departPos="67.53" departSpeed="0.00" departDelay="0.18" arrival="344.00" arrivalLane="nt16_np8_0" arrivalPos="75.00" arrivalSpeed="21.98" duration="262.00" routeLength="1280.35" waitingTime="63.00" waitingCount="11" stopTime="0.00" timeLoss="182.49" rerouteNo="0" devices="tripinfo_f_0_1.6" vType="type1" speedFactor="1.13" vaporized=""/>
    <tripinfo id="f_0_1.7" depart="96.00" departLane="np16_nt1_0" departPos="17.40" departSpeed="0.00" departDelay="0.55" arrival="374.00" arrivalLane="nt16_np8_0" arrivalPos="75.00" arrivalSpeed="20.70" duration="278.00" routeLength="1330.48" waitingTime="99.00" waitingCount="11" stopTime="0.00" timeLoss="195.41" rerouteNo="0" devices="tripinfo_f_0_1.7" vType="type1" speedFactor="1.12" vaporized=""/>
    <tripinfo id="f_0_3.9" depart="74.00" departLane="np3_nt3_0" departPos="5.36" departSpeed="0.00" departDelay="0.36" arrival="381.00" arrivalLane="nt14_np11_0" arrivalPos="75.00" arrivalSpeed="10.21" duration="307.00" routeLength="945.73" waitingTime="188.00" waitingCount="7" stopTime="0.00" timeLoss="233.83" rerouteNo="0" devices="tripinfo_f_0_3.9" vType="type1" speedFactor="1.08" vaporized=""/>
    <tripinfo id="f_0_2.13" depart="107.00" departLane="np2_nt2_0" departPos="60.29" departSpeed="0.00" departDelay="0.63" arrival="388.00" arrivalLane="nt15_np10_0" arrivalPos="75.00" arrivalSpeed="9.00" duration="281.00" routeLength="890.79" waitingTime="100.00" waitingCount="10" stopTime="0.00" timeLoss="200.49" rerouteNo="0" devices="tripinfo_f_0_2.13" vType="type1" speedFactor="0.92" vaporized=""/>
    <tripinfo id="f_0_2.14" depart="115.00" departLane="np2_nt2_0" departPos="19.85" departSpeed="0.00" departDelay="0.45" arrival="390.00" arrivalLane="nt15_np10_0" arrivalPos="75.00" arrivalSpeed="9.32" duration="275.00" routeLength="931.23" waitingTime="83.00" waitingCount="11" stopTime="0.00" timeLoss="196.57" rerouteNo="0" devices="tripinfo_f_0_2.14" vType="type1" speedFactor="1.00" vaporized=""/>
    <tripinfo id="f_0_1.8" depart="110.00" departLane="np16_nt1_0" departPos="0.73" departSpeed="0.00" departDelay="0.91" arrival="398.00" arrivalLane="nt16_np8_0" arrivalPos="75.00" arrivalSpeed="18.90" duration="288.00" routeLength="1347.15" waitingTime="77.00" waitingCount="9" stopTime="0.00" timeLoss="198.05" rerouteNo="0" devices="tripinfo_f_0_1.8" vType="type1" speedFactor="1.04" vaporized=""/>
    <tripinfo id="f_0_0.9" depart="123.00" departLane="np13_nt13_0" departPos="58.42" departSpeed="0.00" departDelay="0.28" arrival="400.00" arrivalLane="nt4_np5_0" arrivalPos="75.00" arrivalSpeed="16.06" duration="277.00" routeLength="1289.47" waitingTime="119.00" waitingCount="8" stopTime="0.00" timeLoss="172.02" rerouteNo="0" devices="tripinfo_f_0_0.9" vType="type1" speedFactor="0.86" vaporized=""/>
    <tripinfo id="f_0_2.15" depart="123.00" departLane="np2_nt2_0" departPos="10.15" departSpeed="0.00" departDelay="0.27" arrival="404.00" arrivalLane="nt15_np10_0" arrivalPos="75.00" arrivalSpeed="8.03" duration="281.00" routeLength="940.93" waitingTime="78.00" waitingCount="11" stopTime="0.00" timeLoss="191.45" rerouteNo="0" devices="tripinfo_f_0_2.15" vType="type1" speedFactor="0.89" vaporized=""/>
    <tripinfo id="f_0_1.12" depart="164.00" departLane="np16_nt1_0" departPos="47.08" departSpeed="0.00" departDelay="0.37" arrival="404.00" arrivalLane="nt16_np8_0" arrivalPos="75.00" arrivalSpeed="15.64" duration="240.00" routeLength="1300.80" waitingTime="89.00" waitingCount="8" stopTime="0.00" timeLoss="137.66" rerouteNo="0" devices="tripinfo_f_0_1.12" vType="type1" speedFactor="0.89" vaporized=""/>
    <tripinfo id="f_0_3.10" depart="82.00" departLane="np3_nt3_0" departPos="0.00" departSpeed="0.00" departDelay="0.18" arrival="411.00" arrivalLane="nt14_np11_0" arrivalPos="75.00" arrivalSpeed="11.80" duration="329.00" routeLength="951.09" waitingTime="208.00" waitingCount="8" stopTime="0.00" timeLoss="256.33" rerouteNo="0" devices="tripinfo_f_0_3.10" vType="type1" speedFactor="1.09" vaporized=""/>
    <tripinfo id="f_0_0.10" depart="137.00" departLane="np13_nt13_0" departPos="13.02" departSpeed="0.00" departDelay="0.64" arrival="413.00" arrivalLane="nt4_np5_0" arrivalPos="75.00" arrivalSpeed="20.39" duration="276.00" routeLength="1334.87" waitingTime="154.00" waitingCount="7" stopTime="0.00" timeLoss="194.84" rerouteNo="0" devices="tripinfo_f_0_0.10" vType="type1" speedFactor="1.14" vaporized=""/>
    <tripinfo id="f_0_1.13" depart="178.00" departLane="np16_nt1_0" departPos="14.74" departSpeed="0.00" departDelay="0.73" arrival="414.00" arrivalLane="nt16_np8_0" arrivalPos="75.00" arrivalSpeed="17.63" duration="236.00" routeLength="1333.14" waitingTime="91.00" waitingCount="7" stopTime="0.00" timeLoss="136.54" rerouteNo="0" devices="tripinfo_f_0_1.13" vType="type1" speedFactor="0.93" vaporized=""/>
    <tripinfo id="f_0_3.11" depart="90.00" departLane="np3_nt3_0" departPos="0.00" departSpeed="0.00" departDelay="0.00" arrival="422.00" arrivalLane="nt14_np11_0" arrivalPos="75.00" arrivalSpeed="9.45" duration="332.00" routeLength="951.09" waitingTime="192.00" waitingCount="10" stopTime="0.00" timeLoss="248.50" rerouteNo="0" devices="tripinfo_f_0_3.11" vType="type1" speedFactor="0.96" vaporized=""/>
    <tripinfo id="f_0_3.12" depart="112.00" departLane="np3_nt3_0" departPos="0.73" departSpeed="0.00" departDelay="13.82" arrival="424.00" arrivalLane="nt14_np11_0" arrivalPos="75.00" arrivalSpeed="12.15" duration="312.00" routeLength="950.36" waitingTime="167.00" waitingCount="9" stopTime="0.00" timeLoss="245.94" rerouteNo="0" devices="tripinfo_f_0_3.12" vType="type1" speedFactor="1.21" vaporized=""/>
    <tripinfo id="f_0_0.11" depart="150.00" departLane="np13_nt13_0" departPos="39.54" departSpeed="0.00" departDelay="0.00" arrival="428.00" arrivalLane="nt4_np5_0" arrivalPos="75.00" arrivalSpeed="18.52" duration="278.00" routeLength="1308.35" waitingTime="139.00" waitingCount="5" stopTime="0.00" timeLoss="181.78" rerouteNo="0" devices="tripinfo_f_0_0.11" vType="type1" speedFactor="0.95" vaporized=""/>
    <tripinfo id="f_0_3.13" depart="116.00" departLane="np3_nt3_0" departPos="0.00" departSpeed="0.00" departDelay="9.63" arrival="442.00" arrivalLane="nt14_np11_0" arrivalPos="75.00" arrivalSpeed="10.16" duration="326.00" routeLength="951.09" waitingTime="183.00" waitingCount="10" stopTime="0.00" timeLoss="246.02" rerouteNo="0" devices="tripinfo_f_0_3.13" vType="type1" speedFactor="1.00" vaporized=""/>
    <tripinfo id="f_0_0.12" depart="164.00" departLane="np13_nt13_0" departPos="19.34" departSpeed="0.00" departDelay="0.37" arrival="446.00" arrivalLane="nt4_np5_0" arrivalPos="75.00" arrivalSpeed="17.62" duration="282.00" routeLength="1328.55" waitingTime="147.00" waitingCount="8" stopTime="0.00" timeLoss="187.84" rerouteNo="0" devices="tripinfo_f_0_0.12" vType="type1" speedFactor="0.98" vaporized=""/>
    <tripinfo id="f_0_0.13" depart="178.00" departLane="np13_nt13_0" departPos="37.36" departSpeed="0.00" departDelay="0.73" arrival="447.00" arrivalLane="nt4_np5_0" arrivalPos="75.00" arrivalSpeed="22.54" duration="269.00" routeLength="1310.53" waitingTime="131.00" waitingCount="7" stopTime="0.00" timeLoss="190.08" rerouteNo="0" devices="tripinfo_f_0_0.13" vType="type1" speedFactor="1.16" vaporized=""/>
    <tripinfo id="f_0_0.14" depart="191.00" departLane="np13_nt13_0" departPos="12.51" departSpeed="0.00" departDelay="0.10" arrival="458.00" arrivalLane="nt4_np5_0" arrivalPos="75.00" arrivalSpeed="17.45" duration="267.00" routeLength="1335.38" waitingTime="117.00" waitingCount="9" stopTime="0.00" timeLoss="171.15" rerouteNo="0" devices="tripinfo_f_0_0.14" vType="type1" speedFactor="0.97" vaporized=""/>
    <tripinfo id="f_0_0.15" depart="205.00" departLane="np13_nt13_0" departPos="36.46" departSpeed="0.00" departDelay="0.46" arrival="479.00" arrivalLane="nt4_np5_0" arrivalPos="75.00" arrivalSpeed="17.23" duration="274.00" routeLength="1311.43" waitingTime="111.00" waitingCount="11" stopTime="0.00" timeLoss="177.93" rerouteNo="0" devices="tripinfo_f_0_0.15" vType="type1" speedFactor="0.95" vaporized=""/>
    <tripinfo id="f_0_0.16" depart="219.00" departLane="np13_nt13_0" departPos="53.30" departSpeed="0.00" departDelay="0.82" arrival="480.00" arrivalLane="nt4_np5_0" arrivalPos="75.00" arrivalSpeed="20.22" duration="261.00" routeLength="1294.59" waitingTime="97.00" waitingCount="10" stopTime="0.00" timeLoss="180.29" rerouteNo="0" devices="tripinfo_f_0_0.16" vType="type1" speedFactor="1.12" vaporized=""/>
    <tripinfo id="f_0_0.17" depart="232.00" departLane="np13_nt13_0" departPos="27.23" departSpeed="0.00" departDelay="0.19" arrival="482.00" arrivalLane="nt4_np5_0" arrivalPos="75.00" arrivalSpeed="17.86" duration="250.00" routeLength="1320.66" waitingTime="75.00" waitingCount="10" stopTime="0.00" timeLoss="156.53" rerouteNo="0" devices="tripinfo_f_0_0.17" vType="type1" speedFactor="0.98" vaporized=""/>
    <tripinfo id="f_0_0.18" depart="246.00" departLane="np13_nt13_0" departPos="63.48" departSpeed="0.00" departDelay="0.55" arrival="483.00" arrivalLane="nt4_np5_0" arrivalPos="75.00" arrivalSpeed="18.62" duration="237.00" routeLength="1284.41" waitingTime="71.00" waitingCount="11" stopTime="0.00" timeLoss="141.91" rerouteNo="0" devices="tripinfo_f_0_0.18" vType="type1" speedFactor="0.94" vaporized=""/>
    <tripinfo id="f_0_0.19" depart="260.00" departLane="np13_nt13_0" departPos="22.42" departSpeed="0.00" departDelay="0.92" arrival="485.00" arrivalLane="nt4_np5_0" arrivalPos="75.00" arrivalSpeed="19.50" duration="225.00" routeLength="1325.47" waitingTime="60.00" waitingCount="10" stopTime="0.00" timeLoss="133.32" rerouteNo="0" devices="tripinfo_f_0_0.19" vType="type1" speedFactor="1.00" vaporized=""/>
    <tripinfo id="f_0_0.20" depart="273.00" departLane="np13_nt13_0" departPos="49.66" departSpeed="0.00" departDelay="0.28" arrival="487.00" arrivalLane="nt4_np5_0" arrivalPos="75.00" arrivalSpeed="17.56" duration="214.00" routeLength="1298.23" waitingTime="47.00" waitingCount="8" stopTime="0.00" timeLoss="119.63" rerouteNo="0" devices="tripinfo_f_0_0.20" vType="type1" speedFactor="0.97" vaporized=""/>
    <tripinfo id="f_0_2.16" depart="131.00" departLane="np2_nt2_0" departPos="18.90" departSpeed="0.00" departDelay="0.09" arrival="488.00" arrivalLane="nt15_np10_0" arrivalPos="75.00" arrivalSpeed="10.18" duration="357.00" routeLength="932.18" waitingTime="171.00" waitingCount="10" stopTime="0.00" timeLoss="272.31" rerouteNo="0" devices="tripinfo_f_0_2.16" vType="type1" speedFactor="0.93" vaporized=""/>
    <tripinfo id="f_0_0.21" depart="287.00" departLane="np13_nt13_0" departPos="51.40" departSpeed="0.00" departDelay="0.64" arrival="488.00" arrivalLane="nt4_np5_0" arrivalPos="75.00" arrivalSpeed="17.79" duration="201.00" routeLength="1296.49" waitingTime="39.00" waitingCount="8" stopTime="0.00" timeLoss="108.24" rerouteNo="0" devices="tripinfo_f_0_0.21" vType="type1" speedFactor="0.98" vaporized=""/>
    <tripinfo id="f_0_0.22" depart="300.00" departLane="np13_nt13_0" departPos="41.45" departSpeed="0.00" departDelay="0.01" arrival="490.00" arrivalLane="nt4_np5_0" arrivalPos="75.00" arrivalSpeed="17.39" duration="190.00" routeLength="1306.44" waitingTime="36.00" waitingCount="6" stopTime="0.00" timeLoss="86.86" rerouteNo="0" devices="tripinfo_f_0_0.22" vType="type1" speedFactor="0.88" vaporized=""/>
    <tripinfo id="f_1_0.0" depart="300.00" departLane="np13_nt13_0" departPos="13.93" departSpeed="0.00" departDelay="0.00" arrival="494.00" arrivalLane="nt4_np5_0" arrivalPos="75.00" arrivalSpeed="21.56" duration="194.00" routeLength="1333.96" waitingTime="47.00" waitingCount="7" stopTime="0.00" timeLoss="108.90" rerouteNo="0" devices="tripinfo_f_1_0.0" vType="type1" speedFactor="1.09" vaporized=""/>
    <tripinfo id="f_0_3.16" depart="159.00" departLane="np3_nt3_0" departPos="0.00" departSpeed="0.00" departDelay="28.09" arrival="498.00" arrivalLane="nt14_np11_0" arrivalPos="75.00" arrivalSpeed="8.40" duration="339.00" routeLength="951.09" waitingTime="207.00" waitingCount="7" stopTime="0.00" timeLoss="255.70" rerouteNo="0" devices="tripinfo_f_0_3.16" vType="type1" speedFactor="0.96" vaporized=""/>
    <tripinfo id="f_0_3.17" depart="164.00" departLane="np3_nt3_0" departPos="0.00" departSpeed="0.00" departDelay="24.91" arrival="500.00" arrivalLane="nt14_np11_0" arrivalPos="75.00" arrivalSpeed="8.57" duration="336.00" routeLength="951.09" waitingTime="200.00" waitingCount="7" stopTime="0.00" timeLoss="253.22" rerouteNo="0" devices="tripinfo_f_0_3.17" vType="type1" speedFactor="0.97" vaporized=""/>
    <tripinfo id="f_0_3.18" depart="169.00" departLane="np3_nt3_0" departPos="1.49" departSpeed="0.00" departDelay="21.72" arrival="502.00" arrivalLane="nt14_np11_0" arrivalPos="75.00" arrivalSpeed="9.43" duration="333.00" routeLength="949.60" waitingTime="197.00" waitingCount="9" stopTime="0.00" timeLoss="251.64" rerouteNo="0" devices="tripinfo_f_0_3.18" vType="type1" speedFactor="0.99" vaporized=""/>