<?xml version="1.0" encoding="UTF-8"?>

<!-- generated on 2023-08-30 12:21:02 by Eclipse SUMO libsumo Version 1.18.0
<configuration xmlns:xsi="http://www.w3.org/2001/XMLSchema-instance" xsi:noNamespaceSchemaLocation="http://sumo.dlr.de/xsd/libsumoConfiguration.xsd">

    <input>
        <net-file value="/home/stefan/RESCO/./environments/arterial4x4/arterial4x4.net.xml"/>
        <route-files value="/home/stefan/RESCO/./environments/arterial4x4/arterial4x4_8.rou.xml"/>
    </input>

    <output>
        <tripinfo-output value="/home/stefan/results/ITRPO-tr0-arterial4x4-0-drq_norm-wait_norm/tripinfo_8.xml"/>
        <tripinfo-output.write-unfinished value="true"/>
    </output>

    <processing>
        <time-to-teleport value="-1"/>
    </processing>

    <report>
        <no-warnings value="True"/>
        <no-step-log value="True"/>
    </report>

    <random_number>
        <random value="true"/>
    </random_number>

</configuration>
-->

<tripinfos xmlns:xsi="http://www.w3.org/2001/XMLSchema-instance" xsi:noNamespaceSchemaLocation="http://sumo.dlr.de/xsd/tripinfo_file.xsd">
    <tripinfo id="f_0_2.0" depart="0.00" departLane="np2_nt2_0" departPos="63.37" departSpeed="0.00" departDelay="0.00" arrival="133.00" arrivalLane="nt15_np10_0" arrivalPos="75.00" arrivalSpeed="10.11" duration="133.00" routeLength="887.71" waitingTime="30.00" waitingCount="4" stopTime="0.00" timeLoss="55.78" rerouteNo="0" devices="tripinfo_f_0_2.0" vType="type1" speedFactor="0.96" vaporized=""/>
    <tripinfo id="f_0_3.0" depart="0.00" departLane="np3_nt3_0" departPos="27.41" departSpeed="0.00" departDelay="0.00" arrival="192.00" arrivalLane="nt14_np11_0" arrivalPos="75.00" arrivalSpeed="9.36" duration="192.00" routeLength="923.68" waitingTime="90.00" waitingCount="4" stopTime="0.00" timeLoss="117.88" rerouteNo="0" devices="tripinfo_f_0_3.0" vType="type1" speedFactor="1.04" vaporized=""/>
    <tripinfo id="f_0_2.1" depart="9.00" departLane="np2_nt2_0" departPos="14.90" departSpeed="0.00" departDelay="0.82" arrival="192.00" arrivalLane="nt15_np10_0" arrivalPos="75.00" arrivalSpeed="10.33" duration="183.00" routeLength="936.18" waitingTime="73.00" waitingCount="5" stopTime="0.00" timeLoss="102.29" rerouteNo="0" devices="tripinfo_f_0_2.1" vType="type1" speedFactor="0.97" vaporized=""/>
    <tripinfo id="f_0_3.1" depart="9.00" departLane="np3_nt3_0" departPos="56.19" departSpeed="0.00" departDelay="0.82" arrival="194.00" arrivalLane="nt14_np11_0" arrivalPos="75.00" arrivalSpeed="12.12" duration="185.00" routeLength="894.90" waitingTime="93.00" waitingCount="6" stopTime="0.00" timeLoss="119.38" rerouteNo="0" devices="tripinfo_f_0_3.1" vType="type1" speedFactor="1.14" vaporized=""/>
    <tripinfo id="f_0_0.0" depart="0.00" departLane="np13_nt13_0" departPos="13.94" departSpeed="0.00" departDelay="0.00" arrival="203.00" arrivalLane="nt4_np5_0" arrivalPos="75.00" arrivalSpeed="16.82" duration="203.00" routeLength="1333.95" waitingTime="67.00" waitingCount="6" stopTime="0.00" timeLoss="100.12" rerouteNo="0" devices="tripinfo_f_0_0.0" vType="type1" speedFactor="0.89" vaporized=""/>
    <tripinfo id="f_0_3.2" depart="17.00" departLane="np3_nt3_0" departPos="47.27" departSpeed="0.00" departDelay="0.64" arrival="212.00" arrivalLane="nt14_np11_0" arrivalPos="75.00" arrivalSpeed="9.52" duration="195.00" routeLength="903.82" waitingTime="94.00" waitingCount="7" stopTime="0.00" timeLoss="124.68" rerouteNo="0" devices="tripinfo_f_0_3.2" vType="type1" speedFactor="1.08" vaporized=""/>
    <tripinfo id="f_0_3.3" depart="25.00" departLane="np3_nt3_0" departPos="9.90" departSpeed="0.00" departDelay="0.45" arrival="215.00" arrivalLane="nt14_np11_0" arrivalPos="75.00" arrivalSpeed="9.67" duration="190.00" routeLength="941.19" waitingTime="74.00" waitingCount="7" stopTime="0.00" timeLoss="108.50" rerouteNo="0" devices="tripinfo_f_0_3.3" vType="type1" speedFactor="0.97" vaporized=""/>
    <tripinfo id="f_0_3.4" depart="33.00" departLane="np3_nt3_0" departPos="26.93" departSpeed="0.00" departDelay="0.27" arrival="256.00" arrivalLane="nt14_np11_0" arrivalPos="75.00" arrivalSpeed="7.30" duration="223.00" routeLength="924.16" waitingTime="83.00" waitingCount="6" stopTime="0.00" timeLoss="121.19" rerouteNo="0" devices="tripinfo_f_0_3.4" vType="type1" speedFactor="0.77" vaporized=""/>
    <tripinfo id="f_0_3.5" depart="41.00" departLane="np3_nt3_0" departPos="32.49" departSpeed="0.00" departDelay="0.09" arrival="257.00" arrivalLane="nt14_np11_0" arrivalPos="75.00" arrivalSpeed="9.82" duration="216.00" routeLength="918.60" waitingTime="83.00" waitingCount="6" stopTime="0.00" timeLoss="145.71" rerouteNo="0" devices="tripinfo_f_0_3.5" vType="type1" speedFactor="1.09" vaporized=""/>
    <tripinfo id="f_0_3.6" depart="50.00" departLane="np3_nt3_0" departPos="34.11" departSpeed="0.00" departDelay="0.91" arrival="261.00" arrivalLane="nt14_np11_0" arrivalPos="75.00" arrivalSpeed="12.15" duration="211.00" routeLength="916.98" waitingTime="108.00" waitingCount="7" stopTime="0.00" timeLoss="149.21" rerouteNo="0" devices="tripinfo_f_0_3.6" vType="type1" speedFactor="1.25" vaporized=""/>
    <tripinfo id="f_0_3.7" depart="58.00" departLane="np3_nt3_0" departPos="25.80" departSpeed="0.00" departDelay="0.73" arrival="282.00" arrivalLane="nt14_np11_0" arrivalPos="75.00" arrivalSpeed="9.32" duration="224.00" routeLength="925.29" waitingTime="105.00" waitingCount="8" stopTime="0.00" timeLoss="151.67" rerouteNo="0" devices="tripinfo_f_0_3.7" vType="type1" speedFactor="1.07" vaporized=""/>
    <tripinfo id="f_0_0.1" depart="14.00" departLane="np13_nt13_0" departPos="66.33" departSpeed="0.00" departDelay="0.36" arrival="288.00" arrivalLane="nt4_np5_0" arrivalPos="75.00" arrivalSpeed="20.89" duration="274.00" routeLength="1281.56" waitingTime="146.00" waitingCount="5" stopTime="0.00" timeLoss="193.48" rerouteNo="0" devices="tripinfo_f_0_0.1" vType="type1" speedFactor="1.11" vaporized=""/>
    <tripinfo id="f_0_0.2" depart="28.00" departLane="np13_nt13_0" departPos="48.12" departSpeed="0.00" departDelay="0.73" arrival="290.00" arrivalLane="nt4_np5_0" arrivalPos="75.00" arrivalSpeed="18.06" duration="262.00" routeLength="1299.77" waitingTime="129.00" waitingCount="7" stopTime="0.00" timeLoss="166.90" rerouteNo="0" devices="tripinfo_f_0_0.2" vType="type1" speedFactor="0.95" vaporized=""/>
    <tripinfo id="f_0_0.3" depart="41.00" departLane="np13_nt13_0" departPos="3.39" departSpeed="0.00" departDelay="0.09" arrival="292.00" arrivalLane="nt4_np5_0" arrivalPos="75.00" arrivalSpeed="18.63" duration="251.00" routeLength="1344.50" waitingTime="120.00" waitingCount="7" stopTime="0.00" timeLoss="155.72" rerouteNo="0" devices="tripinfo_f_0_0.3" vType="type1" speedFactor="0.98" vaporized=""/>
    <tripinfo id="f_0_3.8" depart="66.00" departLane="np3_nt3_0" departPos="17.29" departSpeed="0.00" departDelay="0.54" arrival="308.00" arrivalLane="nt14_np11_0" arrivalPos="75.00" arrivalSpeed="9.63" duration="242.00" routeLength="933.80" waitingTime="107.00" waitingCount="8" stopTime="0.00" timeLoss="157.21" rerouteNo="0" devices="tripinfo_f_0_3.8" vType="type1" speedFactor="0.93" vaporized=""/>
    <tripinfo id="f_0_2.2" depart="17.00" departLane="np2_nt2_0" departPos="36.00" departSpeed="0.00" departDelay="0.64" arrival="334.00" arrivalLane="nt15_np10_0" arrivalPos="75.00" arrivalSpeed="7.77" duration="317.00" routeLength="915.08" waitingTime="191.00" waitingCount="6" stopTime="0.00" timeLoss="225.82" rerouteNo="0" devices="tripinfo_f_0_2.2" vType="type1" speedFactor="0.84" vaporized=""/>
    <tripinfo id="f_0_3.9" depart="74.00" departLane="np3_nt3_0" departPos="22.97" departSpeed="0.00" departDelay="0.36" arrival="343.00" arrivalLane="nt14_np11_0" arrivalPos="75.00" arrivalSpeed="9.94" duration="269.00" routeLength="928.12" waitingTime="131.00" waitingCount="9" stopTime="0.00" timeLoss="184.02" rerouteNo="0" devices="tripinfo_f_0_3.9" vType="type1" speedFactor="0.92" vaporized=""/>
    <tripinfo id="f_0_0.4" depart="55.00" departLane="np13_nt13_0" departPos="63.10" departSpeed="0.00" departDelay="0.46" arrival="363.00" arrivalLane="nt4_np5_0" arrivalPos="75.00" arrivalSpeed="21.90" duration="308.00" routeLength="1284.79" waitingTime="175.00" waitingCount="9" stopTime="0.00" timeLoss="230.54" rerouteNo="0" devices="tripinfo_f_0_0.4" vType="type1" speedFactor="1.16" vaporized=""/>
    <tripinfo id="f_0_0.5" depart="69.00" departLane="np13_nt13_0" departPos="10.09" departSpeed="0.00" departDelay="0.82" arrival="365.00" arrivalLane="nt4_np5_0" arrivalPos="75.00" arrivalSpeed="18.20" duration="296.00" routeLength="1337.80" waitingTime="161.00" waitingCount="6" stopTime="0.00" timeLoss="200.96" rerouteNo="0" devices="tripinfo_f_0_0.5" vType="type1" speedFactor="0.98" vaporized=""/>
    <tripinfo id="f_0_0.6" depart="82.00" departLane="np13_nt13_0" departPos="11.25" departSpeed="0.00" departDelay="0.18" arrival="374.00" arrivalLane="nt4_np5_0" arrivalPos="75.00" arrivalSpeed="19.75" duration="292.00" routeLength="1336.64" waitingTime="161.00" waitingCount="7" stopTime="0.00" timeLoss="202.56" rerouteNo="0" devices="tripinfo_f_0_0.6" vType="type1" speedFactor="1.04" vaporized=""/>
    <tripinfo id="f_0_0.7" depart="96.00" departLane="np13_nt13_0" departPos="48.01" departSpeed="0.00" departDelay="0.55" arrival="388.00" arrivalLane="nt4_np5_0" arrivalPos="75.00" arrivalSpeed="18.21" duration="292.00" routeLength="1299.88" waitingTime="161.00" waitingCount="7" stopTime="0.00" timeLoss="203.67" rerouteNo="0" devices="tripinfo_f_0_0.7" vType="type1" speedFactor="1.03" vaporized=""/>
    <tripinfo id="f_0_2.3" depart="25.00" departLane="np2_nt2_0" departPos="26.54" departSpeed="0.00" departDelay="0.45" arrival="389.00" arrivalLane="nt15_np10_0" arrivalPos="75.00" arrivalSpeed="7.51" duration="364.00" routeLength="924.54" waitingTime="234.00" waitingCount="8" stopTime="0.00" timeLoss="278.18" rerouteNo="0" devices="tripinfo_f_0_2.3" vType="type1" speedFactor="0.91" vaporized=""/>
    <tripinfo id="f_0_0.8" depart="110.00" departLane="np13_nt13_0" departPos="17.53" departSpeed="0.00" departDelay="0.91" arrival="390.00" arrivalLane="nt4_np5_0" arrivalPos="75.00" arrivalSpeed="22.07" duration="280.00" routeLength="1330.36" waitingTime="153.00" waitingCount="7" stopTime="0.00" timeLoss="195.91" rerouteNo="0" devices="tripinfo_f_0_0.8" vType="type1" speedFactor="1.11" vaporized=""/>
    <tripinfo id="f_0_2.4" depart="33.00" departLane="np2_nt2_0" departPos="54.53" departSpeed="0.00" departDelay="0.27" arrival="391.00" arrivalLane="nt15_np10_0" arrivalPos="75.00" arrivalSpeed="8.54" duration="358.00" routeLength="896.55" waitingTime="228.00" waitingCount="10" stopTime="0.00" timeLoss="280.24" rerouteNo="0" devices="tripinfo_f_0_2.4" vType="type1" speedFactor="0.96" vaporized=""/>
    <tripinfo id="f_0_3.10" depart="82.00" departLane="np3_nt3_0" departPos="20.08" departSpeed="0.00" departDelay="0.18" arrival="402.00" arrivalLane="nt14_np11_0" arrivalPos="75.00" arrivalSpeed="10.11" duration="320.00" routeLength="931.01" waitingTime="199.00" waitingCount="9" stopTime="0.00" timeLoss="244.82" rerouteNo="0" devices="tripinfo_f_0_3.10" vType="type1" speedFactor="1.04" vaporized=""/>
    <tripinfo id="f_0_3.11" depart="90.00" departLane="np3_nt3_0" departPos="3.54" departSpeed="0.00" departDelay="0.00" arrival="404.00" arrivalLane="nt14_np11_0" arrivalPos="75.00" arrivalSpeed="10.28" duration="314.00" routeLength="947.55" waitingTime="187.00" waitingCount="9" stopTime="0.00" timeLoss="234.73" rerouteNo="0" devices="tripinfo_f_0_3.11" vType="type1" speedFactor="1.00" vaporized=""/>
    <tripinfo id="f_0_1.0" depart="0.00" departLane="np16_nt1_0" departPos="45.73" departSpeed="0.00" departDelay="0.00" arrival="408.00" arrivalLane="nt16_np8_0" arrivalPos="75.00" arrivalSpeed="20.12" duration="408.00" routeLength="1302.15" waitingTime="263.00" waitingCount="11" stopTime="0.00" timeLoss="320.29" rerouteNo="0" devices="tripinfo_f_0_1.0" vType="type1" speedFactor="1.03" vaporized=""/>
    <tripinfo id="f_0_0.9" depart="123.00" departLane="np13_nt13_0" departPos="40.40" departSpeed="0.00" departDelay="0.28" arrival="408.00" arrivalLane="nt4_np5_0" arrivalPos="75.00" arrivalSpeed="21.03" duration="285.00" routeLength="1307.49" waitingTime="160.00" waitingCount="7" stopTime="0.00" timeLoss="202.76" rerouteNo="0" devices="tripinfo_f_0_0.9" vType="type1" speedFactor="1.11" vaporized=""/>
    <tripinfo id="f_0_1.1" depart="14.00" departLane="np16_nt1_0" departPos="13.61" departSpeed="0.00" departDelay="0.36" arrival="410.00" arrivalLane="nt16_np8_0" arrivalPos="75.00" arrivalSpeed="25.31" duration="396.00" routeLength="1334.27" waitingTime="247.00" waitingCount="10" stopTime="0.00" timeLoss="323.72" rerouteNo="0" devices="tripinfo_f_0_1.1" vType="type1" speedFactor="1.29" vaporized=""/>
    <tripinfo id="f_0_0.10" depart="137.00" departLane="np13_nt13_0" departPos="63.70" departSpeed="0.00" departDelay="0.64" arrival="410.00" arrivalLane="nt4_np5_0" arrivalPos="75.00" arrivalSpeed="21.13" duration="273.00" routeLength="1284.19" waitingTime="147.00" waitingCount="8" stopTime="0.00" timeLoss="192.79" rerouteNo="0" devices="tripinfo_f_0_0.10" vType="type1" speedFactor="1.13" vaporized=""/>
    <tripinfo id="f_0_3.19" depart="175.00" departLane="np3_nt3_0" departPos="64.59" departSpeed="0.00" departDelay="19.54" arrival="412.00" arrivalLane="nt14_np11_0" arrivalPos="75.00" arrivalSpeed="9.90" duration="237.00" routeLength="886.50" waitingTime="133.00" waitingCount="6" stopTime="0.00" timeLoss="168.68" rerouteNo="0" devices="tripinfo_f_0_3.19" vType="type1" speedFactor="1.08" vaporized=""/>
    <tripinfo id="f_0_0.11" depart="150.00" departLane="np13_nt13_0" departPos="57.48" departSpeed="0.00" departDelay="0.00" arrival="423.00" arrivalLane="nt4_np5_0" arrivalPos="75.00" arrivalSpeed="20.86" duration="273.00" routeLength="1290.41" waitingTime="136.00" waitingCount="9" stopTime="0.00" timeLoss="187.93" rerouteNo="0" devices="tripinfo_f_0_0.11" vType="type1" speedFactor="1.06" vaporized=""/>
    <tripinfo id="f_0_3.12" depart="99.00" departLane="np3_nt3_0" departPos="8.70" departSpeed="0.00" departDelay="0.82" arrival="427.00" arrivalLane="nt14_np11_0" arrivalPos="75.00" arrivalSpeed="8.84" duration="328.00" routeLength="942.39" waitingTime="188.00" waitingCount="10" stopTime="0.00" timeLoss="248.51" rerouteNo="0" devices="tripinfo_f_0_3.12" vType="type1" speedFactor="1.00" vaporized=""/>
    <tripinfo id="f_0_3.13" depart="107.00" departLane="np3_nt3_0" departPos="6.85" departSpeed="0.00" departDelay="0.63" arrival="432.00" arrivalLane="nt14_np11_0" arrivalPos="75.00" arrivalSpeed="9.07" duration="325.00" routeLength="944.24" waitingTime="168.00" waitingCount="8" stopTime="0.00" timeLoss="228.15" rerouteNo="0" devices="tripinfo_f_0_3.13" vType="type1" speedFactor="0.83" vaporized=""/>
    <tripinfo id="f_0_0.12" depart="164.00" departLane="np13_nt13_0" departPos="26.09" departSpeed="0.00" departDelay="0.37" arrival="473.00" arrivalLane="nt4_np5_0" arrivalPos="75.00" arrivalSpeed="17.80" duration="309.00" routeLength="1321.80" waitingTime="170.00" waitingCount="7" stopTime="0.00" timeLoss="209.48" rerouteNo="0" devices="tripinfo_f_0_0.12" vType="type1" speedFactor="0.92" vaporized=""/>
    <tripinfo id="f_0_0.13" depart="178.00" departLane="np13_nt13_0" departPos="57.05" departSpeed="0.00" departDelay="0.73" arrival="475.00" arrivalLane="nt4_np5_0" arrivalPos="75.00" arrivalSpeed="21.51" duration="297.00" routeLength="1290.84" waitingTime="160.00" waitingCount="7" stopTime="0.00" timeLoss="217.65" rerouteNo="0" devices="tripinfo_f_0_0.13" vType="type1" speedFactor="1.14" vaporized=""/>
    <tripinfo id="f_0_0.14" depart="191.00" departLane="np13_nt13_0" departPos="21.54" departSpeed="0.00" departDelay="0.10" arrival="493.00" arrivalLane="nt4_np5_0" arrivalPos="75.00" arrivalSpeed="16.54" duration="302.00" routeLength="1326.35" waitingTime="150.00" waitingCount="9" stopTime="0.00" timeLoss="201.40" rerouteNo="0" devices="tripinfo_f_0_0.14" vType="type1" speedFactor="0.92" vaporized=""/>
    <tripinfo id="f_0_0.15" depart="205.00" departLane="np13_nt13_0" departPos="57.13" departSpeed="0.00" departDelay="0.46" arrival="495.00" arrivalLane="nt4_np5_0" arrivalPos="75.00" arrivalSpeed="18.55" duration="290.00" routeLength="1290.76" waitingTime="133.00" waitingCount="11" stopTime="0.00" timeLoss="202.99" rerouteNo="0" devices="tripinfo_f_0_0.15" vType="type1" speedFactor="1.04" vaporized=""/>
    <tripinfo id="f_0_0.16" depart="219.00" departLane="np13_nt13_0" departPos="54.63" departSpeed="0.00" departDelay="0.82" arrival="496.00" arrivalLane="nt4_np5_0" arrivalPos="75.00" arrivalSpeed="19.63" duration="277.00" routeLength="1293.26" waitingTime="110.00" waitingCount="10" stopTime="0.00" timeLoss="193.15" rerouteNo="0" devices="tripinfo_f_0_0.16" vType="type1" speedFactor="1.08" vaporized=""/>
    <tripinfo id="f_0_0.17" depart="232.00" departLane="np13_nt13_0" departPos="24.01" departSpeed="0.00" departDelay="0.19" arrival="497.00" arrivalLane="nt4_np5_0" arrivalPos="75.00" arrivalSpeed="24.41" duration="265.00" routeLength="1323.88" waitingTime="110.00" waitingCount="9" stopTime="0.00" timeLoss="193.18" rerouteNo="0" devices="tripinfo_f_0_0.17" vType="type1" speedFactor="1.28" vaporized=""/>
    <tripinfo id="f_0_0.18" depart="246.00" departLane="np13_nt13_0" departPos="27.67" departSpeed="0.00" departDelay="0.55" arrival="500.00" arrivalLane="nt4_np5_0" arrivalPos="75.00" arrivalSpeed="18.12" duration="254.00" routeLength="1320.22" waitingTime="88.00" waitingCount="9" stopTime="0.00" timeLoss="153.46" rerouteNo="0" devices="tripinfo_f_0_0.18" vType="type1" speedFactor="0.91" vaporized=""/>
    <tripinfo id="f_0_3.14" depart="115.00" departLane="np3_nt3_0" departPos="8.91" departSpeed="0.00" departDelay="0.45" arrival="504.00" arrivalLane="nt14_np11_0" arrivalPos="75.00" arrivalSpeed="8.75" duration="389.00" routeLength="942.18" waitingTime="230.00" waitingCount="11" stopTime="0.00" timeLoss="301.38" rerouteNo="0" devices="tripinfo_f_0_3.14" vType="type1" speedFactor="0.91" vaporized=""/>
    <tripinfo id="f_0_0.19" depart="260.00" departLane="np13_nt13_0" departPos="40.21" departSpeed="0.00" departDelay="0.92" arrival="513.00" arrivalLane="nt4_np5_0" arrivalPos="75.00" arrivalSpeed="18.87" duration="253.00" routeLength="1307.68" waitingTime="79.00" waitingCount="10" stopTime="0.00" timeLoss="165.85" rerouteNo="0" devices="tripinfo_f_0_0.19" vType="type1" speedFactor="1.05" vaporized=""/>
    <tripinfo id="f_0_0.20" depart="273.00" departLane="np13_nt13_0" departPos="0.98" departSpeed="0.00" departDelay="0.28" arrival="515.00" arrivalLane="nt4_np5_0" arrivalPos="75.00" arrivalSpeed="16.99" duration="242.00" routeLength="1346.91" waitingTime="56.00" waitingCount="12" stopTime="0.00" timeLoss="146.22" rerouteNo="0" devices="tripinfo_f_0_0.20" vType="type1" speedFactor="0.97" vaporized=""/>
    <tripinfo id="f_0_0.21" depart="287.00" departLane="np13_nt13_0" departPos="46.26" departSpeed="0.00" departDelay="0.64" arrival="522.00" arrivalLane="nt4_np5_0" arrivalPos="75.00" arrivalSpeed="20.91" duration="235.00" routeLength="1301.63" waitingTime="86.00" waitingCount="9" stopTime="0.00" timeLoss="153.27" rerouteNo="0" devices="tripinfo_f_0_0.21" vType="type1" speedFactor="1.11" vaporized=""/>
    <tripinfo id="f_0_3.15" depart="123.00" departLane="np3_nt3_0" departPos="3.10" departSpeed="0.00" departDelay="0.27" arrival="526.00" arrivalLane="nt14_np11_0" arrivalPos="75.00" arrivalSpeed="7.11" duration="403.00" routeLength="947.99" waitingTime="215.00" waitingCount="10" stopTime="0.00" timeLoss="290.92" rerouteNo="0" devices="tripinfo_f_0_3.15" vType="type1" speedFactor="0.71" vaporized=""/>
    <tripinfo id="f_0_3.16" depart="131.00" departLane="np3_nt3_0" departPos="9.84" departSpeed="0.00" departDelay="0.09" arrival="528.00" arrivalLane="nt14_np11_0" arrivalPos="75.00" arrivalSpeed="11.43" duration="397.00" routeLength="941.25" waitingTime="219.00" waitingCount="12" stopTime="0.00" timeLoss="324.38" rerouteNo="0" devices="tripinfo_f_0_3.16" vType="type1" speedFactor="1.09" vaporized=""/>
    <tripinfo id="f_0_3.17" depart="140.00" departLane="np3_nt3_0" departPos="0.00" departSpeed="0.00" departDelay="0.91" arrival="530.00" arrivalLane="nt14_np11_0" arrivalPos="75.00" arrivalSpeed="9.34" duration="390.00" routeLength="951.09" waitingTime="204.00" waitingCount="12" stopTime="0.00" timeLoss="306.20" rerouteNo="0" devices="tripinfo_f_0_3.17" vType="type1" speedFactor="0.95" vaporized=""/>
    <tripinfo id="f_0_3.18" depart="148.00" departLane="np3_nt3_0" departPos="0.00" departSpeed="0.00" departDelay="0.72" arrival="532.00" arrivalLane="nt14_np11_0" arrivalPos="75.00" arrivalSpeed="7.46" duration="384.00" routeLength="951.09" waitingTime="192.00" waitingCount="12" stopTime="0.00" timeLoss="291.95" rerouteNo="0" devices="tripinfo_f_0_3.18" vType="type1" speedFactor="0.86" vaporized=""/>
    <tripinfo id="f_0_2.5" depart="41.00" departLane="np2_nt2_0" departPos="35.94" departSpeed="0.00" departDelay="0.09" arrival="535.00" arrivalLane="nt15_np10_0" arrivalPos="75.00" arrivalSpeed="7.91" duration="494.00" routeLength="915.14" waitingTime="350.00" waitingCount="8" stopTime="0.00" timeLoss="396.66" rerouteNo="0" devices="tripinfo_f_0_2.5" vType="type1" speedFactor="0.79" vaporized=""/>
    <tripinfo id="f_0_3.20" depart="183.00" departLane="np3_nt3_0" departPos="0.00" departSpeed="0.00" departDelay="19.36" arrival="542.00" arrivalLane="nt14_np11_0" arrivalPos="75.00" arrivalSpeed="9.97" duration="359.00" routeLength="951.09" waitingTime="164.00" waitingCount="11" stopTime="0.00" timeLoss="282.56" rerouteNo="0" devices="tripinfo_f_0_3.20" vType="type1" speedFactor="1.05" vaporized=""/>
    <tripinfo id="f_0_3.21" depart="187.00" departLane="np3_nt3_0" departPos="0.00" departSpeed="0.00" departDelay="15.18" arrival="544.00" arrivalLane="nt14_np11_0" arrivalPos="75.00" arrivalSpeed="9.77" duration="357.00" routeLength="951.09" waitingTime="168.00" waitingCount="9" stopTime="0.00" timeLoss="280.43" rerouteNo="0" devices="tripinfo_f_0_3.21" vType="type1" speedFactor="1.06" vaporized=""/>
    <tripinfo id="f_0_0.22" depart="300.00" departLane="np13_nt13_0" departPos="36.95" departSpeed="0.00" departDelay="0.01" arrival="583.00" arrivalLane="nt4_np5_0" arrivalPos="75.00" arrivalSpeed="18.99" duration="283.00" routeLength="1310.94" waitingTime="132.00" waitingCount="9" stopTime="0.00" timeLoss="192.66" rerouteNo="0" devices="tripinfo_f_0_0.22" vType="type1" speedFactor="1.01" vaporized=""/>
    <tripinfo id="f_1_0.0" depart="300.00" departLane="np13_nt13_0" departPos="25.25" departSpeed="0.00" departDelay="0.00" arrival="633.00" arrivalLane="nt4_np5_0" arrivalPos="75.00" arrivalSpeed="20.47" duration="333.00" routeLength="1322.64" waitingTime="174.00" waitingCount="10" stopTime="0.00" timeLoss="244.23" rerouteNo="0" devices="tripinfo_f_1_0.0" vType="type1" speedFactor="1.03" vaporized=""/>
    <tripinfo id="f_1_0.1" depart="308.00" departLane="np13_nt13_0" departPos="36.49" departSpeed="0.00" departDelay="0.19" arrival="635.00" arrivalLane="nt4_np5_0" arrivalPos="75.00" arrivalSpeed="19.66" duration="327.00" routeLength="1311.40" waitingTime="159.00" waitingCount="10" stopTime="0.00" timeLoss="239.53" rerouteNo="0" devices="tripinfo_f_1_0.1" vType="type1" speedFactor="1.05" vaporized=""/>
    <tripinfo id="f_0_3.22" depart="190.00" departLane="np3_nt3_0" departPos="0.00" departSpeed="0.00" departDelay="10.00" arrival="667.00" arrivalLane="nt14_np11_0" arrivalPos="75.00" arrivalSpeed="10.06" duration="477.00" routeLength="951.09" waitingTime="296.00" waitingCount="11" stopTime="0.00" timeLoss="401.58" rerouteNo="0" devices="tripinfo_f_0_3.22" vType="type1" speedFactor="1.06" vaporized=""/>
    <tripinfo id="f_1_0.2" depart="316.00" departLane="np13_nt13_0" departPos="3.34" departSpeed="0.00" departDelay="0.38" arrival="668.00" arrivalLane="nt4_np5_0" arrivalPos="75.00" arrivalSpeed="21.62" duration="352.00" routeLength="1344.55" waitingTime="202.00" waitingCount="7" stopTime="0.00" timeLoss="269.40" rerouteNo="0" devices="tripinfo_f_1_0.2" vType="type1" speedFactor="1.13" vaporized=""/>
    <tripinfo id="f_1_0.3" depart="324.00" departLane="np13_nt13_0" departPos="32.41" departSpeed="0.00" departDelay="0.57" arrival="689.00" arrivalLane="nt4_np5_0" arrivalPos="75.00" arrivalSpeed="14.45" duration="365.00" routeLength="1315.48" waitingTime="189.00" waitingCount="9" stopTime="0.00" timeLoss="254.69" rerouteNo="0" devices="tripinfo_f_1_0.3" vType="type1" speedFactor="0.83" vaporized=""/>
    <tripinfo id="f_0_3.23" depart="192.00" departLane="np3_nt3_0" departPos="0.00" departSpeed="0.00" departDelay="3.81" arrival="698.00" arrivalLane="nt14_np11_0" arrivalPos="75.00" arrivalSpeed="10.19" duration="506.00" routeLength="951.09" waitingTime="315.00" waitingCount="12" stopTime="0.00" timeLoss="421.15" rerouteNo="0" devices="tripinfo_f_0_3.23" vType="type1" speedFactor="0.94" vaporized=""/>
    <tripinfo id="f_0_3.24" depart="197.00" departLane="np3_nt3_0" departPos="5.65" departSpeed="0.00" departDelay="0.63" arrival="700.00" arrivalLane="nt14_np11_0" arrivalPos="75.00" arrivalSpeed="12.14" duration="503.00" routeLength="945.44" waitingTime="310.00" waitingCount="14" stopTime="0.00" timeLoss="435.44" rerouteNo="0" devices="tripinfo_f_0_3.24" vType="type1" speedFactor="1.18" vaporized=""/>
    <tripinfo id="f_0_3.25" depart="205.00" departLane="np3_nt3_0" departPos="22.69" departSpeed="0.00" departDelay="0.45" arrival="712.00" arrivalLane="nt14_np11_0" arrivalPos="75.00" arrivalSpeed="8.64" duration="507.00" routeLength="928.40" waitingTime="325.00" waitingCount="12" stopTime="0.00" timeLoss="429.31" rerouteNo="0" devices="tripinfo_f_0_3.25" vType="type1" speedFactor="1.00" vaporized=""/>
    <tripinfo id="f_0_3.26" depart="213.00" departLane="np3_nt3_0" departPos="58.68" departSpeed="0.00" departDelay="0.27" arrival="714.00" arrivalLane="nt14_np11_0" arrivalPos="75.00" arrivalSpeed="9.33" duration="501.00" routeLength="892.41" waitingTime="313.00" waitingCount="13" stopTime="0.00" timeLoss="424.67" rerouteNo="0" devices="tripinfo_f_0_3.26" vType="type1" speedFactor="0.97" vaporized=""/>
    <tripinfo id="f_0_3.27" depart="221.00" departLane="np3_nt3_0" departPos="20.07" departSpeed="0.00" departDelay="0.09" arrival="736.00" arrivalLane="nt14_np11_0" arrivalPos="75.00" arrivalSpeed="10.22" duration="515.00" routeLength="931.02" waitingTime="324.00" waitingCount="14" stopTime="0.00" timeLoss="443.33" rerouteNo="0" devices="tripinfo_f_0_3.27" vType="type1" speedFactor="1.09" vaporized=""/>
    <tripinfo id="f_0_3.28" depart="230.00" departLane="np3_nt3_0" departPos="49.92" departSpeed="0.00" departDelay="0.90" arrival="738.00" arrivalLane="nt14_np11_0" arrivalPos="75.00" arrivalSpeed="10.99" duration="508.00" routeLength="901.17" waitingTime="321.00" waitingCount="17" stopTime="0.00" timeLoss="441.21" rerouteNo="0" devices="tripinfo_f_0_3.28" vType="type1" speedFactor="1.12" vaporized=""/>
    <tripinfo id="f_1_0.4" depart="332.00" departLane="np13_nt13_0" departPos="57.01" departSpeed="0.00" departDelay="0.76" arrival="828.00" arrivalLane="nt4_np5_0" arrivalPos="75.00" arrivalSpeed="20.30" duration="496.00" routeLength="1290.88" waitingTime="334.00" waitingCount="11" stopTime="0.00" timeLoss="413.88" rerouteNo="0" devices="tripinfo_f_1_0.4" vType="type1" speedFactor="1.10" vaporized=""/>
    <tripinfo id="f_0_3.29" depart="238.00" departLane="np3_nt3_0" departPos="56.18" departSpeed="0.00" departDelay="0.72" arrival="852.00" arrivalLane="nt14_np11_0" arrivalPos="75.00" arrivalSpeed="9.47" duration="614.00" routeLength="894.91" waitingTime="419.00" waitingCount="17" stopTime="0.00" timeLoss="539.81" rerouteNo="0" devices="tripinfo_f_0_3.29" vType="type1" speedFactor="1.01" vaporized=""/>
    <tripinfo id="f_1_0.5" depart="340.00" departLane="np13_nt13_0" departPos="31.80" departSpeed="0.00" departDelay="0.95" arrival="857.00" arrivalLane="nt4_np5_0" arrivalPos="75.00" arrivalSpeed="19.47" duration="517.00" routeLength="1316.09" waitingTime="361.00" waitingCount="9" stopTime="0.00" timeLoss="426.43" rerouteNo="0" devices="tripinfo_f_1_0.5" vType="type1" speedFactor="1.01" vaporized=""/>
    <tripinfo id="f_1_0.6" depart="347.00" departLane="np13_nt13_0" departPos="34.40" departSpeed="0.00" departDelay="0.15" arrival="859.00" arrivalLane="nt4_np5_0" arrivalPos="75.00" arrivalSpeed="21.17" duration="512.00" routeLength="1313.49" waitingTime="357.00" waitingCount="9" stopTime="0.00" timeLoss="428.20" rerouteNo="0" devices="tripinfo_f_1_0.6" vType="type1" speedFactor="1.10" vaporized=""/>
    <tripinfo id="f_1_0.7" depart="355.00" departLane="np13_nt13_0" departPos="44.04" departSpeed="0.00" departDelay="0.34" arrival="923.00" arrivalLane="nt4_np5_0" arrivalPos="75.00" arrivalSpeed="20.15" duration="568.00" routeLength="1303.85" waitingTime="408.00" waitingCount="12" stopTime="0.00" timeLoss="479.72" rerouteNo="0" devices="tripinfo_f_1_0.7" vType="type1" speedFactor="1.03" vaporized=""/>
    <tripinfo id="f_1_0.8" depart="363.00" departLane="np13_nt13_0" departPos="33.55" departSpeed="0.00" departDelay="0.53" arrival="925.00" arrivalLane="nt4_np5_0" arrivalPos="75.00" arrivalSpeed="23.39" duration="562.00" routeLength="1314.34" waitingTime="388.00" waitingCount="12" stopTime="0.00" timeLoss="484.37" rerouteNo="0" devices="tripinfo_f_1_0.8" vType="type1" speedFactor="1.18" vaporized=""/>
    <tripinfo id="f_1_0.9" depart="371.00" departLane="np13_nt13_0" departPos="2.41" departSpeed="0.00" departDelay="0.72" arrival="927.00" arrivalLane="nt4_np5_0" arrivalPos="75.00" arrivalSpeed="17.12" duration="556.00" routeLength="1345.48" waitingTime="358.00" waitingCount="14" stopTime="0.00" timeLoss="453.67" rerouteNo="0" devices="tripinfo_f_1_0.9" vType="type1" speedFactor="0.91" vaporized=""/>