<?xml version="1.0" encoding="UTF-8"?>

<!-- generated on 2023-08-30 12:39:08 by Eclipse SUMO libsumo Version 1.18.0
<configuration xmlns:xsi="http://www.w3.org/2001/XMLSchema-instance" xsi:noNamespaceSchemaLocation="http://sumo.dlr.de/xsd/libsumoConfiguration.xsd">

    <input>
        <net-file value="/home/stefan/RESCO/./environments/arterial4x4/arterial4x4.net.xml"/>
        <route-files value="/home/stefan/RESCO/./environments/arterial4x4/arterial4x4_56.rou.xml"/>
    </input>

    <output>
        <tripinfo-output value="/home/stefan/results/ITRPO-tr0-arterial4x4-0-drq_norm-wait_norm/tripinfo_56.xml"/>
        <tripinfo-output.write-unfinished value="true"/>
    </output>

    <processing>
        <time-to-teleport value="-1"/>
    </processing>

    <report>
        <no-warnings value="True"/>
        <no-step-log value="True"/>
    </report>

    <random_number>
        <random value="true"/>
    </random_number>

</configuration>
-->

<tripinfos xmlns:xsi="http://www.w3.org/2001/XMLSchema-instance" xsi:noNamespaceSchemaLocation="http://sumo.dlr.de/xsd/tripinfo_file.xsd">
    <tripinfo id="f_0_2.0" depart="0.00" departLane="np2_nt2_0" departPos="50.11" departSpeed="0.00" departDelay="0.00" arrival="127.00" arrivalLane="nt15_np10_0" arrivalPos="75.00" arrivalSpeed="10.94" duration="127.00" routeLength="900.97" waitingTime="34.00" waitingCount="3" stopTime="0.00" timeLoss="52.30" rerouteNo="0" devices="tripinfo_f_0_2.0" vType="type1" speedFactor="1.00" vaporized=""/>
    <tripinfo id="f_0_2.1" depart="9.00" departLane="np2_nt2_0" departPos="30.80" departSpeed="0.00" departDelay="0.82" arrival="129.00" arrivalLane="nt15_np10_0" arrivalPos="75.00" arrivalSpeed="10.19" duration="120.00" routeLength="920.28" waitingTime="26.00" waitingCount="3" stopTime="0.00" timeLoss="50.76" rerouteNo="0" devices="tripinfo_f_0_2.1" vType="type1" speedFactor="1.11" vaporized=""/>
    <tripinfo id="f_0_2.2" depart="17.00" departLane="np2_nt2_0" departPos="50.08" departSpeed="0.00" departDelay="0.64" arrival="132.00" arrivalLane="nt15_np10_0" arrivalPos="75.00" arrivalSpeed="8.99" duration="115.00" routeLength="901.00" waitingTime="19.00" waitingCount="2" stopTime="0.00" timeLoss="38.65" rerouteNo="0" devices="tripinfo_f_0_2.2" vType="type1" speedFactor="0.99" vaporized=""/>
    <tripinfo id="f_0_3.0" depart="0.00" departLane="np3_nt3_0" departPos="0.03" departSpeed="0.00" departDelay="0.00" arrival="142.00" arrivalLane="nt14_np11_0" arrivalPos="75.00" arrivalSpeed="10.90" duration="142.00" routeLength="951.06" waitingTime="46.00" waitingCount="2" stopTime="0.00" timeLoss="63.79" rerouteNo="0" devices="tripinfo_f_0_3.0" vType="type1" speedFactor="1.03" vaporized=""/>
    <tripinfo id="f_0_3.1" depart="9.00" departLane="np3_nt3_0" departPos="44.65" departSpeed="0.00" departDelay="0.82" arrival="174.00" arrivalLane="nt14_np11_0" arrivalPos="75.00" arrivalSpeed="8.83" duration="165.00" routeLength="906.44" waitingTime="53.00" waitingCount="3" stopTime="0.00" timeLoss="76.29" rerouteNo="0" devices="tripinfo_f_0_3.1" vType="type1" speedFactor="0.86" vaporized=""/>
    <tripinfo id="f_0_2.3" depart="25.00" departLane="np2_nt2_0" departPos="40.24" departSpeed="0.00" departDelay="0.45" arrival="187.00" arrivalLane="nt15_np10_0" arrivalPos="75.00" arrivalSpeed="10.01" duration="162.00" routeLength="910.84" waitingTime="60.00" waitingCount="6" stopTime="0.00" timeLoss="91.10" rerouteNo="0" devices="tripinfo_f_0_2.3" vType="type1" speedFactor="1.08" vaporized=""/>
    <tripinfo id="f_0_1.0" depart="0.00" departLane="np16_nt1_0" departPos="35.63" departSpeed="0.00" departDelay="0.00" arrival="197.00" arrivalLane="nt16_np8_0" arrivalPos="75.00" arrivalSpeed="17.87" duration="197.00" routeLength="1312.25" waitingTime="70.00" waitingCount="5" stopTime="0.00" timeLoss="103.03" rerouteNo="0" devices="tripinfo_f_0_1.0" vType="type1" speedFactor="0.98" vaporized=""/>
    <tripinfo id="f_0_3.2" depart="17.00" departLane="np3_nt3_0" departPos="7.64" departSpeed="0.00" departDelay="0.64" arrival="203.00" arrivalLane="nt14_np11_0" arrivalPos="75.00" arrivalSpeed="8.43" duration="186.00" routeLength="943.45" waitingTime="64.00" waitingCount="4" stopTime="0.00" timeLoss="101.37" rerouteNo="0" devices="tripinfo_f_0_3.2" vType="type1" speedFactor="0.94" vaporized=""/>
    <tripinfo id="f_0_3.3" depart="25.00" departLane="np3_nt3_0" departPos="26.46" departSpeed="0.00" departDelay="0.45" arrival="204.00" arrivalLane="nt14_np11_0" arrivalPos="75.00" arrivalSpeed="11.06" duration="179.00" routeLength="924.63" waitingTime="61.00" waitingCount="5" stopTime="0.00" timeLoss="107.03" rerouteNo="0" devices="tripinfo_f_0_3.3" vType="type1" speedFactor="1.07" vaporized=""/>
    <tripinfo id="f_0_2.4" depart="33.00" departLane="np2_nt2_0" departPos="8.03" departSpeed="0.00" departDelay="0.27" arrival="221.00" arrivalLane="nt15_np10_0" arrivalPos="75.00" arrivalSpeed="11.42" duration="188.00" routeLength="943.05" waitingTime="84.00" waitingCount="5" stopTime="0.00" timeLoss="120.84" rerouteNo="0" devices="tripinfo_f_0_2.4" vType="type1" speedFactor="1.18" vaporized=""/>
    <tripinfo id="f_0_2.5" depart="41.00" departLane="np2_nt2_0" departPos="21.01" departSpeed="0.00" departDelay="0.09" arrival="224.00" arrivalLane="nt15_np10_0" arrivalPos="75.00" arrivalSpeed="10.24" duration="183.00" routeLength="930.07" waitingTime="81.00" waitingCount="4" stopTime="0.00" timeLoss="110.65" rerouteNo="0" devices="tripinfo_f_0_2.5" vType="type1" speedFactor="1.08" vaporized=""/>
    <tripinfo id="f_0_3.4" depart="33.00" departLane="np3_nt3_0" departPos="16.47" departSpeed="0.00" departDelay="0.27" arrival="228.00" arrivalLane="nt14_np11_0" arrivalPos="75.00" arrivalSpeed="8.48" duration="195.00" routeLength="934.62" waitingTime="78.00" waitingCount="6" stopTime="0.00" timeLoss="111.34" rerouteNo="0" devices="tripinfo_f_0_3.4" vType="type1" speedFactor="0.94" vaporized=""/>
    <tripinfo id="f_0_3.5" depart="41.00" departLane="np3_nt3_0" departPos="6.96" departSpeed="0.00" departDelay="0.09" arrival="230.00" arrivalLane="nt14_np11_0" arrivalPos="75.00" arrivalSpeed="10.35" duration="189.00" routeLength="944.13" waitingTime="74.00" waitingCount="5" stopTime="0.00" timeLoss="117.86" rerouteNo="0" devices="tripinfo_f_0_3.5" vType="type1" speedFactor="1.12" vaporized=""/>
    <tripinfo id="f_0_3.6" depart="50.00" departLane="np3_nt3_0" departPos="16.31" departSpeed="0.00" departDelay="0.91" arrival="239.00" arrivalLane="nt14_np11_0" arrivalPos="75.00" arrivalSpeed="7.62" duration="189.00" routeLength="934.78" waitingTime="58.00" waitingCount="9" stopTime="0.00" timeLoss="100.56" rerouteNo="0" devices="tripinfo_f_0_3.6" vType="type1" speedFactor="0.89" vaporized=""/>
    <tripinfo id="f_0_3.7" depart="58.00" departLane="np3_nt3_0" departPos="52.72" departSpeed="0.00" departDelay="0.73" arrival="246.00" arrivalLane="nt14_np11_0" arrivalPos="75.00" arrivalSpeed="10.08" duration="188.00" routeLength="898.37" waitingTime="79.00" waitingCount="7" stopTime="0.00" timeLoss="121.32" rerouteNo="0" devices="tripinfo_f_0_3.7" vType="type1" speedFactor="1.13" vaporized=""/>
    <tripinfo id="f_0_0.0" depart="0.00" departLane="np13_nt13_0" departPos="1.07" departSpeed="0.00" departDelay="0.00" arrival="248.00" arrivalLane="nt4_np5_0" arrivalPos="75.00" arrivalSpeed="19.30" duration="248.00" routeLength="1346.82" waitingTime="116.00" waitingCount="7" stopTime="0.00" timeLoss="151.76" rerouteNo="0" devices="tripinfo_f_0_0.0" vType="type1" speedFactor="0.96" vaporized=""/>
    <tripinfo id="f_0_2.6" depart="50.00" departLane="np2_nt2_0" departPos="2.11" departSpeed="0.00" departDelay="0.91" arrival="248.00" arrivalLane="nt15_np10_0" arrivalPos="75.00" arrivalSpeed="9.84" duration="198.00" routeLength="948.97" waitingTime="71.00" waitingCount="6" stopTime="0.00" timeLoss="110.72" rerouteNo="0" devices="tripinfo_f_0_2.6" vType="type1" speedFactor="0.91" vaporized=""/>
    <tripinfo id="f_0_3.8" depart="66.00" departLane="np3_nt3_0" departPos="26.88" departSpeed="0.00" departDelay="0.54" arrival="248.00" arrivalLane="nt14_np11_0" arrivalPos="75.00" arrivalSpeed="9.23" duration="182.00" routeLength="924.21" waitingTime="66.00" waitingCount="8" stopTime="0.00" timeLoss="106.32" rerouteNo="0" devices="tripinfo_f_0_3.8" vType="type1" speedFactor="1.02" vaporized=""/>
    <tripinfo id="f_0_2.7" depart="58.00" departLane="np2_nt2_0" departPos="18.50" departSpeed="0.00" departDelay="0.73" arrival="250.00" arrivalLane="nt15_np10_0" arrivalPos="75.00" arrivalSpeed="10.35" duration="192.00" routeLength="932.58" waitingTime="74.00" waitingCount="5" stopTime="0.00" timeLoss="114.26" rerouteNo="0" devices="tripinfo_f_0_2.7" vType="type1" speedFactor="1.01" vaporized=""/>
    <tripinfo id="f_0_1.1" depart="14.00" departLane="np16_nt1_0" departPos="11.32" departSpeed="0.00" departDelay="0.36" arrival="253.00" arrivalLane="nt16_np8_0" arrivalPos="75.00" arrivalSpeed="18.65" duration="239.00" routeLength="1336.56" waitingTime="101.00" waitingCount="8" stopTime="0.00" timeLoss="143.15" rerouteNo="0" devices="tripinfo_f_0_1.1" vType="type1" speedFactor="0.97" vaporized=""/>
    <tripinfo id="f_0_1.2" depart="28.00" departLane="np16_nt1_0" departPos="54.12" departSpeed="0.00" departDelay="0.73" arrival="262.00" arrivalLane="nt16_np8_0" arrivalPos="75.00" arrivalSpeed="18.52" duration="234.00" routeLength="1293.76" waitingTime="90.00" waitingCount="7" stopTime="0.00" timeLoss="145.25" rerouteNo="0" devices="tripinfo_f_0_1.2" vType="type1" speedFactor="1.02" vaporized=""/>
    <tripinfo id="f_0_3.9" depart="74.00" departLane="np3_nt3_0" departPos="36.35" departSpeed="0.00" departDelay="0.36" arrival="268.00" arrivalLane="nt14_np11_0" arrivalPos="75.00" arrivalSpeed="7.87" duration="194.00" routeLength="914.74" waitingTime="84.00" waitingCount="4" stopTime="0.00" timeLoss="110.16" rerouteNo="0" devices="tripinfo_f_0_3.9" vType="type1" speedFactor="0.92" vaporized=""/>
    <tripinfo id="f_0_3.10" depart="82.00" departLane="np3_nt3_0" departPos="26.75" departSpeed="0.00" departDelay="0.18" arrival="269.00" arrivalLane="nt14_np11_0" arrivalPos="75.00" arrivalSpeed="11.02" duration="187.00" routeLength="924.34" waitingTime="82.00" waitingCount="5" stopTime="0.00" timeLoss="114.09" rerouteNo="0" devices="tripinfo_f_0_3.10" vType="type1" speedFactor="1.06" vaporized=""/>
    <tripinfo id="f_0_0.1" depart="14.00" departLane="np13_nt13_0" departPos="34.29" departSpeed="0.00" departDelay="0.36" arrival="280.00" arrivalLane="nt4_np5_0" arrivalPos="75.00" arrivalSpeed="20.09" duration="266.00" routeLength="1313.60" waitingTime="146.00" waitingCount="6" stopTime="0.00" timeLoss="176.81" rerouteNo="0" devices="tripinfo_f_0_0.1" vType="type1" speedFactor="1.03" vaporized=""/>
    <tripinfo id="f_0_2.8" depart="66.00" departLane="np2_nt2_0" departPos="59.42" departSpeed="0.00" departDelay="0.54" arrival="291.00" arrivalLane="nt15_np10_0" arrivalPos="75.00" arrivalSpeed="12.13" duration="225.00" routeLength="891.66" waitingTime="117.00" waitingCount="8" stopTime="0.00" timeLoss="159.62" rerouteNo="0" devices="tripinfo_f_0_2.8" vType="type1" speedFactor="1.14" vaporized=""/>
    <tripinfo id="f_0_2.9" depart="74.00" departLane="np2_nt2_0" departPos="18.08" departSpeed="0.00" departDelay="0.36" arrival="298.00" arrivalLane="nt15_np10_0" arrivalPos="75.00" arrivalSpeed="9.06" duration="224.00" routeLength="933.00" waitingTime="79.00" waitingCount="6" stopTime="0.00" timeLoss="128.51" rerouteNo="0" devices="tripinfo_f_0_2.9" vType="type1" speedFactor="0.82" vaporized=""/>
    <tripinfo id="f_0_0.2" depart="28.00" departLane="np13_nt13_0" departPos="41.55" departSpeed="0.00" departDelay="0.73" arrival="299.00" arrivalLane="nt4_np5_0" arrivalPos="75.00" arrivalSpeed="14.60" duration="271.00" routeLength="1306.34" waitingTime="123.00" waitingCount="6" stopTime="0.00" timeLoss="160.76" rerouteNo="0" devices="tripinfo_f_0_0.2" vType="type1" speedFactor="0.83" vaporized=""/>
    <tripinfo id="f_0_0.3" depart="41.00" departLane="np13_nt13_0" departPos="66.35" departSpeed="0.00" departDelay="0.09" arrival="300.00" arrivalLane="nt4_np5_0" arrivalPos="75.00" arrivalSpeed="18.16" duration="259.00" routeLength="1281.54" waitingTime="113.00" waitingCount="5" stopTime="0.00" timeLoss="163.24" rerouteNo="0" devices="tripinfo_f_0_0.3" vType="type1" speedFactor="0.94" vaporized=""/>
    <tripinfo id="f_0_0.4" depart="55.00" departLane="np13_nt13_0" departPos="32.13" departSpeed="0.00" departDelay="0.46" arrival="313.00" arrivalLane="nt4_np5_0" arrivalPos="75.00" arrivalSpeed="23.31" duration="258.00" routeLength="1315.76" waitingTime="124.00" waitingCount="7" stopTime="0.00" timeLoss="180.19" rerouteNo="0" devices="tripinfo_f_0_0.4" vType="type1" speedFactor="1.18" vaporized=""/>
    <tripinfo id="f_0_0.5" depart="69.00" departLane="np13_nt13_0" departPos="52.36" departSpeed="0.00" departDelay="0.82" arrival="315.00" arrivalLane="nt4_np5_0" arrivalPos="75.00" arrivalSpeed="16.80" duration="246.00" routeLength="1295.53" waitingTime="102.00" waitingCount="6" stopTime="0.00" timeLoss="144.67" rerouteNo="0" devices="tripinfo_f_0_0.5" vType="type1" speedFactor="0.90" vaporized=""/>
    <tripinfo id="f_0_0.6" depart="82.00" departLane="np13_nt13_0" departPos="39.44" departSpeed="0.00" departDelay="0.18" arrival="323.00" arrivalLane="nt4_np5_0" arrivalPos="75.00" arrivalSpeed="14.92" duration="241.00" routeLength="1308.45" waitingTime="82.00" waitingCount="10" stopTime="0.00" timeLoss="133.00" rerouteNo="0" devices="tripinfo_f_0_0.6" vType="type1" speedFactor="0.84" vaporized=""/>
    <tripinfo id="f_0_2.10" depart="82.00" departLane="np2_nt2_0" departPos="39.33" departSpeed="0.00" departDelay="0.18" arrival="323.00" arrivalLane="nt15_np10_0" arrivalPos="75.00" arrivalSpeed="8.12" duration="241.00" routeLength="911.75" waitingTime="99.00" waitingCount="8" stopTime="0.00" timeLoss="158.84" rerouteNo="0" devices="tripinfo_f_0_2.10" vType="type1" speedFactor="0.93" vaporized=""/>
    <tripinfo id="f_0_0.7" depart="96.00" departLane="np13_nt13_0" departPos="22.81" departSpeed="0.00" departDelay="0.55" arrival="325.00" arrivalLane="nt4_np5_0" arrivalPos="75.00" arrivalSpeed="20.88" duration="229.00" routeLength="1325.08" waitingTime="68.00" waitingCount="7" stopTime="0.00" timeLoss="145.66" rerouteNo="0" devices="tripinfo_f_0_0.7" vType="type1" speedFactor="1.12" vaporized=""/>
    <tripinfo id="f_0_0.8" depart="110.00" departLane="np13_nt13_0" departPos="49.78" departSpeed="0.00" departDelay="0.91" arrival="337.00" arrivalLane="nt4_np5_0" arrivalPos="75.00" arrivalSpeed="17.54" duration="227.00" routeLength="1298.11" waitingTime="96.00" waitingCount="6" stopTime="0.00" timeLoss="126.58" rerouteNo="0" devices="tripinfo_f_0_0.8" vType="type1" speedFactor="0.90" vaporized=""/>
    <tripinfo id="f_0_3.11" depart="90.00" departLane="np3_nt3_0" departPos="14.05" departSpeed="0.00" departDelay="0.00" arrival="348.00" arrivalLane="nt14_np11_0" arrivalPos="75.00" arrivalSpeed="7.31" duration="258.00" routeLength="937.04" waitingTime="129.00" waitingCount="7" stopTime="0.00" timeLoss="169.30" rerouteNo="0" devices="tripinfo_f_0_3.11" vType="type1" speedFactor="0.89" vaporized=""/>
    <tripinfo id="f_0_0.9" depart="123.00" departLane="np13_nt13_0" departPos="58.30" departSpeed="0.00" departDelay="0.28" arrival="352.00" arrivalLane="nt4_np5_0" arrivalPos="75.00" arrivalSpeed="18.54" duration="229.00" routeLength="1289.59" waitingTime="91.00" waitingCount="6" stopTime="0.00" timeLoss="138.73" rerouteNo="0" devices="tripinfo_f_0_0.9" vType="type1" speedFactor="1.00" vaporized=""/>
    <tripinfo id="f_0_0.10" depart="137.00" departLane="np13_nt13_0" departPos="20.58" departSpeed="0.00" departDelay="0.64" arrival="383.00" arrivalLane="nt4_np5_0" arrivalPos="75.00" arrivalSpeed="19.07" duration="246.00" routeLength="1327.31" waitingTime="101.00" waitingCount="10" stopTime="0.00" timeLoss="154.06" rerouteNo="0" devices="tripinfo_f_0_0.10" vType="type1" speedFactor="1.00" vaporized=""/>
    <tripinfo id="f_0_1.11" depart="150.00" departLane="np16_nt1_0" departPos="55.93" departSpeed="0.00" departDelay="0.00" arrival="384.00" arrivalLane="nt16_np8_0" arrivalPos="75.00" arrivalSpeed="14.90" duration="234.00" routeLength="1291.95" waitingTime="93.00" waitingCount="7" stopTime="0.00" timeLoss="123.66" rerouteNo="0" devices="tripinfo_f_0_1.11" vType="type1" speedFactor="0.82" vaporized=""/>
    <tripinfo id="f_0_0.11" depart="150.00" departLane="np13_nt13_0" departPos="1.16" departSpeed="0.00" departDelay="0.00" arrival="385.00" arrivalLane="nt4_np5_0" arrivalPos="75.00" arrivalSpeed="19.26" duration="235.00" routeLength="1346.73" waitingTime="86.00" waitingCount="9" stopTime="0.00" timeLoss="141.49" rerouteNo="0" devices="tripinfo_f_0_0.11" vType="type1" speedFactor="1.00" vaporized=""/>
    <tripinfo id="f_0_0.12" depart="164.00" departLane="np13_nt13_0" departPos="44.27" departSpeed="0.00" departDelay="0.37" arrival="399.00" arrivalLane="nt4_np5_0" arrivalPos="75.00" arrivalSpeed="18.72" duration="235.00" routeLength="1303.62" waitingTime="91.00" waitingCount="12" stopTime="0.00" timeLoss="143.16" rerouteNo="0" devices="tripinfo_f_0_0.12" vType="type1" speedFactor="0.99" vaporized=""/>
    <tripinfo id="f_0_1.3" depart="41.00" departLane="np16_nt1_0" departPos="2.04" departSpeed="0.00" departDelay="0.09" arrival="403.00" arrivalLane="nt16_np8_0" arrivalPos="75.00" arrivalSpeed="20.72" duration="362.00" routeLength="1345.84" waitingTime="192.00" waitingCount="14" stopTime="0.00" timeLoss="280.00" rerouteNo="0" devices="tripinfo_f_0_1.3" vType="type1" speedFactor="1.13" vaporized=""/>
    <tripinfo id="f_0_1.4" depart="55.00" departLane="np16_nt1_0" departPos="5.95" departSpeed="0.00" departDelay="0.46" arrival="405.00" arrivalLane="nt16_np8_0" arrivalPos="75.00" arrivalSpeed="18.59" duration="350.00" routeLength="1341.93" waitingTime="183.00" waitingCount="11" stopTime="0.00" timeLoss="252.67" rerouteNo="0" devices="tripinfo_f_0_1.4" vType="type1" speedFactor="0.96" vaporized=""/>
    <tripinfo id="f_0_1.12" depart="164.00" departLane="np16_nt1_0" departPos="25.73" departSpeed="0.00" departDelay="0.37" arrival="407.00" arrivalLane="nt16_np8_0" arrivalPos="75.00" arrivalSpeed="20.40" duration="243.00" routeLength="1322.15" waitingTime="101.00" waitingCount="11" stopTime="0.00" timeLoss="156.71" rerouteNo="0" devices="tripinfo_f_0_1.12" vType="type1" speedFactor="1.07" vaporized=""/>
    <tripinfo id="f_0_0.13" depart="178.00" departLane="np13_nt13_0" departPos="17.31" departSpeed="0.00" departDelay="0.73" arrival="408.00" arrivalLane="nt4_np5_0" arrivalPos="75.00" arrivalSpeed="16.59" duration="230.00" routeLength="1330.58" waitingTime="65.00" waitingCount="8" stopTime="0.00" timeLoss="121.40" rerouteNo="0" devices="tripinfo_f_0_0.13" vType="type1" speedFactor="0.85" vaporized=""/>
    <tripinfo id="f_0_3.12" depart="99.00" departLane="np3_nt3_0" departPos="25.76" departSpeed="0.00" departDelay="0.82" arrival="418.00" arrivalLane="nt14_np11_0" arrivalPos="75.00" arrivalSpeed="9.30" duration="319.00" routeLength="925.33" waitingTime="186.00" waitingCount="8" stopTime="0.00" timeLoss="234.19" rerouteNo="0" devices="tripinfo_f_0_3.12" vType="type1" speedFactor="0.91" vaporized=""/>
    <tripinfo id="f_0_2.11" depart="90.00" departLane="np2_nt2_0" departPos="11.82" departSpeed="0.00" departDelay="0.00" arrival="423.00" arrivalLane="nt15_np10_0" arrivalPos="75.00" arrivalSpeed="9.77" duration="333.00" routeLength="939.26" waitingTime="179.00" waitingCount="11" stopTime="0.00" timeLoss="247.63" rerouteNo="0" devices="tripinfo_f_0_2.11" vType="type1" speedFactor="0.92" vaporized=""/>
    <tripinfo id="f_0_2.12" depart="99.00" departLane="np2_nt2_0" departPos="36.16" departSpeed="0.00" departDelay="0.82" arrival="426.00" arrivalLane="nt15_np10_0" arrivalPos="75.00" arrivalSpeed="9.21" duration="327.00" routeLength="914.92" waitingTime="162.00" waitingCount="13" stopTime="0.00" timeLoss="241.83" rerouteNo="0" devices="tripinfo_f_0_2.12" vType="type1" speedFactor="0.91" vaporized=""/>
    <tripinfo id="f_0_3.13" depart="107.00" departLane="np3_nt3_0" departPos="18.65" departSpeed="0.00" departDelay="0.63" arrival="429.00" arrivalLane="nt14_np11_0" arrivalPos="75.00" arrivalSpeed="8.39" duration="322.00" routeLength="932.44" waitingTime="184.00" waitingCount="11" stopTime="0.00" timeLoss="232.69" rerouteNo="0" devices="tripinfo_f_0_3.13" vType="type1" speedFactor="0.88" vaporized=""/>
    <tripinfo id="f_0_3.14" depart="115.00" departLane="np3_nt3_0" departPos="18.60" departSpeed="0.00" departDelay="0.45" arrival="432.00" arrivalLane="nt14_np11_0" arrivalPos="75.00" arrivalSpeed="8.54" duration="317.00" routeLength="932.49" waitingTime="164.00" waitingCount="8" stopTime="0.00" timeLoss="219.47" rerouteNo="0" devices="tripinfo_f_0_3.14" vType="type1" speedFactor="0.80" vaporized=""/>
    <tripinfo id="f_0_3.15" depart="123.00" departLane="np3_nt3_0" departPos="3.69" departSpeed="0.00" departDelay="0.27" arrival="439.00" arrivalLane="nt14_np11_0" arrivalPos="75.00" arrivalSpeed="7.36" duration="316.00" routeLength="947.40" waitingTime="168.00" waitingCount="9" stopTime="0.00" timeLoss="226.33" rerouteNo="0" devices="tripinfo_f_0_3.15" vType="type1" speedFactor="0.89" vaporized=""/>
    <tripinfo id="f_0_3.16" depart="131.00" departLane="np3_nt3_0" departPos="4.36" departSpeed="0.00" departDelay="0.09" arrival="442.00" arrivalLane="nt14_np11_0" arrivalPos="75.00" arrivalSpeed="9.54" duration="311.00" routeLength="946.73" waitingTime="178.00" waitingCount="8" stopTime="0.00" timeLoss="232.34" rerouteNo="0" devices="tripinfo_f_0_3.16" vType="type1" speedFactor="1.01" vaporized=""/>
    <tripinfo id="f_0_3.17" depart="140.00" departLane="np3_nt3_0" departPos="0.00" departSpeed="0.00" departDelay="0.91" arrival="443.00" arrivalLane="nt14_np11_0" arrivalPos="75.00" arrivalSpeed="11.17" duration="303.00" routeLength="951.09" waitingTime="164.00" waitingCount="10" stopTime="0.00" timeLoss="233.08" rerouteNo="0" devices="tripinfo_f_0_3.17" vType="type1" speedFactor="1.13" vaporized=""/>
    <tripinfo id="f_0_0.14" depart="191.00" departLane="np13_nt13_0" departPos="34.45" departSpeed="0.00" departDelay="0.10" arrival="453.00" arrivalLane="nt4_np5_0" arrivalPos="75.00" arrivalSpeed="22.47" duration="262.00" routeLength="1313.44" waitingTime="124.00" waitingCount="13" stopTime="0.00" timeLoss="181.04" rerouteNo="0" devices="tripinfo_f_0_0.14" vType="type1" speedFactor="1.13" vaporized=""/>
    <tripinfo id="f_0_0.15" depart="205.00" departLane="np13_nt13_0" departPos="36.51" departSpeed="0.00" departDelay="0.46" arrival="454.00" arrivalLane="nt4_np5_0" arrivalPos="75.00" arrivalSpeed="20.21" duration="249.00" routeLength="1311.38" waitingTime="103.00" waitingCount="7" stopTime="0.00" timeLoss="164.99" rerouteNo="0" devices="tripinfo_f_0_0.15" vType="type1" speedFactor="1.09" vaporized=""/>
    <tripinfo id="f_0_0.16" depart="219.00" departLane="np13_nt13_0" departPos="12.46" departSpeed="0.00" departDelay="0.82" arrival="473.00" arrivalLane="nt4_np5_0" arrivalPos="75.00" arrivalSpeed="21.09" duration="254.00" routeLength="1335.43" waitingTime="105.00" waitingCount="9" stopTime="0.00" timeLoss="168.75" rerouteNo="0" devices="tripinfo_f_0_0.16" vType="type1" speedFactor="1.09" vaporized=""/>
    <tripinfo id="f_0_0.17" depart="232.00" departLane="np13_nt13_0" departPos="64.00" departSpeed="0.00" departDelay="0.19" arrival="475.00" arrivalLane="nt4_np5_0" arrivalPos="75.00" arrivalSpeed="18.08" duration="243.00" routeLength="1283.89" waitingTime="95.00" waitingCount="10" stopTime="0.00" timeLoss="148.87" rerouteNo="0" devices="tripinfo_f_0_0.17" vType="type1" speedFactor="0.96" vaporized=""/>
    <tripinfo id="f_0_2.25" depart="205.00" departLane="np2_nt2_0" departPos="9.66" departSpeed="0.00" departDelay="0.45" arrival="476.00" arrivalLane="nt15_np10_0" arrivalPos="75.00" arrivalSpeed="12.35" duration="271.00" routeLength="941.42" waitingTime="153.00" waitingCount="8" stopTime="0.00" timeLoss="205.39" rerouteNo="0" devices="tripinfo_f_0_2.25" vType="type1" speedFactor="1.21" vaporized=""/>
    <tripinfo id="f_0_0.18" depart="246.00" departLane="np13_nt13_0" departPos="32.17" departSpeed="0.00" departDelay="0.55" arrival="484.00" arrivalLane="nt4_np5_0" arrivalPos="75.00" arrivalSpeed="15.99" duration="238.00" routeLength="1315.72" waitingTime="73.00" waitingCount="8" stopTime="0.00" timeLoss="124.66" rerouteNo="0" devices="tripinfo_f_0_0.18" vType="type1" speedFactor="0.81" vaporized=""/>
    <tripinfo id="f_0_0.19" depart="260.00" departLane="np13_nt13_0" departPos="40.24" departSpeed="0.00" departDelay="0.92" arrival="486.00" arrivalLane="nt4_np5_0" arrivalPos="75.00" arrivalSpeed="18.65" duration="226.00" routeLength="1307.65" waitingTime="69.00" waitingCount="9" stopTime="0.00" timeLoss="130.61" rerouteNo="0" devices="tripinfo_f_0_0.19" vType="type1" speedFactor="0.96" vaporized=""/>
    <tripinfo id="f_0_0.20" depart="273.00" departLane="np13_nt13_0" departPos="8.83" departSpeed="0.00" departDelay="0.28" arrival="487.00" arrivalLane="nt4_np5_0" arrivalPos="75.00" arrivalSpeed="19.93" duration="214.00" routeLength="1339.06" waitingTime="60.00" waitingCount="8" stopTime="0.00" timeLoss="127.05" rerouteNo="0" devices="tripinfo_f_0_0.20" vType="type1" speedFactor="1.07" vaporized=""/>
    <tripinfo id="f_0_1.5" depart="69.00" departLane="np16_nt1_0" departPos="52.99" departSpeed="0.00" departDelay="0.82" arrival="491.00" arrivalLane="nt16_np8_0" arrivalPos="75.00" arrivalSpeed="16.27" duration="422.00" routeLength="1294.89" waitingTime="228.00" waitingCount="18" stopTime="0.00" timeLoss="324.06" rerouteNo="0" devices="tripinfo_f_0_1.5" vType="type1" speedFactor="0.93" vaporized=""/>
    <tripinfo id="f_0_3.18" depart="168.00" departLane="np3_nt3_0" departPos="0.00" departSpeed="0.00" departDelay="20.72" arrival="496.00" arrivalLane="nt14_np11_0" arrivalPos="75.00" arrivalSpeed="9.73" duration="328.00" routeLength="951.09" waitingTime="184.00" waitingCount="10" stopTime="0.00" timeLoss="256.38" rerouteNo="0" devices="tripinfo_f_0_3.18" vType="type1" speedFactor="1.11" vaporized=""/>
    <tripinfo id="f_0_3.19" depart="178.00" departLane="np3_nt3_0" departPos="0.00" departSpeed="0.00" departDelay="22.54" arrival="498.00" arrivalLane="nt14_np11_0" arrivalPos="75.00" arrivalSpeed="10.59" duration="320.00" routeLength="951.09" waitingTime="178.00" waitingCount="11" stopTime="0.00" timeLoss="245.58" rerouteNo="0" devices="tripinfo_f_0_3.19" vType="type1" speedFactor="1.07" vaporized=""/>
    <tripinfo id="f_0_3.20" depart="223.00" departLane="np3_nt3_0" departPos="0.00" departSpeed="0.00" departDelay="59.36" arrival="501.00" arrivalLane="nt14_np11_0" arrivalPos="75.00" arrivalSpeed="10.83" duration="278.00" routeLength="951.09" waitingTime="125.00" waitingCount="11" stopTime="0.00" timeLoss="198.84" rerouteNo="0" devices="tripinfo_f_0_3.20" vType="type1" speedFactor="1.01" vaporized=""/>
    <tripinfo id="f_0_3.21" depart="273.00" departLane="np3_nt3_0" departPos="0.00" departSpeed="0.00" departDelay="101.18" arrival="503.00" arrivalLane="nt14_np11_0" arrivalPos="75.00" arrivalSpeed="10.24" duration="230.00" routeLength="951.09" waitingTime="86.00" waitingCount="9" stopTime="0.00" timeLoss="148.65" rerouteNo="0" devices="tripinfo_f_0_3.21" vType="type1" speedFactor="0.99" vaporized=""/>
    <tripinfo id="f_0_0.21" depart="287.00" departLane="np13_nt13_0" departPos="46.89" departSpeed="0.00" departDelay="0.64" arrival="509.00" arrivalLane="nt4_np5_0" arrivalPos="75.00" arrivalSpeed="19.46" duration="222.00" routeLength="1301.00" waitingTime="71.00" waitingCount="8" stopTime="0.00" timeLoss="130.30" rerouteNo="0" devices="tripinfo_f_0_0.21" vType="type1" speedFactor="0.99" vaporized=""/>
    <tripinfo id="f_0_3.22" depart="276.00" departLane="np3_nt3_0" departPos="0.00" departSpeed="0.00" departDelay="96.00" arrival="522.00" arrivalLane="nt14_np11_0" arrivalPos="75.00" arrivalSpeed="10.81" duration="246.00" routeLength="951.09" waitingTime="94.00" waitingCount="12" stopTime="0.00" timeLoss="168.77" rerouteNo="0" devices="tripinfo_f_0_3.22" vType="type1" speedFactor="1.04" vaporized=""/>
    <tripinfo id="f_0_3.23" depart="279.00" departLane="np3_nt3_0" departPos="0.00" departSpeed="0.00" departDelay="90.81" arrival="525.00" arrivalLane="nt14_np11_0" arrivalPos="75.00" arrivalSpeed="8.47" duration="246.00" routeLength="951.09" waitingTime="83.00" waitingCount="11" stopTime="0.00" timeLoss="159.12" rerouteNo="0" devices="tripinfo_f_0_3.23" vType="type1" speedFactor="0.92" vaporized=""/>
    <tripinfo id="f_0_1.13" depart="178.00" departLane="np16_nt1_0" departPos="48.74" departSpeed="0.00" departDelay="0.73" arrival="526.00" arrivalLane="nt16_np8_0" arrivalPos="75.00" arrivalSpeed="19.51" duration="348.00" routeLength="1299.14" waitingTime="204.00" waitingCount="12" stopTime="0.00" timeLoss="263.45" rerouteNo="0" devices="tripinfo_f_0_1.13" vType="type1" speedFactor="1.07" vaporized=""/>
    <tripinfo id="f_0_1.6" depart="82.00" departLane="np16_nt1_0" departPos="8.76" departSpeed="0.00" departDelay="0.18" arrival="529.00" arrivalLane="nt16_np8_0" arrivalPos="75.00" arrivalSpeed="22.87" duration="447.00" routeLength="1339.12" waitingTime="255.00" waitingCount="18" stopTime="0.00" timeLoss="370.38" rerouteNo="0" devices="tripinfo_f_0_1.6" vType="type1" speedFactor="1.20" vaporized=""/>
    <tripinfo id="f_0_3.24" depart="303.00" departLane="np3_nt3_0" departPos="0.00" departSpeed="0.00" departDelay="106.63" arrival="529.00" arrivalLane="nt14_np11_0" arrivalPos="75.00" arrivalSpeed="7.46" duration="226.00" routeLength="951.09" waitingTime="51.00" waitingCount="9" stopTime="0.00" timeLoss="126.14" rerouteNo="0" devices="tripinfo_f_0_3.24" vType="type1" speedFactor="0.80" vaporized=""/>