<?xml version="1.0" encoding="UTF-8"?>

<!-- generated on 2023-08-30 12:49:35 by Eclipse SUMO libsumo Version 1.18.0
<configuration xmlns:xsi="http://www.w3.org/2001/XMLSchema-instance" xsi:noNamespaceSchemaLocation="http://sumo.dlr.de/xsd/libsumoConfiguration.xsd">

    <input>
        <net-file value="/home/stefan/RESCO/./environments/arterial4x4/arterial4x4.net.xml"/>
        <route-files value="/home/stefan/RESCO/./environments/arterial4x4/arterial4x4_86.rou.xml"/>
    </input>

    <output>
        <tripinfo-output value="/home/stefan/results/ITRPO-tr0-arterial4x4-0-drq_norm-wait_norm/tripinfo_86.xml"/>
        <tripinfo-output.write-unfinished value="true"/>
    </output>

    <processing>
        <time-to-teleport value="-1"/>
    </processing>

    <report>
        <no-warnings value="True"/>
        <no-step-log value="True"/>
    </report>

    <random_number>
        <random value="true"/>
    </random_number>

</configuration>
-->

<tripinfos xmlns:xsi="http://www.w3.org/2001/XMLSchema-instance" xsi:noNamespaceSchemaLocation="http://sumo.dlr.de/xsd/tripinfo_file.xsd">
    <tripinfo id="f_0_2.0" depart="0.00" departLane="np2_nt2_0" departPos="50.57" departSpeed="0.00" departDelay="0.00" arrival="136.00" arrivalLane="nt15_np10_0" arrivalPos="75.00" arrivalSpeed="11.63" duration="136.00" routeLength="900.51" waitingTime="44.00" waitingCount="4" stopTime="0.00" timeLoss="71.60" rerouteNo="0" devices="tripinfo_f_0_2.0" vType="type1" speedFactor="1.16" vaporized=""/>
    <tripinfo id="f_0_2.1" depart="9.00" departLane="np2_nt2_0" departPos="34.18" departSpeed="0.00" departDelay="0.82" arrival="148.00" arrivalLane="nt15_np10_0" arrivalPos="75.00" arrivalSpeed="9.79" duration="139.00" routeLength="916.90" waitingTime="28.00" waitingCount="4" stopTime="0.00" timeLoss="61.02" rerouteNo="0" devices="tripinfo_f_0_2.1" vType="type1" speedFactor="0.99" vaporized=""/>
    <tripinfo id="f_0_2.2" depart="17.00" departLane="np2_nt2_0" departPos="29.57" departSpeed="0.00" departDelay="0.64" arrival="150.00" arrivalLane="nt15_np10_0" arrivalPos="75.00" arrivalSpeed="8.92" duration="133.00" routeLength="921.51" waitingTime="17.00" waitingCount="3" stopTime="0.00" timeLoss="52.30" rerouteNo="0" devices="tripinfo_f_0_2.2" vType="type1" speedFactor="0.96" vaporized=""/>
    <tripinfo id="f_0_2.3" depart="25.00" departLane="np2_nt2_0" departPos="10.72" departSpeed="0.00" departDelay="0.45" arrival="153.00" arrivalLane="nt15_np10_0" arrivalPos="75.00" arrivalSpeed="9.70" duration="128.00" routeLength="940.36" waitingTime="15.00" waitingCount="4" stopTime="0.00" timeLoss="53.84" rerouteNo="0" devices="tripinfo_f_0_2.3" vType="type1" speedFactor="1.07" vaporized=""/>
    <tripinfo id="f_0_3.0" depart="0.00" departLane="np3_nt3_0" departPos="47.91" departSpeed="0.00" departDelay="0.00" arrival="168.00" arrivalLane="nt14_np11_0" arrivalPos="75.00" arrivalSpeed="8.46" duration="168.00" routeLength="903.18" waitingTime="64.00" waitingCount="3" stopTime="0.00" timeLoss="88.13" rerouteNo="0" devices="tripinfo_f_0_3.0" vType="type1" speedFactor="0.95" vaporized=""/>
    <tripinfo id="f_0_2.4" depart="33.00" departLane="np2_nt2_0" departPos="56.01" departSpeed="0.00" departDelay="0.27" arrival="183.00" arrivalLane="nt15_np10_0" arrivalPos="75.00" arrivalSpeed="10.84" duration="150.00" routeLength="895.07" waitingTime="39.00" waitingCount="7" stopTime="0.00" timeLoss="73.90" rerouteNo="0" devices="tripinfo_f_0_2.4" vType="type1" speedFactor="0.99" vaporized=""/>
    <tripinfo id="f_0_1.0" depart="0.00" departLane="np16_nt1_0" departPos="36.95" departSpeed="0.00" departDelay="0.00" arrival="189.00" arrivalLane="nt16_np8_0" arrivalPos="75.00" arrivalSpeed="21.55" duration="189.00" routeLength="1310.93" waitingTime="69.00" waitingCount="5" stopTime="0.00" timeLoss="104.05" rerouteNo="0" devices="tripinfo_f_0_1.0" vType="type1" speedFactor="1.08" vaporized=""/>
    <tripinfo id="f_0_1.1" depart="14.00" departLane="np16_nt1_0" departPos="52.83" departSpeed="0.00" departDelay="0.36" arrival="190.00" arrivalLane="nt16_np8_0" arrivalPos="75.00" arrivalSpeed="21.53" duration="176.00" routeLength="1295.05" waitingTime="48.00" waitingCount="6" stopTime="0.00" timeLoss="94.70" rerouteNo="0" devices="tripinfo_f_0_1.1" vType="type1" speedFactor="1.11" vaporized=""/>
    <tripinfo id="f_0_1.2" depart="28.00" departLane="np16_nt1_0" departPos="23.52" departSpeed="0.00" departDelay="0.73" arrival="195.00" arrivalLane="nt16_np8_0" arrivalPos="75.00" arrivalSpeed="20.30" duration="167.00" routeLength="1324.36" waitingTime="29.00" waitingCount="5" stopTime="0.00" timeLoss="84.32" rerouteNo="0" devices="tripinfo_f_0_1.2" vType="type1" speedFactor="1.12" vaporized=""/>
    <tripinfo id="f_0_2.5" depart="41.00" departLane="np2_nt2_0" departPos="17.91" departSpeed="0.00" departDelay="0.09" arrival="196.00" arrivalLane="nt15_np10_0" arrivalPos="75.00" arrivalSpeed="10.64" duration="155.00" routeLength="933.17" waitingTime="30.00" waitingCount="6" stopTime="0.00" timeLoss="88.30" rerouteNo="0" devices="tripinfo_f_0_2.5" vType="type1" speedFactor="1.17" vaporized=""/>
    <tripinfo id="f_0_2.6" depart="50.00" departLane="np2_nt2_0" departPos="48.26" departSpeed="0.00" departDelay="0.91" arrival="201.00" arrivalLane="nt15_np10_0" arrivalPos="75.00" arrivalSpeed="7.74" duration="151.00" routeLength="902.82" waitingTime="23.00" waitingCount="5" stopTime="0.00" timeLoss="66.58" rerouteNo="0" devices="tripinfo_f_0_2.6" vType="type1" speedFactor="0.90" vaporized=""/>
    <tripinfo id="f_0_0.0" depart="0.00" departLane="np13_nt13_0" departPos="39.41" departSpeed="0.00" departDelay="0.00" arrival="222.00" arrivalLane="nt4_np5_0" arrivalPos="75.00" arrivalSpeed="22.58" duration="222.00" routeLength="1308.48" waitingTime="118.00" waitingCount="3" stopTime="0.00" timeLoss="147.49" rerouteNo="0" devices="tripinfo_f_0_0.0" vType="type1" speedFactor="1.23" vaporized=""/>
    <tripinfo id="f_0_0.1" depart="14.00" departLane="np13_nt13_0" departPos="26.13" departSpeed="0.00" departDelay="0.36" arrival="225.00" arrivalLane="nt4_np5_0" arrivalPos="75.00" arrivalSpeed="21.26" duration="211.00" routeLength="1321.76" waitingTime="99.00" waitingCount="2" stopTime="0.00" timeLoss="129.80" rerouteNo="0" devices="tripinfo_f_0_0.1" vType="type1" speedFactor="1.13" vaporized=""/>
    <tripinfo id="f_0_2.7" depart="58.00" departLane="np2_nt2_0" departPos="52.76" departSpeed="0.00" departDelay="0.73" arrival="228.00" arrivalLane="nt15_np10_0" arrivalPos="75.00" arrivalSpeed="8.56" duration="170.00" routeLength="898.32" waitingTime="50.00" waitingCount="6" stopTime="0.00" timeLoss="88.66" rerouteNo="0" devices="tripinfo_f_0_2.7" vType="type1" speedFactor="0.93" vaporized=""/>
    <tripinfo id="f_0_2.8" depart="66.00" departLane="np2_nt2_0" departPos="51.73" departSpeed="0.00" departDelay="0.54" arrival="230.00" arrivalLane="nt15_np10_0" arrivalPos="75.00" arrivalSpeed="8.19" duration="164.00" routeLength="899.35" waitingTime="46.00" waitingCount="6" stopTime="0.00" timeLoss="83.39" rerouteNo="0" devices="tripinfo_f_0_2.8" vType="type1" speedFactor="0.94" vaporized=""/>
    <tripinfo id="f_0_2.9" depart="74.00" departLane="np2_nt2_0" departPos="31.11" departSpeed="0.00" departDelay="0.36" arrival="238.00" arrivalLane="nt15_np10_0" arrivalPos="75.00" arrivalSpeed="10.76" duration="164.00" routeLength="919.97" waitingTime="35.00" waitingCount="8" stopTime="0.00" timeLoss="97.04" rerouteNo="0" devices="tripinfo_f_0_2.9" vType="type1" speedFactor="1.15" vaporized=""/>
    <tripinfo id="f_0_0.2" depart="28.00" departLane="np13_nt13_0" departPos="45.26" departSpeed="0.00" departDelay="0.73" arrival="259.00" arrivalLane="nt4_np5_0" arrivalPos="75.00" arrivalSpeed="17.41" duration="231.00" routeLength="1302.63" waitingTime="101.00" waitingCount="4" stopTime="0.00" timeLoss="135.05" rerouteNo="0" devices="tripinfo_f_0_0.2" vType="type1" speedFactor="0.95" vaporized=""/>
    <tripinfo id="f_0_0.3" depart="41.00" departLane="np13_nt13_0" departPos="17.53" departSpeed="0.00" departDelay="0.09" arrival="260.00" arrivalLane="nt4_np5_0" arrivalPos="75.00" arrivalSpeed="19.93" duration="219.00" routeLength="1330.36" waitingTime="95.00" waitingCount="6" stopTime="0.00" timeLoss="135.79" rerouteNo="0" devices="tripinfo_f_0_0.3" vType="type1" speedFactor="1.10" vaporized=""/>
    <tripinfo id="f_0_0.4" depart="55.00" departLane="np13_nt13_0" departPos="54.83" departSpeed="0.00" departDelay="0.46" arrival="262.00" arrivalLane="nt4_np5_0" arrivalPos="75.00" arrivalSpeed="19.29" duration="207.00" routeLength="1293.06" waitingTime="75.00" waitingCount="7" stopTime="0.00" timeLoss="120.16" rerouteNo="0" devices="tripinfo_f_0_0.4" vType="type1" speedFactor="1.04" vaporized=""/>
    <tripinfo id="f_0_0.5" depart="69.00" departLane="np13_nt13_0" departPos="53.90" departSpeed="0.00" departDelay="0.82" arrival="264.00" arrivalLane="nt4_np5_0" arrivalPos="75.00" arrivalSpeed="17.34" duration="195.00" routeLength="1293.99" waitingTime="52.00" waitingCount="6" stopTime="0.00" timeLoss="96.73" rerouteNo="0" devices="tripinfo_f_0_0.5" vType="type1" speedFactor="0.92" vaporized=""/>
    <tripinfo id="f_0_1.3" depart="41.00" departLane="np16_nt1_0" departPos="30.71" departSpeed="0.00" departDelay="0.09" arrival="268.00" arrivalLane="nt16_np8_0" arrivalPos="75.00" arrivalSpeed="17.87" duration="227.00" routeLength="1317.17" waitingTime="80.00" waitingCount="9" stopTime="0.00" timeLoss="133.25" rerouteNo="0" devices="tripinfo_f_0_1.3" vType="type1" speedFactor="0.98" vaporized=""/>
    <tripinfo id="f_0_2.10" depart="82.00" departLane="np2_nt2_0" departPos="55.25" departSpeed="0.00" departDelay="0.18" arrival="290.00" arrivalLane="nt15_np10_0" arrivalPos="75.00" arrivalSpeed="7.95" duration="208.00" routeLength="895.83" waitingTime="73.00" waitingCount="6" stopTime="0.00" timeLoss="114.21" rerouteNo="0" devices="tripinfo_f_0_2.10" vType="type1" speedFactor="0.80" vaporized=""/>
    <tripinfo id="f_0_0.6" depart="82.00" departLane="np13_nt13_0" departPos="38.40" departSpeed="0.00" departDelay="0.18" arrival="298.00" arrivalLane="nt4_np5_0" arrivalPos="75.00" arrivalSpeed="16.60" duration="216.00" routeLength="1309.49" waitingTime="84.00" waitingCount="5" stopTime="0.00" timeLoss="119.58" rerouteNo="0" devices="tripinfo_f_0_0.6" vType="type1" speedFactor="0.94" vaporized=""/>
    <tripinfo id="f_0_1.4" depart="55.00" departLane="np16_nt1_0" departPos="12.22" departSpeed="0.00" departDelay="0.46" arrival="308.00" arrivalLane="nt16_np8_0" arrivalPos="75.00" arrivalSpeed="16.62" duration="253.00" routeLength="1335.66" waitingTime="87.00" waitingCount="7" stopTime="0.00" timeLoss="155.12" rerouteNo="0" devices="tripinfo_f_0_1.4" vType="type1" speedFactor="0.95" vaporized=""/>
    <tripinfo id="f_0_0.7" depart="96.00" departLane="np13_nt13_0" departPos="44.13" departSpeed="0.00" departDelay="0.55" arrival="308.00" arrivalLane="nt4_np5_0" arrivalPos="75.00" arrivalSpeed="16.76" duration="212.00" routeLength="1303.76" waitingTime="71.00" waitingCount="7" stopTime="0.00" timeLoss="111.66" rerouteNo="0" devices="tripinfo_f_0_0.7" vType="type1" speedFactor="0.91" vaporized=""/>
    <tripinfo id="f_0_0.8" depart="110.00" departLane="np13_nt13_0" departPos="58.52" departSpeed="0.00" departDelay="0.91" arrival="309.00" arrivalLane="nt4_np5_0" arrivalPos="75.00" arrivalSpeed="18.87" duration="199.00" routeLength="1289.37" waitingTime="59.00" waitingCount="4" stopTime="0.00" timeLoss="111.30" rerouteNo="0" devices="tripinfo_f_0_0.8" vType="type1" speedFactor="1.03" vaporized=""/>
    <tripinfo id="f_0_1.5" depart="69.00" departLane="np16_nt1_0" departPos="45.94" departSpeed="0.00" departDelay="0.82" arrival="310.00" arrivalLane="nt16_np8_0" arrivalPos="75.00" arrivalSpeed="19.07" duration="241.00" routeLength="1301.94" waitingTime="83.00" waitingCount="7" stopTime="0.00" timeLoss="154.73" rerouteNo="0" devices="tripinfo_f_0_1.5" vType="type1" speedFactor="1.06" vaporized=""/>
    <tripinfo id="f_0_0.9" depart="123.00" departLane="np13_nt13_0" departPos="32.20" departSpeed="0.00" departDelay="0.28" arrival="312.00" arrivalLane="nt4_np5_0" arrivalPos="75.00" arrivalSpeed="16.41" duration="189.00" routeLength="1315.69" waitingTime="49.00" waitingCount="5" stopTime="0.00" timeLoss="89.17" rerouteNo="0" devices="tripinfo_f_0_0.9" vType="type1" speedFactor="0.92" vaporized=""/>
    <tripinfo id="f_0_2.11" depart="90.00" departLane="np2_nt2_0" departPos="49.92" departSpeed="0.00" departDelay="0.00" arrival="313.00" arrivalLane="nt15_np10_0" arrivalPos="75.00" arrivalSpeed="8.53" duration="223.00" routeLength="901.16" waitingTime="98.00" waitingCount="6" stopTime="0.00" timeLoss="141.96" rerouteNo="0" devices="tripinfo_f_0_2.11" vType="type1" speedFactor="0.93" vaporized=""/>
    <tripinfo id="f_0_2.12" depart="99.00" departLane="np2_nt2_0" departPos="22.66" departSpeed="0.00" departDelay="0.82" arrival="323.00" arrivalLane="nt15_np10_0" arrivalPos="75.00" arrivalSpeed="7.80" duration="224.00" routeLength="928.42" waitingTime="91.00" waitingCount="6" stopTime="0.00" timeLoss="136.77" rerouteNo="0" devices="tripinfo_f_0_2.12" vType="type1" speedFactor="0.89" vaporized=""/>
    <tripinfo id="f_0_2.13" depart="107.00" departLane="np2_nt2_0" departPos="33.27" departSpeed="0.00" departDelay="0.63" arrival="325.00" arrivalLane="nt15_np10_0" arrivalPos="75.00" arrivalSpeed="7.68" duration="218.00" routeLength="917.81" waitingTime="82.00" waitingCount="6" stopTime="0.00" timeLoss="133.12" rerouteNo="0" devices="tripinfo_f_0_2.13" vType="type1" speedFactor="0.91" vaporized=""/>
    <tripinfo id="f_0_2.14" depart="115.00" departLane="np2_nt2_0" departPos="14.57" departSpeed="0.00" departDelay="0.45" arrival="332.00" arrivalLane="nt15_np10_0" arrivalPos="75.00" arrivalSpeed="10.06" duration="217.00" routeLength="936.51" waitingTime="74.00" waitingCount="8" stopTime="0.00" timeLoss="136.79" rerouteNo="0" devices="tripinfo_f_0_2.14" vType="type1" speedFactor="0.98" vaporized=""/>
    <tripinfo id="f_0_0.10" depart="137.00" departLane="np13_nt13_0" departPos="33.64" departSpeed="0.00" departDelay="0.64" arrival="333.00" arrivalLane="nt4_np5_0" arrivalPos="75.00" arrivalSpeed="18.63" duration="196.00" routeLength="1314.25" waitingTime="55.00" waitingCount="7" stopTime="0.00" timeLoss="105.40" rerouteNo="0" devices="tripinfo_f_0_0.10" vType="type1" speedFactor="1.01" vaporized=""/>
    <tripinfo id="f_0_2.15" depart="123.00" departLane="np2_nt2_0" departPos="15.76" departSpeed="0.00" departDelay="0.27" arrival="334.00" arrivalLane="nt15_np10_0" arrivalPos="75.00" arrivalSpeed="9.38" duration="211.00" routeLength="935.32" waitingTime="72.00" waitingCount="9" stopTime="0.00" timeLoss="131.87" rerouteNo="0" devices="tripinfo_f_0_2.15" vType="type1" speedFactor="0.99" vaporized=""/>
    <tripinfo id="f_0_0.11" depart="150.00" departLane="np13_nt13_0" departPos="52.50" departSpeed="0.00" departDelay="0.00" arrival="344.00" arrivalLane="nt4_np5_0" arrivalPos="75.00" arrivalSpeed="14.74" duration="194.00" routeLength="1295.39" waitingTime="47.00" waitingCount="4" stopTime="0.00" timeLoss="81.96" rerouteNo="0" devices="tripinfo_f_0_0.11" vType="type1" speedFactor="0.81" vaporized=""/>
    <tripinfo id="f_0_0.12" depart="164.00" departLane="np13_nt13_0" departPos="40.89" departSpeed="0.00" departDelay="0.37" arrival="346.00" arrivalLane="nt4_np5_0" arrivalPos="75.00" arrivalSpeed="19.15" duration="182.00" routeLength="1307.00" waitingTime="45.00" waitingCount="4" stopTime="0.00" timeLoss="87.91" rerouteNo="0" devices="tripinfo_f_0_0.12" vType="type1" speedFactor="0.97" vaporized=""/>
    <tripinfo id="f_0_2.16" depart="131.00" departLane="np2_nt2_0" departPos="33.62" departSpeed="0.00" departDelay="0.09" arrival="348.00" arrivalLane="nt15_np10_0" arrivalPos="75.00" arrivalSpeed="9.22" duration="217.00" routeLength="917.46" waitingTime="69.00" waitingCount="10" stopTime="0.00" timeLoss="137.94" rerouteNo="0" devices="tripinfo_f_0_2.16" vType="type1" speedFactor="0.98" vaporized=""/>
    <tripinfo id="f_0_0.13" depart="178.00" departLane="np13_nt13_0" departPos="14.78" departSpeed="0.00" departDelay="0.73" arrival="348.00" arrivalLane="nt4_np5_0" arrivalPos="75.00" arrivalSpeed="17.72" duration="170.00" routeLength="1333.11" waitingTime="36.00" waitingCount="5" stopTime="0.00" timeLoss="70.42" rerouteNo="0" devices="tripinfo_f_0_0.13" vType="type1" speedFactor="0.93" vaporized=""/>
    <tripinfo id="f_0_3.1" depart="9.00" departLane="np3_nt3_0" departPos="35.24" departSpeed="0.00" departDelay="0.82" arrival="349.00" arrivalLane="nt14_np11_0" arrivalPos="75.00" arrivalSpeed="7.21" duration="340.00" routeLength="915.85" waitingTime="225.00" waitingCount="3" stopTime="0.00" timeLoss="252.31" rerouteNo="0" devices="tripinfo_f_0_3.1" vType="type1" speedFactor="0.88" vaporized=""/>
    <tripinfo id="f_0_1.6" depart="82.00" departLane="np16_nt1_0" departPos="52.78" departSpeed="0.00" departDelay="0.18" arrival="362.00" arrivalLane="nt16_np8_0" arrivalPos="75.00" arrivalSpeed="23.60" duration="280.00" routeLength="1295.10" waitingTime="111.00" waitingCount="12" stopTime="0.00" timeLoss="208.27" rerouteNo="0" devices="tripinfo_f_0_1.6" vType="type1" speedFactor="1.27" vaporized=""/>
    <tripinfo id="f_0_0.14" depart="191.00" departLane="np13_nt13_0" departPos="3.90" departSpeed="0.00" departDelay="0.10" arrival="377.00" arrivalLane="nt4_np5_0" arrivalPos="75.00" arrivalSpeed="18.45" duration="186.00" routeLength="1343.99" waitingTime="48.00" waitingCount="7" stopTime="0.00" timeLoss="86.45" rerouteNo="0" devices="tripinfo_f_0_0.14" vType="type1" speedFactor="0.93" vaporized=""/>
    <tripinfo id="f_0_3.2" depart="17.00" departLane="np3_nt3_0" departPos="4.24" departSpeed="0.00" departDelay="0.64" arrival="378.00" arrivalLane="nt14_np11_0" arrivalPos="75.00" arrivalSpeed="9.65" duration="361.00" routeLength="946.85" waitingTime="239.00" waitingCount="7" stopTime="0.00" timeLoss="274.33" rerouteNo="0" devices="tripinfo_f_0_3.2" vType="type1" speedFactor="0.92" vaporized=""/>
    <tripinfo id="f_0_0.15" depart="205.00" departLane="np13_nt13_0" departPos="27.67" departSpeed="0.00" departDelay="0.46" arrival="378.00" arrivalLane="nt4_np5_0" arrivalPos="75.00" arrivalSpeed="21.11" duration="173.00" routeLength="1320.22" waitingTime="48.00" waitingCount="5" stopTime="0.00" timeLoss="89.36" rerouteNo="0" devices="tripinfo_f_0_0.15" vType="type1" speedFactor="1.10" vaporized=""/>
    <tripinfo id="f_0_3.3" depart="25.00" departLane="np3_nt3_0" departPos="35.14" departSpeed="0.00" departDelay="0.45" arrival="380.00" arrivalLane="nt14_np11_0" arrivalPos="75.00" arrivalSpeed="8.89" duration="355.00" routeLength="915.95" waitingTime="235.00" waitingCount="6" stopTime="0.00" timeLoss="273.19" rerouteNo="0" devices="tripinfo_f_0_3.3" vType="type1" speedFactor="0.94" vaporized=""/>
    <tripinfo id="f_0_0.16" depart="219.00" departLane="np13_nt13_0" departPos="12.00" departSpeed="0.00" departDelay="0.82" arrival="382.00" arrivalLane="nt4_np5_0" arrivalPos="75.00" arrivalSpeed="16.04" duration="163.00" routeLength="1335.89" waitingTime="32.00" waitingCount="4" stopTime="0.00" timeLoss="62.27" rerouteNo="0" devices="tripinfo_f_0_0.16" vType="type1" speedFactor="0.92" vaporized=""/>
    <tripinfo id="f_0_1.7" depart="96.00" departLane="np16_nt1_0" departPos="41.45" departSpeed="0.00" departDelay="0.55" arrival="383.00" arrivalLane="nt16_np8_0" arrivalPos="75.00" arrivalSpeed="20.62" duration="287.00" routeLength="1306.43" waitingTime="101.00" waitingCount="11" stopTime="0.00" timeLoss="204.57" rerouteNo="0" devices="tripinfo_f_0_1.7" vType="type1" speedFactor="1.11" vaporized=""/>
    <tripinfo id="f_0_1.8" depart="110.00" departLane="np16_nt1_0" departPos="31.47" departSpeed="0.00" departDelay="0.91" arrival="384.00" arrivalLane="nt16_np8_0" arrivalPos="75.00" arrivalSpeed="22.86" duration="274.00" routeLength="1316.41" waitingTime="76.00" waitingCount="11" stopTime="0.00" timeLoss="194.45" rerouteNo="0" devices="tripinfo_f_0_1.8" vType="type1" speedFactor="1.15" vaporized=""/>
    <tripinfo id="f_0_0.17" depart="232.00" departLane="np13_nt13_0" departPos="63.33" departSpeed="0.00" departDelay="0.19" arrival="384.00" arrivalLane="nt4_np5_0" arrivalPos="75.00" arrivalSpeed="18.20" duration="152.00" routeLength="1284.56" waitingTime="32.00" waitingCount="4" stopTime="0.00" timeLoss="62.30" rerouteNo="0" devices="tripinfo_f_0_0.17" vType="type1" speedFactor="1.01" vaporized=""/>
    <tripinfo id="f_0_0.18" depart="246.00" departLane="np13_nt13_0" departPos="20.51" departSpeed="0.00" departDelay="0.55" arrival="385.00" arrivalLane="nt4_np5_0" arrivalPos="75.00" arrivalSpeed="19.16" duration="139.00" routeLength="1327.38" waitingTime="20.00" waitingCount="3" stopTime="0.00" timeLoss="50.03" rerouteNo="0" devices="tripinfo_f_0_0.18" vType="type1" speedFactor="1.03" vaporized=""/>
    <tripinfo id="f_0_2.17" depart="140.00" departLane="np2_nt2_0" departPos="45.54" departSpeed="0.00" departDelay="0.91" arrival="386.00" arrivalLane="nt15_np10_0" arrivalPos="75.00" arrivalSpeed="11.69" duration="246.00" routeLength="905.54" waitingTime="74.00" waitingCount="9" stopTime="0.00" timeLoss="180.66" rerouteNo="0" devices="tripinfo_f_0_2.17" vType="type1" speedFactor="1.16" vaporized=""/>
    <tripinfo id="f_0_3.4" depart="33.00" departLane="np3_nt3_0" departPos="2.80" departSpeed="0.00" departDelay="0.27" arrival="387.00" arrivalLane="nt14_np11_0" arrivalPos="75.00" arrivalSpeed="9.33" duration="354.00" routeLength="948.29" waitingTime="229.00" waitingCount="7" stopTime="0.00" timeLoss="279.23" rerouteNo="0" devices="tripinfo_f_0_3.4" vType="type1" speedFactor="1.07" vaporized=""/>
    <tripinfo id="f_0_3.5" depart="41.00" departLane="np3_nt3_0" departPos="14.78" departSpeed="0.00" departDelay="0.09" arrival="389.00" arrivalLane="nt14_np11_0" arrivalPos="75.00" arrivalSpeed="9.36" duration="348.00" routeLength="936.31" waitingTime="237.00" waitingCount="7" stopTime="0.00" timeLoss="272.96" rerouteNo="0" devices="tripinfo_f_0_3.5" vType="type1" speedFactor="1.04" vaporized=""/>
    <tripinfo id="f_0_3.6" depart="50.00" departLane="np3_nt3_0" departPos="17.32" departSpeed="0.00" departDelay="0.91" arrival="391.00" arrivalLane="nt14_np11_0" arrivalPos="75.00" arrivalSpeed="11.64" duration="341.00" routeLength="933.77" waitingTime="228.00" waitingCount="7" stopTime="0.00" timeLoss="268.00" rerouteNo="0" devices="tripinfo_f_0_3.6" vType="type1" speedFactor="1.08" vaporized=""/>
    <tripinfo id="f_0_3.7" depart="58.00" departLane="np3_nt3_0" departPos="6.60" departSpeed="0.00" departDelay="0.73" arrival="394.00" arrivalLane="nt14_np11_0" arrivalPos="75.00" arrivalSpeed="7.71" duration="336.00" routeLength="944.49" waitingTime="207.00" waitingCount="6" stopTime="0.00" timeLoss="248.98" rerouteNo="0" devices="tripinfo_f_0_3.7" vType="type1" speedFactor="0.91" vaporized=""/>
    <tripinfo id="f_0_0.19" depart="260.00" departLane="np13_nt13_0" departPos="0.64" departSpeed="0.00" departDelay="0.92" arrival="402.00" arrivalLane="nt4_np5_0" arrivalPos="75.00" arrivalSpeed="19.22" duration="142.00" routeLength="1347.25" waitingTime="22.00" waitingCount="5" stopTime="0.00" timeLoss="54.09" rerouteNo="0" devices="tripinfo_f_0_0.19" vType="type1" speedFactor="1.06" vaporized=""/>
    <tripinfo id="f_0_3.8" depart="66.00" departLane="np3_nt3_0" departPos="1.89" departSpeed="0.00" departDelay="0.54" arrival="407.00" arrivalLane="nt14_np11_0" arrivalPos="75.00" arrivalSpeed="9.19" duration="341.00" routeLength="949.20" waitingTime="206.00" waitingCount="7" stopTime="0.00" timeLoss="262.99" rerouteNo="0" devices="tripinfo_f_0_3.8" vType="type1" speedFactor="1.02" vaporized=""/>
    <tripinfo id="f_0_3.11" depart="236.00" departLane="np3_nt3_0" departPos="25.76" departSpeed="0.00" departDelay="146.00" arrival="409.00" arrivalLane="nt14_np11_0" arrivalPos="75.00" arrivalSpeed="10.41" duration="173.00" routeLength="925.33" waitingTime="48.00" waitingCount="6" stopTime="0.00" timeLoss="101.13" rerouteNo="0" devices="tripinfo_f_0_3.11" vType="type1" speedFactor="1.09" vaporized=""/>
    <tripinfo id="f_0_2.18" depart="148.00" departLane="np2_nt2_0" departPos="2.81" departSpeed="0.00" departDelay="0.72" arrival="417.00" arrivalLane="nt15_np10_0" arrivalPos="75.00" arrivalSpeed="10.38" duration="269.00" routeLength="948.27" waitingTime="111.00" waitingCount="11" stopTime="0.00" timeLoss="193.19" rerouteNo="0" devices="tripinfo_f_0_2.18" vType="type1" speedFactor="1.05" vaporized=""/>
    <tripinfo id="f_0_1.9" depart="123.00" departLane="np16_nt1_0" departPos="24.63" departSpeed="0.00" departDelay="0.28" arrival="418.00" arrivalLane="nt16_np8_0" arrivalPos="75.00" arrivalSpeed="21.76" duration="295.00" routeLength="1323.25" waitingTime="83.00" waitingCount="13" stopTime="0.00" timeLoss="212.16" rerouteNo="0" devices="tripinfo_f_0_1.9" vType="type1" speedFactor="1.11" vaporized=""/>
    <tripinfo id="f_0_2.19" depart="156.00" departLane="np2_nt2_0" departPos="20.40" departSpeed="0.00" departDelay="0.54" arrival="420.00" arrivalLane="nt15_np10_0" arrivalPos="75.00" arrivalSpeed="7.71" duration="264.00" routeLength="930.68" waitingTime="97.00" waitingCount="8" stopTime="0.00" timeLoss="176.93" rerouteNo="0" devices="tripinfo_f_0_2.19" vType="type1" speedFactor="0.90" vaporized=""/>
    <tripinfo id="f_0_0.20" depart="273.00" departLane="np13_nt13_0" departPos="65.43" departSpeed="0.00" departDelay="0.28" arrival="428.00" arrivalLane="nt4_np5_0" arrivalPos="75.00" arrivalSpeed="21.81" duration="155.00" routeLength="1282.46" waitingTime="37.00" waitingCount="6" stopTime="0.00" timeLoss="79.41" rerouteNo="0" devices="tripinfo_f_0_0.20" vType="type1" speedFactor="1.19" vaporized=""/>
    <tripinfo id="f_0_2.20" depart="164.00" departLane="np2_nt2_0" departPos="17.01" departSpeed="0.00" departDelay="0.36" arrival="432.00" arrivalLane="nt15_np10_0" arrivalPos="75.00" arrivalSpeed="10.96" duration="268.00" routeLength="934.07" waitingTime="116.00" waitingCount="10" stopTime="0.00" timeLoss="191.65" rerouteNo="0" devices="tripinfo_f_0_2.20" vType="type1" speedFactor="1.03" vaporized=""/>
    <tripinfo id="f_0_2.21" depart="172.00" departLane="np2_nt2_0" departPos="28.64" departSpeed="0.00" departDelay="0.18" arrival="434.00" arrivalLane="nt15_np10_0" arrivalPos="75.00" arrivalSpeed="9.82" duration="262.00" routeLength="922.44" waitingTime="111.00" waitingCount="10" stopTime="0.00" timeLoss="186.25" rerouteNo="0" devices="tripinfo_f_0_2.21" vType="type1" speedFactor="1.02" vaporized=""/>
    <tripinfo id="f_0_3.9" depart="74.00" departLane="np3_nt3_0" departPos="0.00" departSpeed="0.00" departDelay="0.36" arrival="436.00" arrivalLane="nt14_np11_0" arrivalPos="75.00" arrivalSpeed="11.36" duration="362.00" routeLength="951.09" waitingTime="222.00" waitingCount="8" stopTime="0.00" timeLoss="290.09" rerouteNo="0" devices="tripinfo_f_0_3.9" vType="type1" speedFactor="1.11" vaporized=""/>
    <tripinfo id="f_0_3.10" depart="217.00" departLane="np3_nt3_0" departPos="0.00" departSpeed="0.00" departDelay="135.18" arrival="440.00" arrivalLane="nt14_np11_0" arrivalPos="75.00" arrivalSpeed="8.89" duration="223.00" routeLength="951.09" waitingTime="71.00" waitingCount="7" stopTime="0.00" timeLoss="135.73" rerouteNo="0" devices="tripinfo_f_0_3.10" vType="type1" speedFactor="0.92" vaporized=""/>
    <tripinfo id="f_0_0.21" depart="287.00" departLane="np13_nt13_0" departPos="0.26" departSpeed="0.00" departDelay="0.64" arrival="451.00" arrivalLane="nt4_np5_0" arrivalPos="75.00" arrivalSpeed="17.33" duration="164.00" routeLength="1347.63" waitingTime="31.00" waitingCount="3" stopTime="0.00" timeLoss="63.93" rerouteNo="0" devices="tripinfo_f_0_0.21" vType="type1" speedFactor="0.93" vaporized=""/>
    <tripinfo id="f_0_0.22" depart="300.00" departLane="np13_nt13_0" departPos="53.90" departSpeed="0.00" departDelay="0.01" arrival="453.00" arrivalLane="nt4_np5_0" arrivalPos="75.00" arrivalSpeed="22.49" duration="153.00" routeLength="1293.99" waitingTime="23.00" waitingCount="4" stopTime="0.00" timeLoss="72.43" rerouteNo="0" devices="tripinfo_f_0_0.22" vType="type1" speedFactor="1.14" vaporized=""/>
    <tripinfo id="f_1_0.0" depart="300.00" departLane="np13_nt13_0" departPos="29.28" departSpeed="0.00" departDelay="0.00" arrival="474.00" arrivalLane="nt4_np5_0" arrivalPos="75.00" arrivalSpeed="18.91" duration="174.00" routeLength="1318.61" waitingTime="37.00" waitingCount="5" stopTime="0.00" timeLoss="84.99" rerouteNo="0" devices="tripinfo_f_1_0.0" vType="type1" speedFactor="1.04" vaporized=""/>
    <tripinfo id="f_0_3.12" depart="237.00" departLane="np3_nt3_0" departPos="0.00" departSpeed="0.00" departDelay="138.82" arrival="498.00" arrivalLane="nt14_np11_0" arrivalPos="75.00" arrivalSpeed="9.27" duration="261.00" routeLength="951.09" waitingTime="108.00" waitingCount="9" stopTime="0.00" timeLoss="170.42" rerouteNo="0" devices="tripinfo_f_0_3.12" vType="type1" speedFactor="0.88" vaporized=""/>
    <tripinfo id="f_0_2.22" depart="180.00" departLane="np2_nt2_0" departPos="36.18" departSpeed="0.00" departDelay="0.00" arrival="498.00" arrivalLane="nt15_np10_0" arrivalPos="75.00" arrivalSpeed="10.25" duration="318.00" routeLength="914.90" waitingTime="132.00" waitingCount="15" stopTime="0.00" timeLoss="235.16" rerouteNo="0" devices="tripinfo_f_0_2.22" vType="type1" speedFactor="0.94" vaporized=""/>
    <tripinfo id="f_0_2.23" depart="189.00" departLane="np2_nt2_0" departPos="44.19" departSpeed="0.00" departDelay="0.81" arrival="500.00" arrivalLane="nt15_np10_0" arrivalPos="75.00" arrivalSpeed="8.97" duration="311.00" routeLength="906.89" waitingTime="141.00" waitingCount="12" stopTime="0.00" timeLoss="232.72" rerouteNo="0" devices="tripinfo_f_0_2.23" vType="type1" speedFactor="0.97" vaporized=""/>