<?xml version="1.0" encoding="UTF-8"?>

<!-- generated on 2023-08-30 12:28:45 by Eclipse SUMO libsumo Version 1.18.0
<configuration xmlns:xsi="http://www.w3.org/2001/XMLSchema-instance" xsi:noNamespaceSchemaLocation="http://sumo.dlr.de/xsd/libsumoConfiguration.xsd">

    <input>
        <net-file value="/home/stefan/RESCO/./environments/arterial4x4/arterial4x4.net.xml"/>
        <route-files value="/home/stefan/RESCO/./environments/arterial4x4/arterial4x4_28.rou.xml"/>
    </input>

    <output>
        <tripinfo-output value="/home/stefan/results/ITRPO-tr0-arterial4x4-0-drq_norm-wait_norm/tripinfo_28.xml"/>
        <tripinfo-output.write-unfinished value="true"/>
    </output>

    <processing>
        <time-to-teleport value="-1"/>
    </processing>

    <report>
        <no-warnings value="True"/>
        <no-step-log value="True"/>
    </report>

    <random_number>
        <random value="true"/>
    </random_number>

</configuration>
-->

<tripinfos xmlns:xsi="http://www.w3.org/2001/XMLSchema-instance" xsi:noNamespaceSchemaLocation="http://sumo.dlr.de/xsd/tripinfo_file.xsd">
    <tripinfo id="f_0_3.0" depart="0.00" departLane="np3_nt3_0" departPos="34.23" departSpeed="0.00" departDelay="0.00" arrival="115.00" arrivalLane="nt14_np11_0" arrivalPos="75.00" arrivalSpeed="11.80" duration="115.00" routeLength="916.86" waitingTime="33.00" waitingCount="3" stopTime="0.00" timeLoss="51.64" rerouteNo="0" devices="tripinfo_f_0_3.0" vType="type1" speedFactor="1.21" vaporized=""/>
    <tripinfo id="f_0_3.1" depart="9.00" departLane="np3_nt3_0" departPos="38.81" departSpeed="0.00" departDelay="0.82" arrival="137.00" arrivalLane="nt14_np11_0" arrivalPos="75.00" arrivalSpeed="10.90" duration="128.00" routeLength="912.28" waitingTime="29.00" waitingCount="3" stopTime="0.00" timeLoss="52.46" rerouteNo="0" devices="tripinfo_f_0_3.1" vType="type1" speedFactor="1.01" vaporized=""/>
    <tripinfo id="f_0_0.0" depart="0.00" departLane="np13_nt13_0" departPos="29.69" departSpeed="0.00" departDelay="0.00" arrival="143.00" arrivalLane="nt4_np5_0" arrivalPos="75.00" arrivalSpeed="18.22" duration="143.00" routeLength="1318.20" waitingTime="17.00" waitingCount="3" stopTime="0.00" timeLoss="48.87" rerouteNo="0" devices="tripinfo_f_0_0.0" vType="type1" speedFactor="0.98" vaporized=""/>
    <tripinfo id="f_0_2.0" depart="0.00" departLane="np2_nt2_0" departPos="14.51" departSpeed="0.00" departDelay="0.00" arrival="144.00" arrivalLane="nt15_np10_0" arrivalPos="75.00" arrivalSpeed="9.08" duration="144.00" routeLength="936.57" waitingTime="25.00" waitingCount="4" stopTime="0.00" timeLoss="50.67" rerouteNo="0" devices="tripinfo_f_0_2.0" vType="type1" speedFactor="0.85" vaporized=""/>
    <tripinfo id="f_0_1.0" depart="0.00" departLane="np16_nt1_0" departPos="56.46" departSpeed="0.00" departDelay="0.00" arrival="155.00" arrivalLane="nt16_np8_0" arrivalPos="75.00" arrivalSpeed="15.31" duration="155.00" routeLength="1291.42" waitingTime="24.00" waitingCount="3" stopTime="0.00" timeLoss="47.85" rerouteNo="0" devices="tripinfo_f_0_1.0" vType="type1" speedFactor="0.85" vaporized=""/>
    <tripinfo id="f_0_2.1" depart="9.00" departLane="np2_nt2_0" departPos="18.09" departSpeed="0.00" departDelay="0.82" arrival="168.00" arrivalLane="nt15_np10_0" arrivalPos="75.00" arrivalSpeed="10.02" duration="159.00" routeLength="932.99" waitingTime="47.00" waitingCount="6" stopTime="0.00" timeLoss="80.15" rerouteNo="0" devices="tripinfo_f_0_2.1" vType="type1" speedFactor="1.00" vaporized=""/>
    <tripinfo id="f_0_2.2" depart="17.00" departLane="np2_nt2_0" departPos="28.54" departSpeed="0.00" departDelay="0.64" arrival="169.00" arrivalLane="nt15_np10_0" arrivalPos="75.00" arrivalSpeed="11.69" duration="152.00" routeLength="922.54" waitingTime="45.00" waitingCount="7" stopTime="0.00" timeLoss="82.02" rerouteNo="0" devices="tripinfo_f_0_2.2" vType="type1" speedFactor="1.10" vaporized=""/>
    <tripinfo id="f_0_0.1" depart="14.00" departLane="np13_nt13_0" departPos="44.35" departSpeed="0.00" departDelay="0.36" arrival="173.00" arrivalLane="nt4_np5_0" arrivalPos="75.00" arrivalSpeed="18.24" duration="159.00" routeLength="1303.54" waitingTime="33.00" waitingCount="6" stopTime="0.00" timeLoss="65.56" rerouteNo="0" devices="tripinfo_f_0_0.1" vType="type1" speedFactor="0.97" vaporized=""/>
    <tripinfo id="f_0_3.2" depart="17.00" departLane="np3_nt3_0" departPos="11.23" departSpeed="0.00" departDelay="0.64" arrival="187.00" arrivalLane="nt14_np11_0" arrivalPos="75.00" arrivalSpeed="8.86" duration="170.00" routeLength="939.86" waitingTime="71.00" waitingCount="4" stopTime="0.00" timeLoss="90.93" rerouteNo="0" devices="tripinfo_f_0_3.2" vType="type1" speedFactor="1.00" vaporized=""/>
    <tripinfo id="f_0_3.3" depart="25.00" departLane="np3_nt3_0" departPos="9.35" departSpeed="0.00" departDelay="0.45" arrival="189.00" arrivalLane="nt14_np11_0" arrivalPos="75.00" arrivalSpeed="9.87" duration="164.00" routeLength="941.74" waitingTime="62.00" waitingCount="3" stopTime="0.00" timeLoss="87.84" rerouteNo="0" devices="tripinfo_f_0_3.3" vType="type1" speedFactor="1.04" vaporized=""/>
    <tripinfo id="f_0_3.4" depart="33.00" departLane="np3_nt3_0" departPos="7.54" departSpeed="0.00" departDelay="0.27" arrival="210.00" arrivalLane="nt14_np11_0" arrivalPos="75.00" arrivalSpeed="7.54" duration="177.00" routeLength="943.55" waitingTime="46.00" waitingCount="4" stopTime="0.00" timeLoss="77.48" rerouteNo="0" devices="tripinfo_f_0_3.4" vType="type1" speedFactor="0.80" vaporized=""/>
    <tripinfo id="f_0_2.3" depart="25.00" departLane="np2_nt2_0" departPos="5.60" departSpeed="0.00" departDelay="0.45" arrival="213.00" arrivalLane="nt15_np10_0" arrivalPos="75.00" arrivalSpeed="10.15" duration="188.00" routeLength="945.48" waitingTime="72.00" waitingCount="5" stopTime="0.00" timeLoss="102.47" rerouteNo="0" devices="tripinfo_f_0_2.3" vType="type1" speedFactor="0.93" vaporized=""/>
    <tripinfo id="f_0_3.5" depart="41.00" departLane="np3_nt3_0" departPos="39.40" departSpeed="0.00" departDelay="0.09" arrival="216.00" arrivalLane="nt14_np11_0" arrivalPos="75.00" arrivalSpeed="10.74" duration="175.00" routeLength="911.69" waitingTime="80.00" waitingCount="4" stopTime="0.00" timeLoss="103.88" rerouteNo="0" devices="tripinfo_f_0_3.5" vType="type1" speedFactor="1.08" vaporized=""/>
    <tripinfo id="f_0_2.4" depart="33.00" departLane="np2_nt2_0" departPos="23.62" departSpeed="0.00" departDelay="0.27" arrival="222.00" arrivalLane="nt15_np10_0" arrivalPos="75.00" arrivalSpeed="9.30" duration="189.00" routeLength="927.46" waitingTime="76.00" waitingCount="6" stopTime="0.00" timeLoss="107.26" rerouteNo="0" devices="tripinfo_f_0_2.4" vType="type1" speedFactor="0.95" vaporized=""/>
    <tripinfo id="f_0_0.2" depart="28.00" departLane="np13_nt13_0" departPos="36.48" departSpeed="0.00" departDelay="0.73" arrival="223.00" arrivalLane="nt4_np5_0" arrivalPos="75.00" arrivalSpeed="21.85" duration="195.00" routeLength="1311.41" waitingTime="67.00" waitingCount="4" stopTime="0.00" timeLoss="113.19" rerouteNo="0" devices="tripinfo_f_0_0.2" vType="type1" speedFactor="1.11" vaporized=""/>
    <tripinfo id="f_0_2.5" depart="41.00" departLane="np2_nt2_0" departPos="56.10" departSpeed="0.00" departDelay="0.09" arrival="226.00" arrivalLane="nt15_np10_0" arrivalPos="75.00" arrivalSpeed="8.05" duration="185.00" routeLength="894.98" waitingTime="65.00" waitingCount="4" stopTime="0.00" timeLoss="96.25" rerouteNo="0" devices="tripinfo_f_0_2.5" vType="type1" speedFactor="0.85" vaporized=""/>
    <tripinfo id="f_0_0.3" depart="41.00" departLane="np13_nt13_0" departPos="27.41" departSpeed="0.00" departDelay="0.09" arrival="243.00" arrivalLane="nt4_np5_0" arrivalPos="75.00" arrivalSpeed="20.93" duration="202.00" routeLength="1320.48" waitingTime="74.00" waitingCount="6" stopTime="0.00" timeLoss="114.90" rerouteNo="0" devices="tripinfo_f_0_0.3" vType="type1" speedFactor="1.06" vaporized=""/>
    <tripinfo id="f_0_2.6" depart="50.00" departLane="np2_nt2_0" departPos="63.78" departSpeed="0.00" departDelay="0.91" arrival="247.00" arrivalLane="nt15_np10_0" arrivalPos="75.00" arrivalSpeed="11.02" duration="197.00" routeLength="887.30" waitingTime="81.00" waitingCount="8" stopTime="0.00" timeLoss="127.00" rerouteNo="0" devices="tripinfo_f_0_2.6" vType="type1" speedFactor="1.06" vaporized=""/>
    <tripinfo id="f_0_1.1" depart="14.00" departLane="np16_nt1_0" departPos="31.49" departSpeed="0.00" departDelay="0.36" arrival="249.00" arrivalLane="nt16_np8_0" arrivalPos="75.00" arrivalSpeed="14.78" duration="235.00" routeLength="1316.39" waitingTime="82.00" waitingCount="5" stopTime="0.00" timeLoss="122.56" rerouteNo="0" devices="tripinfo_f_0_1.1" vType="type1" speedFactor="0.82" vaporized=""/>
    <tripinfo id="f_0_3.6" depart="50.00" departLane="np3_nt3_0" departPos="32.02" departSpeed="0.00" departDelay="0.91" arrival="258.00" arrivalLane="nt14_np11_0" arrivalPos="75.00" arrivalSpeed="8.24" duration="208.00" routeLength="919.07" waitingTime="91.00" waitingCount="5" stopTime="0.00" timeLoss="122.75" rerouteNo="0" devices="tripinfo_f_0_3.6" vType="type1" speedFactor="0.90" vaporized=""/>
    <tripinfo id="f_0_3.7" depart="58.00" departLane="np3_nt3_0" departPos="24.89" departSpeed="0.00" departDelay="0.73" arrival="260.00" arrivalLane="nt14_np11_0" arrivalPos="75.00" arrivalSpeed="9.70" duration="202.00" routeLength="926.20" waitingTime="80.00" waitingCount="4" stopTime="0.00" timeLoss="123.23" rerouteNo="0" devices="tripinfo_f_0_3.7" vType="type1" speedFactor="0.99" vaporized=""/>
    <tripinfo id="f_0_1.2" depart="28.00" departLane="np16_nt1_0" departPos="8.43" departSpeed="0.00" departDelay="0.73" arrival="269.00" arrivalLane="nt16_np8_0" arrivalPos="75.00" arrivalSpeed="18.63" duration="241.00" routeLength="1339.45" waitingTime="85.00" waitingCount="9" stopTime="0.00" timeLoss="142.73" rerouteNo="0" devices="tripinfo_f_0_1.2" vType="type1" speedFactor="0.95" vaporized=""/>
    <tripinfo id="f_0_0.4" depart="55.00" departLane="np13_nt13_0" departPos="57.71" departSpeed="0.00" departDelay="0.46" arrival="273.00" arrivalLane="nt4_np5_0" arrivalPos="75.00" arrivalSpeed="20.42" duration="218.00" routeLength="1290.18" waitingTime="97.00" waitingCount="8" stopTime="0.00" timeLoss="134.20" rerouteNo="0" devices="tripinfo_f_0_0.4" vType="type1" speedFactor="1.07" vaporized=""/>
    <tripinfo id="f_0_2.7" depart="58.00" departLane="np2_nt2_0" departPos="14.68" departSpeed="0.00" departDelay="0.73" arrival="276.00" arrivalLane="nt15_np10_0" arrivalPos="75.00" arrivalSpeed="10.72" duration="218.00" routeLength="936.40" waitingTime="67.00" waitingCount="6" stopTime="0.00" timeLoss="146.65" rerouteNo="0" devices="tripinfo_f_0_2.7" vType="type1" speedFactor="1.10" vaporized=""/>
    <tripinfo id="f_0_3.8" depart="66.00" departLane="np3_nt3_0" departPos="9.99" departSpeed="0.00" departDelay="0.54" arrival="281.00" arrivalLane="nt14_np11_0" arrivalPos="75.00" arrivalSpeed="11.38" duration="215.00" routeLength="941.10" waitingTime="95.00" waitingCount="6" stopTime="0.00" timeLoss="142.57" rerouteNo="0" devices="tripinfo_f_0_3.8" vType="type1" speedFactor="1.08" vaporized=""/>
    <tripinfo id="f_0_1.3" depart="41.00" departLane="np16_nt1_0" departPos="28.64" departSpeed="0.00" departDelay="0.09" arrival="284.00" arrivalLane="nt16_np8_0" arrivalPos="75.00" arrivalSpeed="13.99" duration="243.00" routeLength="1319.24" waitingTime="71.00" waitingCount="6" stopTime="0.00" timeLoss="120.48" rerouteNo="0" devices="tripinfo_f_0_1.3" vType="type1" speedFactor="0.75" vaporized=""/>
    <tripinfo id="f_0_3.9" depart="74.00" departLane="np3_nt3_0" departPos="31.60" departSpeed="0.00" departDelay="0.36" arrival="284.00" arrivalLane="nt14_np11_0" arrivalPos="75.00" arrivalSpeed="10.59" duration="210.00" routeLength="919.49" waitingTime="88.00" waitingCount="5" stopTime="0.00" timeLoss="134.07" rerouteNo="0" devices="tripinfo_f_0_3.9" vType="type1" speedFactor="1.03" vaporized=""/>
    <tripinfo id="f_0_2.8" depart="66.00" departLane="np2_nt2_0" departPos="13.28" departSpeed="0.00" departDelay="0.54" arrival="290.00" arrivalLane="nt15_np10_0" arrivalPos="75.00" arrivalSpeed="8.25" duration="224.00" routeLength="937.80" waitingTime="83.00" waitingCount="6" stopTime="0.00" timeLoss="127.61" rerouteNo="0" devices="tripinfo_f_0_2.8" vType="type1" speedFactor="0.82" vaporized=""/>
    <tripinfo id="f_0_3.10" depart="82.00" departLane="np3_nt3_0" departPos="14.45" departSpeed="0.00" departDelay="0.18" arrival="306.00" arrivalLane="nt14_np11_0" arrivalPos="75.00" arrivalSpeed="11.96" duration="224.00" routeLength="936.64" waitingTime="105.00" waitingCount="8" stopTime="0.00" timeLoss="154.99" rerouteNo="0" devices="tripinfo_f_0_3.10" vType="type1" speedFactor="1.14" vaporized=""/>
    <tripinfo id="f_0_0.5" depart="69.00" departLane="np13_nt13_0" departPos="13.96" departSpeed="0.00" departDelay="0.82" arrival="309.00" arrivalLane="nt4_np5_0" arrivalPos="75.00" arrivalSpeed="19.41" duration="240.00" routeLength="1333.93" waitingTime="101.00" waitingCount="8" stopTime="0.00" timeLoss="146.87" rerouteNo="0" devices="tripinfo_f_0_0.5" vType="type1" speedFactor="1.00" vaporized=""/>
    <tripinfo id="f_0_3.11" depart="90.00" departLane="np3_nt3_0" departPos="2.99" departSpeed="0.00" departDelay="0.00" arrival="309.00" arrivalLane="nt14_np11_0" arrivalPos="75.00" arrivalSpeed="11.55" duration="219.00" routeLength="948.10" waitingTime="92.00" waitingCount="9" stopTime="0.00" timeLoss="144.74" rerouteNo="0" devices="tripinfo_f_0_3.11" vType="type1" speedFactor="1.08" vaporized=""/>
    <tripinfo id="f_0_0.6" depart="82.00" departLane="np13_nt13_0" departPos="32.83" departSpeed="0.00" departDelay="0.18" arrival="310.00" arrivalLane="nt4_np5_0" arrivalPos="75.00" arrivalSpeed="16.55" duration="228.00" routeLength="1315.06" waitingTime="87.00" waitingCount="7" stopTime="0.00" timeLoss="127.15" rerouteNo="0" devices="tripinfo_f_0_0.6" vType="type1" speedFactor="0.90" vaporized=""/>
    <tripinfo id="f_0_3.12" depart="99.00" departLane="np3_nt3_0" departPos="2.31" departSpeed="0.00" departDelay="0.82" arrival="311.00" arrivalLane="nt14_np11_0" arrivalPos="75.00" arrivalSpeed="12.08" duration="212.00" routeLength="948.78" waitingTime="82.00" waitingCount="7" stopTime="0.00" timeLoss="139.44" rerouteNo="0" devices="tripinfo_f_0_3.12" vType="type1" speedFactor="1.11" vaporized=""/>
    <tripinfo id="f_0_3.13" depart="107.00" departLane="np3_nt3_0" departPos="0.00" departSpeed="0.00" departDelay="0.63" arrival="315.00" arrivalLane="nt14_np11_0" arrivalPos="75.00" arrivalSpeed="10.33" duration="208.00" routeLength="951.09" waitingTime="60.00" waitingCount="6" stopTime="0.00" timeLoss="122.50" rerouteNo="0" devices="tripinfo_f_0_3.13" vType="type1" speedFactor="0.95" vaporized=""/>
    <tripinfo id="f_0_0.7" depart="96.00" departLane="np13_nt13_0" departPos="11.06" departSpeed="0.00" departDelay="0.55" arrival="318.00" arrivalLane="nt4_np5_0" arrivalPos="75.00" arrivalSpeed="18.63" duration="222.00" routeLength="1336.83" waitingTime="69.00" waitingCount="7" stopTime="0.00" timeLoss="125.31" rerouteNo="0" devices="tripinfo_f_0_0.7" vType="type1" speedFactor="0.96" vaporized=""/>
    <tripinfo id="f_0_0.8" depart="110.00" departLane="np13_nt13_0" departPos="31.89" departSpeed="0.00" departDelay="0.91" arrival="320.00" arrivalLane="nt4_np5_0" arrivalPos="75.00" arrivalSpeed="17.71" duration="210.00" routeLength="1316.00" waitingTime="57.00" waitingCount="7" stopTime="0.00" timeLoss="107.75" rerouteNo="0" devices="tripinfo_f_0_0.8" vType="type1" speedFactor="0.90" vaporized=""/>
    <tripinfo id="f_0_3.14" depart="129.00" departLane="np3_nt3_0" departPos="0.00" departSpeed="0.00" departDelay="14.45" arrival="344.00" arrivalLane="nt14_np11_0" arrivalPos="75.00" arrivalSpeed="7.99" duration="215.00" routeLength="951.09" waitingTime="72.00" waitingCount="7" stopTime="0.00" timeLoss="122.77" rerouteNo="0" devices="tripinfo_f_0_3.14" vType="type1" speedFactor="0.87" vaporized=""/>
    <tripinfo id="f_0_3.15" depart="142.00" departLane="np3_nt3_0" departPos="0.00" departSpeed="0.00" departDelay="19.27" arrival="346.00" arrivalLane="nt14_np11_0" arrivalPos="75.00" arrivalSpeed="11.01" duration="204.00" routeLength="951.09" waitingTime="75.00" waitingCount="8" stopTime="0.00" timeLoss="129.00" rerouteNo="0" devices="tripinfo_f_0_3.15" vType="type1" speedFactor="1.07" vaporized=""/>
    <tripinfo id="f_0_0.9" depart="123.00" departLane="np13_nt13_0" departPos="7.55" departSpeed="0.00" departDelay="0.28" arrival="348.00" arrivalLane="nt4_np5_0" arrivalPos="75.00" arrivalSpeed="17.36" duration="225.00" routeLength="1340.34" waitingTime="67.00" waitingCount="9" stopTime="0.00" timeLoss="121.90" rerouteNo="0" devices="tripinfo_f_0_0.9" vType="type1" speedFactor="0.90" vaporized=""/>
    <tripinfo id="f_0_3.16" depart="145.00" departLane="np3_nt3_0" departPos="0.00" departSpeed="0.00" departDelay="14.09" arrival="348.00" arrivalLane="nt14_np11_0" arrivalPos="75.00" arrivalSpeed="10.06" duration="203.00" routeLength="951.09" waitingTime="85.00" waitingCount="6" stopTime="0.00" timeLoss="128.59" rerouteNo="0" devices="tripinfo_f_0_3.16" vType="type1" speedFactor="1.08" vaporized=""/>
    <tripinfo id="f_0_0.10" depart="137.00" departLane="np13_nt13_0" departPos="51.29" departSpeed="0.00" departDelay="0.64" arrival="350.00" arrivalLane="nt4_np5_0" arrivalPos="75.00" arrivalSpeed="16.59" duration="213.00" routeLength="1296.60" waitingTime="54.00" waitingCount="9" stopTime="0.00" timeLoss="107.86" rerouteNo="0" devices="tripinfo_f_0_0.10" vType="type1" speedFactor="0.86" vaporized=""/>
    <tripinfo id="f_0_3.17" depart="147.00" departLane="np3_nt3_0" departPos="0.00" departSpeed="0.00" departDelay="7.91" arrival="350.00" arrivalLane="nt14_np11_0" arrivalPos="75.00" arrivalSpeed="10.90" duration="203.00" routeLength="951.09" waitingTime="79.00" waitingCount="4" stopTime="0.00" timeLoss="128.44" rerouteNo="0" devices="tripinfo_f_0_3.17" vType="type1" speedFactor="1.08" vaporized=""/>
    <tripinfo id="f_0_0.11" depart="150.00" departLane="np13_nt13_0" departPos="61.65" departSpeed="0.00" departDelay="0.00" arrival="358.00" arrivalLane="nt4_np5_0" arrivalPos="75.00" arrivalSpeed="19.09" duration="208.00" routeLength="1286.24" waitingTime="81.00" waitingCount="8" stopTime="0.00" timeLoss="117.02" rerouteNo="0" devices="tripinfo_f_0_0.11" vType="type1" speedFactor="0.99" vaporized=""/>
    <tripinfo id="f_0_0.12" depart="164.00" departLane="np13_nt13_0" departPos="27.43" departSpeed="0.00" departDelay="0.37" arrival="360.00" arrivalLane="nt4_np5_0" arrivalPos="75.00" arrivalSpeed="18.45" duration="196.00" routeLength="1320.46" waitingTime="67.00" waitingCount="5" stopTime="0.00" timeLoss="103.15" rerouteNo="0" devices="tripinfo_f_0_0.12" vType="type1" speedFactor="0.99" vaporized=""/>
    <tripinfo id="f_0_2.9" depart="74.00" departLane="np2_nt2_0" departPos="8.34" departSpeed="0.00" departDelay="0.36" arrival="404.00" arrivalLane="nt15_np10_0" arrivalPos="75.00" arrivalSpeed="7.07" duration="330.00" routeLength="942.74" waitingTime="188.00" waitingCount="7" stopTime="0.00" timeLoss="237.43" rerouteNo="0" devices="tripinfo_f_0_2.9" vType="type1" speedFactor="0.85" vaporized=""/>
    <tripinfo id="f_0_2.10" depart="82.00" departLane="np2_nt2_0" departPos="25.61" departSpeed="0.00" departDelay="0.18" arrival="406.00" arrivalLane="nt15_np10_0" arrivalPos="75.00" arrivalSpeed="8.60" duration="324.00" routeLength="925.47" waitingTime="180.00" waitingCount="7" stopTime="0.00" timeLoss="241.61" rerouteNo="0" devices="tripinfo_f_0_2.10" vType="type1" speedFactor="0.95" vaporized=""/>
    <tripinfo id="f_0_1.11" depart="150.00" departLane="np16_nt1_0" departPos="52.04" departSpeed="0.00" departDelay="0.00" arrival="416.00" arrivalLane="nt16_np8_0" arrivalPos="75.00" arrivalSpeed="22.63" duration="266.00" routeLength="1295.84" waitingTime="123.00" waitingCount="7" stopTime="0.00" timeLoss="185.97" rerouteNo="0" devices="tripinfo_f_0_1.11" vType="type1" speedFactor="1.14" vaporized=""/>
    <tripinfo id="f_0_0.13" depart="178.00" departLane="np13_nt13_0" departPos="34.74" departSpeed="0.00" departDelay="0.73" arrival="419.00" arrivalLane="nt4_np5_0" arrivalPos="75.00" arrivalSpeed="14.37" duration="241.00" routeLength="1313.15" waitingTime="84.00" waitingCount="6" stopTime="0.00" timeLoss="126.57" rerouteNo="0" devices="tripinfo_f_0_0.13" vType="type1" speedFactor="0.80" vaporized=""/>
    <tripinfo id="f_0_0.14" depart="191.00" departLane="np13_nt13_0" departPos="25.13" departSpeed="0.00" departDelay="0.10" arrival="420.00" arrivalLane="nt4_np5_0" arrivalPos="75.00" arrivalSpeed="18.27" duration="229.00" routeLength="1322.76" waitingTime="76.00" waitingCount="6" stopTime="0.00" timeLoss="135.17" rerouteNo="0" devices="tripinfo_f_0_0.14" vType="type1" speedFactor="0.98" vaporized=""/>
    <tripinfo id="f_0_0.15" depart="205.00" departLane="np13_nt13_0" departPos="13.80" departSpeed="0.00" departDelay="0.46" arrival="434.00" arrivalLane="nt4_np5_0" arrivalPos="75.00" arrivalSpeed="17.77" duration="229.00" routeLength="1334.09" waitingTime="80.00" waitingCount="6" stopTime="0.00" timeLoss="126.78" rerouteNo="0" devices="tripinfo_f_0_0.15" vType="type1" speedFactor="0.91" vaporized=""/>
    <tripinfo id="f_0_0.16" depart="219.00" departLane="np13_nt13_0" departPos="15.27" departSpeed="0.00" departDelay="0.82" arrival="435.00" arrivalLane="nt4_np5_0" arrivalPos="75.00" arrivalSpeed="20.56" duration="216.00" routeLength="1332.62" waitingTime="73.00" waitingCount="5" stopTime="0.00" timeLoss="128.03" rerouteNo="0" devices="tripinfo_f_0_0.16" vType="type1" speedFactor="1.06" vaporized=""/>
    <tripinfo id="f_0_0.17" depart="232.00" departLane="np13_nt13_0" departPos="23.28" departSpeed="0.00" departDelay="0.19" arrival="437.00" arrivalLane="nt4_np5_0" arrivalPos="75.00" arrivalSpeed="18.98" duration="205.00" routeLength="1324.61" waitingTime="62.00" waitingCount="7" stopTime="0.00" timeLoss="110.93" rerouteNo="0" devices="tripinfo_f_0_0.17" vType="type1" speedFactor="0.98" vaporized=""/>
    <tripinfo id="f_0_2.11" depart="90.00" departLane="np2_nt2_0" departPos="29.08" departSpeed="0.00" departDelay="0.00" arrival="438.00" arrivalLane="nt15_np10_0" arrivalPos="75.00" arrivalSpeed="7.68" duration="348.00" routeLength="922.00" waitingTime="185.00" waitingCount="8" stopTime="0.00" timeLoss="260.09" rerouteNo="0" devices="tripinfo_f_0_2.11" vType="type1" speedFactor="0.88" vaporized=""/>
    <tripinfo id="f_0_3.18" depart="151.00" departLane="np3_nt3_0" departPos="0.00" departSpeed="0.00" departDelay="3.72" arrival="438.00" arrivalLane="nt14_np11_0" arrivalPos="75.00" arrivalSpeed="9.53" duration="287.00" routeLength="951.09" waitingTime="151.00" waitingCount="7" stopTime="0.00" timeLoss="198.87" rerouteNo="0" devices="tripinfo_f_0_3.18" vType="type1" speedFactor="0.91" vaporized=""/>
    <tripinfo id="f_0_0.18" depart="246.00" departLane="np13_nt13_0" departPos="31.65" departSpeed="0.00" departDelay="0.55" arrival="438.00" arrivalLane="nt4_np5_0" arrivalPos="75.00" arrivalSpeed="20.09" duration="192.00" routeLength="1316.24" waitingTime="46.00" waitingCount="6" stopTime="0.00" timeLoss="102.88" rerouteNo="0" devices="tripinfo_f_0_0.18" vType="type1" speedFactor="1.03" vaporized=""/>
    <tripinfo id="f_0_2.12" depart="99.00" departLane="np2_nt2_0" departPos="18.15" departSpeed="0.00" departDelay="0.82" arrival="446.00" arrivalLane="nt15_np10_0" arrivalPos="75.00" arrivalSpeed="10.45" duration="347.00" routeLength="932.93" waitingTime="189.00" waitingCount="8" stopTime="0.00" timeLoss="272.76" rerouteNo="0" devices="tripinfo_f_0_2.12" vType="type1" speedFactor="1.05" vaporized=""/>
    <tripinfo id="f_0_3.19" depart="157.00" departLane="np3_nt3_0" departPos="0.00" departSpeed="0.00" departDelay="1.54" arrival="453.00" arrivalLane="nt14_np11_0" arrivalPos="75.00" arrivalSpeed="9.37" duration="296.00" routeLength="951.09" waitingTime="155.00" waitingCount="9" stopTime="0.00" timeLoss="211.44" rerouteNo="0" devices="tripinfo_f_0_3.19" vType="type1" speedFactor="0.95" vaporized=""/>
    <tripinfo id="f_0_0.19" depart="260.00" departLane="np13_nt13_0" departPos="43.24" departSpeed="0.00" departDelay="0.92" arrival="453.00" arrivalLane="nt4_np5_0" arrivalPos="75.00" arrivalSpeed="16.62" duration="193.00" routeLength="1304.65" waitingTime="42.00" waitingCount="6" stopTime="0.00" timeLoss="87.46" rerouteNo="0" devices="tripinfo_f_0_0.19" vType="type1" speedFactor="0.86" vaporized=""/>
    <tripinfo id="f_0_0.20" depart="273.00" departLane="np13_nt13_0" departPos="36.54" departSpeed="0.00" departDelay="0.28" arrival="455.00" arrivalLane="nt4_np5_0" arrivalPos="75.00" arrivalSpeed="20.70" duration="182.00" routeLength="1311.35" waitingTime="45.00" waitingCount="7" stopTime="0.00" timeLoss="95.90" rerouteNo="0" devices="tripinfo_f_0_0.20" vType="type1" speedFactor="1.06" vaporized=""/>
    <tripinfo id="f_0_3.20" depart="164.00" departLane="np3_nt3_0" departPos="3.50" departSpeed="0.00" departDelay="0.36" arrival="470.00" arrivalLane="nt14_np11_0" arrivalPos="75.00" arrivalSpeed="13.80" duration="306.00" routeLength="947.59" waitingTime="164.00" waitingCount="10" stopTime="0.00" timeLoss="246.47" rerouteNo="0" devices="tripinfo_f_0_3.20" vType="type1" speedFactor="1.35" vaporized=""/>
    <tripinfo id="f_0_1.4" depart="55.00" departLane="np16_nt1_0" departPos="14.25" departSpeed="0.00" departDelay="0.46" arrival="479.00" arrivalLane="nt16_np8_0" arrivalPos="75.00" arrivalSpeed="16.50" duration="424.00" routeLength="1333.63" waitingTime="235.00" waitingCount="12" stopTime="0.00" timeLoss="319.08" rerouteNo="0" devices="tripinfo_f_0_1.4" vType="type1" speedFactor="0.89" vaporized=""/>
    <tripinfo id="f_0_1.12" depart="164.00" departLane="np16_nt1_0" departPos="25.53" departSpeed="0.00" departDelay="0.37" arrival="493.00" arrivalLane="nt16_np8_0" arrivalPos="75.00" arrivalSpeed="22.71" duration="329.00" routeLength="1322.35" waitingTime="177.00" waitingCount="11" stopTime="0.00" timeLoss="252.49" rerouteNo="0" devices="tripinfo_f_0_1.12" vType="type1" speedFactor="1.21" vaporized=""/>
    <tripinfo id="f_0_1.5" depart="69.00" departLane="np16_nt1_0" departPos="5.89" departSpeed="0.00" departDelay="0.82" arrival="495.00" arrivalLane="nt16_np8_0" arrivalPos="75.00" arrivalSpeed="19.98" duration="426.00" routeLength="1341.99" waitingTime="226.00" waitingCount="14" stopTime="0.00" timeLoss="332.63" rerouteNo="0" devices="tripinfo_f_0_1.5" vType="type1" speedFactor="1.00" vaporized=""/>
    <tripinfo id="f_0_1.6" depart="82.00" departLane="np16_nt1_0" departPos="16.62" departSpeed="0.00" departDelay="0.18" arrival="496.00" arrivalLane="nt16_np8_0" arrivalPos="75.00" arrivalSpeed="18.61" duration="414.00" routeLength="1331.26" waitingTime="206.00" waitingCount="14" stopTime="0.00" timeLoss="321.25" rerouteNo="0" devices="tripinfo_f_0_1.6" vType="type1" speedFactor="0.99" vaporized=""/>
    <tripinfo id="f_0_1.7" depart="96.00" departLane="np16_nt1_0" departPos="41.80" departSpeed="0.00" departDelay="0.55" arrival="498.00" arrivalLane="nt16_np8_0" arrivalPos="75.00" arrivalSpeed="18.26" duration="402.00" routeLength="1306.08" waitingTime="178.00" waitingCount="12" stopTime="0.00" timeLoss="305.21" rerouteNo="0" devices="tripinfo_f_0_1.7" vType="type1" speedFactor="0.95" vaporized=""/>
    <tripinfo id="f_0_0.21" depart="287.00" departLane="np13_nt13_0" departPos="22.72" departSpeed="0.00" departDelay="0.64" arrival="502.00" arrivalLane="nt4_np5_0" arrivalPos="75.00" arrivalSpeed="16.15" duration="215.00" routeLength="1325.17" waitingTime="66.00" waitingCount="4" stopTime="0.00" timeLoss="110.05" rerouteNo="0" devices="tripinfo_f_0_0.21" vType="type1" speedFactor="0.88" vaporized=""/>
    <tripinfo id="f_1_0.0" depart="300.00" departLane="np13_nt13_0" departPos="56.77" departSpeed="0.00" departDelay="0.00" arrival="503.00" arrivalLane="nt4_np5_0" arrivalPos="75.00" arrivalSpeed="18.72" duration="203.00" routeLength="1291.12" waitingTime="81.00" waitingCount="5" stopTime="0.00" timeLoss="116.92" rerouteNo="0" devices="tripinfo_f_1_0.0" vType="type1" speedFactor="1.05" vaporized=""/>
    <tripinfo id="f_0_0.22" depart="300.00" departLane="np13_nt13_0" departPos="27.80" departSpeed="0.00" departDelay="0.01" arrival="505.00" arrivalLane="nt4_np5_0" arrivalPos="75.00" arrivalSpeed="22.06" duration="205.00" routeLength="1320.09" waitingTime="76.00" waitingCount="5" stopTime="0.00" timeLoss="121.70" rerouteNo="0" devices="tripinfo_f_0_0.22" vType="type1" speedFactor="1.11" vaporized=""/>
    <tripinfo id="f_0_3.21" depart="172.00" departLane="np3_nt3_0" departPos="4.47" departSpeed="0.00" departDelay="0.18" arrival="508.00" arrivalLane="nt14_np11_0" arrivalPos="75.00" arrivalSpeed="9.71" duration="336.00" routeLength="946.62" waitingTime="184.00" waitingCount="9" stopTime="0.00" timeLoss="248.55" rerouteNo="0" devices="tripinfo_f_0_3.21" vType="type1" speedFactor="0.91" vaporized=""/>
    <tripinfo id="f_0_1.14" depart="191.00" departLane="np16_nt1_0" departPos="54.55" departSpeed="0.00" departDelay="0.10" arrival="509.00" arrivalLane="nt16_np8_0" arrivalPos="75.00" arrivalSpeed="15.54" duration="318.00" routeLength="1293.33" waitingTime="130.00" waitingCount="10" stopTime="0.00" timeLoss="207.71" rerouteNo="0" devices="tripinfo_f_0_1.14" vType="type1" speedFactor="0.82" vaporized=""/>
    <tripinfo id="f_0_3.22" depart="180.00" departLane="np3_nt3_0" departPos="2.64" departSpeed="0.00" departDelay="0.00" arrival="510.00" arrivalLane="nt14_np11_0" arrivalPos="75.00" arrivalSpeed="8.82" duration="330.00" routeLength="948.45" waitingTime="175.00" waitingCount="10" stopTime="0.00" timeLoss="252.58" rerouteNo="0" devices="tripinfo_f_0_3.22" vType="type1" speedFactor="1.02" vaporized=""/>