<?xml version="1.0" encoding="UTF-8"?>

<!-- generated on 2023-08-30 12:34:27 by Eclipse SUMO libsumo Version 1.18.0
<configuration xmlns:xsi="http://www.w3.org/2001/XMLSchema-instance" xsi:noNamespaceSchemaLocation="http://sumo.dlr.de/xsd/libsumoConfiguration.xsd">

    <input>
        <net-file value="/home/stefan/RESCO/./environments/arterial4x4/arterial4x4.net.xml"/>
        <route-files value="/home/stefan/RESCO/./environments/arterial4x4/arterial4x4_43.rou.xml"/>
    </input>

    <output>
        <tripinfo-output value="/home/stefan/results/ITRPO-tr0-arterial4x4-0-drq_norm-wait_norm/tripinfo_43.xml"/>
        <tripinfo-output.write-unfinished value="true"/>
    </output>

    <processing>
        <time-to-teleport value="-1"/>
    </processing>

    <report>
        <no-warnings value="True"/>
        <no-step-log value="True"/>
    </report>

    <random_number>
        <random value="true"/>
    </random_number>

</configuration>
-->

<tripinfos xmlns:xsi="http://www.w3.org/2001/XMLSchema-instance" xsi:noNamespaceSchemaLocation="http://sumo.dlr.de/xsd/tripinfo_file.xsd">
    <tripinfo id="f_0_0.0" depart="0.00" departLane="np13_nt13_0" departPos="39.61" departSpeed="0.00" departDelay="0.00" arrival="188.00" arrivalLane="nt4_np5_0" arrivalPos="75.00" arrivalSpeed="19.53" duration="188.00" routeLength="1308.28" waitingTime="76.00" waitingCount="2" stopTime="0.00" timeLoss="103.37" rerouteNo="0" devices="tripinfo_f_0_0.0" vType="type1" speedFactor="1.08" vaporized=""/>
    <tripinfo id="f_0_0.1" depart="14.00" departLane="np13_nt13_0" departPos="33.92" departSpeed="0.00" departDelay="0.36" arrival="190.00" arrivalLane="nt4_np5_0" arrivalPos="75.00" arrivalSpeed="19.00" duration="176.00" routeLength="1313.97" waitingTime="55.00" waitingCount="4" stopTime="0.00" timeLoss="89.77" rerouteNo="0" devices="tripinfo_f_0_0.1" vType="type1" speedFactor="1.06" vaporized=""/>
    <tripinfo id="f_0_3.0" depart="0.00" departLane="np3_nt3_0" departPos="21.98" departSpeed="0.00" departDelay="0.00" arrival="192.00" arrivalLane="nt14_np11_0" arrivalPos="75.00" arrivalSpeed="9.75" duration="192.00" routeLength="929.11" waitingTime="83.00" waitingCount="5" stopTime="0.00" timeLoss="114.56" rerouteNo="0" devices="tripinfo_f_0_3.0" vType="type1" speedFactor="1.00" vaporized=""/>
    <tripinfo id="f_0_0.2" depart="28.00" departLane="np13_nt13_0" departPos="15.54" departSpeed="0.00" departDelay="0.73" arrival="234.00" arrivalLane="nt4_np5_0" arrivalPos="75.00" arrivalSpeed="17.82" duration="206.00" routeLength="1332.35" waitingTime="67.00" waitingCount="6" stopTime="0.00" timeLoss="105.13" rerouteNo="0" devices="tripinfo_f_0_0.2" vType="type1" speedFactor="0.92" vaporized=""/>
    <tripinfo id="f_0_0.3" depart="41.00" departLane="np13_nt13_0" departPos="21.12" departSpeed="0.00" departDelay="0.09" arrival="235.00" arrivalLane="nt4_np5_0" arrivalPos="75.00" arrivalSpeed="21.01" duration="194.00" routeLength="1326.77" waitingTime="72.00" waitingCount="7" stopTime="0.00" timeLoss="109.68" rerouteNo="0" devices="tripinfo_f_0_0.3" vType="type1" speedFactor="1.09" vaporized=""/>
    <tripinfo id="f_0_2.0" depart="0.00" departLane="np2_nt2_0" departPos="53.81" departSpeed="0.00" departDelay="0.00" arrival="237.00" arrivalLane="nt15_np10_0" arrivalPos="75.00" arrivalSpeed="10.91" duration="237.00" routeLength="897.27" waitingTime="139.00" waitingCount="5" stopTime="0.00" timeLoss="164.99" rerouteNo="0" devices="tripinfo_f_0_2.0" vType="type1" speedFactor="1.04" vaporized=""/>
    <tripinfo id="f_0_0.4" depart="55.00" departLane="np13_nt13_0" departPos="38.69" departSpeed="0.00" departDelay="0.46" arrival="237.00" arrivalLane="nt4_np5_0" arrivalPos="75.00" arrivalSpeed="17.32" duration="182.00" routeLength="1309.20" waitingTime="44.00" waitingCount="6" stopTime="0.00" timeLoss="82.11" rerouteNo="0" devices="tripinfo_f_0_0.4" vType="type1" speedFactor="0.92" vaporized=""/>
    <tripinfo id="f_0_3.1" depart="9.00" departLane="np3_nt3_0" departPos="9.95" departSpeed="0.00" departDelay="0.82" arrival="241.00" arrivalLane="nt14_np11_0" arrivalPos="75.00" arrivalSpeed="11.74" duration="232.00" routeLength="941.14" waitingTime="122.00" waitingCount="8" stopTime="0.00" timeLoss="161.80" rerouteNo="0" devices="tripinfo_f_0_3.1" vType="type1" speedFactor="1.12" vaporized=""/>
    <tripinfo id="f_0_0.5" depart="69.00" departLane="np13_nt13_0" departPos="65.38" departSpeed="0.00" departDelay="0.82" arrival="248.00" arrivalLane="nt4_np5_0" arrivalPos="75.00" arrivalSpeed="17.84" duration="179.00" routeLength="1282.51" waitingTime="48.00" waitingCount="6" stopTime="0.00" timeLoss="86.36" rerouteNo="0" devices="tripinfo_f_0_0.5" vType="type1" speedFactor="0.96" vaporized=""/>
    <tripinfo id="f_0_3.2" depart="17.00" departLane="np3_nt3_0" departPos="44.95" departSpeed="0.00" departDelay="0.64" arrival="251.00" arrivalLane="nt14_np11_0" arrivalPos="75.00" arrivalSpeed="9.46" duration="234.00" routeLength="906.14" waitingTime="118.00" waitingCount="8" stopTime="0.00" timeLoss="160.27" rerouteNo="0" devices="tripinfo_f_0_3.2" vType="type1" speedFactor="1.03" vaporized=""/>
    <tripinfo id="f_0_2.1" depart="9.00" departLane="np2_nt2_0" departPos="52.10" departSpeed="0.00" departDelay="0.82" arrival="252.00" arrivalLane="nt15_np10_0" arrivalPos="75.00" arrivalSpeed="11.16" duration="243.00" routeLength="898.98" waitingTime="143.00" waitingCount="5" stopTime="0.00" timeLoss="174.74" rerouteNo="0" devices="tripinfo_f_0_2.1" vType="type1" speedFactor="1.11" vaporized=""/>
    <tripinfo id="f_0_3.3" depart="25.00" departLane="np3_nt3_0" departPos="40.45" departSpeed="0.00" departDelay="0.45" arrival="254.00" arrivalLane="nt14_np11_0" arrivalPos="75.00" arrivalSpeed="9.38" duration="229.00" routeLength="910.64" waitingTime="105.00" waitingCount="8" stopTime="0.00" timeLoss="154.27" rerouteNo="0" devices="tripinfo_f_0_3.3" vType="type1" speedFactor="1.03" vaporized=""/>
    <tripinfo id="f_0_3.4" depart="33.00" departLane="np3_nt3_0" departPos="8.92" departSpeed="0.00" departDelay="0.27" arrival="267.00" arrivalLane="nt14_np11_0" arrivalPos="75.00" arrivalSpeed="9.95" duration="234.00" routeLength="942.17" waitingTime="114.00" waitingCount="7" stopTime="0.00" timeLoss="161.92" rerouteNo="0" devices="tripinfo_f_0_3.4" vType="type1" speedFactor="1.09" vaporized=""/>
    <tripinfo id="f_0_1.0" depart="0.00" departLane="np16_nt1_0" departPos="21.20" departSpeed="0.00" departDelay="0.00" arrival="268.00" arrivalLane="nt16_np8_0" arrivalPos="75.00" arrivalSpeed="20.25" duration="268.00" routeLength="1326.68" waitingTime="134.00" waitingCount="8" stopTime="0.00" timeLoss="183.70" rerouteNo="0" devices="tripinfo_f_0_1.0" vType="type1" speedFactor="1.10" vaporized=""/>
    <tripinfo id="f_0_3.5" depart="41.00" departLane="np3_nt3_0" departPos="25.75" departSpeed="0.00" departDelay="0.09" arrival="282.00" arrivalLane="nt14_np11_0" arrivalPos="75.00" arrivalSpeed="10.32" duration="241.00" routeLength="925.34" waitingTime="124.00" waitingCount="9" stopTime="0.00" timeLoss="164.79" rerouteNo="0" devices="tripinfo_f_0_3.5" vType="type1" speedFactor="1.02" vaporized=""/>
    <tripinfo id="f_0_2.2" depart="17.00" departLane="np2_nt2_0" departPos="48.07" departSpeed="0.00" departDelay="0.64" arrival="283.00" arrivalLane="nt15_np10_0" arrivalPos="75.00" arrivalSpeed="8.87" duration="266.00" routeLength="903.01" waitingTime="134.00" waitingCount="9" stopTime="0.00" timeLoss="183.76" rerouteNo="0" devices="tripinfo_f_0_2.2" vType="type1" speedFactor="0.92" vaporized=""/>
    <tripinfo id="f_0_3.6" depart="50.00" departLane="np3_nt3_0" departPos="47.64" departSpeed="0.00" departDelay="0.91" arrival="285.00" arrivalLane="nt14_np11_0" arrivalPos="75.00" arrivalSpeed="8.34" duration="235.00" routeLength="903.45" waitingTime="110.00" waitingCount="7" stopTime="0.00" timeLoss="154.41" rerouteNo="0" devices="tripinfo_f_0_3.6" vType="type1" speedFactor="0.94" vaporized=""/>
    <tripinfo id="f_0_3.7" depart="58.00" departLane="np3_nt3_0" departPos="10.85" departSpeed="0.00" departDelay="0.73" arrival="287.00" arrivalLane="nt14_np11_0" arrivalPos="75.00" arrivalSpeed="11.04" duration="229.00" routeLength="940.24" waitingTime="109.00" waitingCount="9" stopTime="0.00" timeLoss="161.19" rerouteNo="0" devices="tripinfo_f_0_3.7" vType="type1" speedFactor="1.17" vaporized=""/>
    <tripinfo id="f_0_3.8" depart="66.00" departLane="np3_nt3_0" departPos="12.92" departSpeed="0.00" departDelay="0.54" arrival="288.00" arrivalLane="nt14_np11_0" arrivalPos="75.00" arrivalSpeed="10.36" duration="222.00" routeLength="938.17" waitingTime="99.00" waitingCount="9" stopTime="0.00" timeLoss="150.12" rerouteNo="0" devices="tripinfo_f_0_3.8" vType="type1" speedFactor="1.09" vaporized=""/>
    <tripinfo id="f_0_3.9" depart="74.00" departLane="np3_nt3_0" departPos="21.22" departSpeed="0.00" departDelay="0.36" arrival="328.00" arrivalLane="nt14_np11_0" arrivalPos="75.00" arrivalSpeed="8.97" duration="254.00" routeLength="929.87" waitingTime="122.00" waitingCount="9" stopTime="0.00" timeLoss="175.58" rerouteNo="0" devices="tripinfo_f_0_3.9" vType="type1" speedFactor="1.00" vaporized=""/>
    <tripinfo id="f_0_0.6" depart="82.00" departLane="np13_nt13_0" departPos="46.29" departSpeed="0.00" departDelay="0.18" arrival="328.00" arrivalLane="nt4_np5_0" arrivalPos="75.00" arrivalSpeed="16.01" duration="246.00" routeLength="1301.60" waitingTime="111.00" waitingCount="5" stopTime="0.00" timeLoss="146.20" rerouteNo="0" devices="tripinfo_f_0_0.6" vType="type1" speedFactor="0.91" vaporized=""/>
    <tripinfo id="f_0_3.10" depart="82.00" departLane="np3_nt3_0" departPos="4.79" departSpeed="0.00" departDelay="0.18" arrival="330.00" arrivalLane="nt14_np11_0" arrivalPos="75.00" arrivalSpeed="9.54" duration="248.00" routeLength="946.30" waitingTime="121.00" waitingCount="9" stopTime="0.00" timeLoss="169.10" rerouteNo="0" devices="tripinfo_f_0_3.10" vType="type1" speedFactor="1.01" vaporized=""/>
    <tripinfo id="f_0_0.7" depart="96.00" departLane="np13_nt13_0" departPos="53.84" departSpeed="0.00" departDelay="0.55" arrival="331.00" arrivalLane="nt4_np5_0" arrivalPos="75.00" arrivalSpeed="13.30" duration="235.00" routeLength="1294.05" waitingTime="83.00" waitingCount="5" stopTime="0.00" timeLoss="117.36" rerouteNo="0" devices="tripinfo_f_0_0.7" vType="type1" speedFactor="0.77" vaporized=""/>
    <tripinfo id="f_0_3.11" depart="90.00" departLane="np3_nt3_0" departPos="9.55" departSpeed="0.00" departDelay="0.00" arrival="335.00" arrivalLane="nt14_np11_0" arrivalPos="75.00" arrivalSpeed="6.48" duration="245.00" routeLength="941.54" waitingTime="98.00" waitingCount="7" stopTime="0.00" timeLoss="145.07" rerouteNo="0" devices="tripinfo_f_0_3.11" vType="type1" speedFactor="0.79" vaporized=""/>
    <tripinfo id="f_0_0.8" depart="110.00" departLane="np13_nt13_0" departPos="26.69" departSpeed="0.00" departDelay="0.91" arrival="339.00" arrivalLane="nt4_np5_0" arrivalPos="75.00" arrivalSpeed="15.94" duration="229.00" routeLength="1321.20" waitingTime="84.00" waitingCount="7" stopTime="0.00" timeLoss="116.65" rerouteNo="0" devices="tripinfo_f_0_0.8" vType="type1" speedFactor="0.82" vaporized=""/>
    <tripinfo id="f_0_0.9" depart="123.00" departLane="np13_nt13_0" departPos="27.16" departSpeed="0.00" departDelay="0.28" arrival="340.00" arrivalLane="nt4_np5_0" arrivalPos="75.00" arrivalSpeed="17.67" duration="217.00" routeLength="1320.73" waitingTime="69.00" waitingCount="6" stopTime="0.00" timeLoss="115.28" rerouteNo="0" devices="tripinfo_f_0_0.9" vType="type1" speedFactor="0.90" vaporized=""/>
    <tripinfo id="f_0_3.12" depart="99.00" departLane="np3_nt3_0" departPos="0.00" departSpeed="0.00" departDelay="0.82" arrival="355.00" arrivalLane="nt14_np11_0" arrivalPos="75.00" arrivalSpeed="7.98" duration="256.00" routeLength="951.09" waitingTime="102.00" waitingCount="11" stopTime="0.00" timeLoss="159.71" rerouteNo="0" devices="tripinfo_f_0_3.12" vType="type1" speedFactor="0.83" vaporized=""/>
    <tripinfo id="f_0_2.3" depart="25.00" departLane="np2_nt2_0" departPos="45.77" departSpeed="0.00" departDelay="0.45" arrival="356.00" arrivalLane="nt15_np10_0" arrivalPos="75.00" arrivalSpeed="10.49" duration="331.00" routeLength="905.31" waitingTime="205.00" waitingCount="10" stopTime="0.00" timeLoss="261.09" rerouteNo="0" devices="tripinfo_f_0_2.3" vType="type1" speedFactor="1.08" vaporized=""/>
    <tripinfo id="f_0_2.4" depart="33.00" departLane="np2_nt2_0" departPos="15.31" departSpeed="0.00" departDelay="0.27" arrival="359.00" arrivalLane="nt15_np10_0" arrivalPos="75.00" arrivalSpeed="11.20" duration="326.00" routeLength="935.77" waitingTime="190.00" waitingCount="10" stopTime="0.00" timeLoss="250.07" rerouteNo="0" devices="tripinfo_f_0_2.4" vType="type1" speedFactor="1.04" vaporized=""/>
    <tripinfo id="f_0_3.13" depart="109.00" departLane="np3_nt3_0" departPos="0.00" departSpeed="0.00" departDelay="2.63" arrival="362.00" arrivalLane="nt14_np11_0" arrivalPos="75.00" arrivalSpeed="11.05" duration="253.00" routeLength="951.09" waitingTime="104.00" waitingCount="11" stopTime="0.00" timeLoss="178.76" rerouteNo="0" devices="tripinfo_f_0_3.13" vType="type1" speedFactor="1.08" vaporized=""/>
    <tripinfo id="f_0_3.14" depart="127.00" departLane="np3_nt3_0" departPos="0.00" departSpeed="0.00" departDelay="12.45" arrival="364.00" arrivalLane="nt14_np11_0" arrivalPos="75.00" arrivalSpeed="11.38" duration="237.00" routeLength="951.09" waitingTime="89.00" waitingCount="8" stopTime="0.00" timeLoss="160.02" rerouteNo="0" devices="tripinfo_f_0_3.14" vType="type1" speedFactor="1.05" vaporized=""/>
    <tripinfo id="f_0_0.10" depart="137.00" departLane="np13_nt13_0" departPos="53.85" departSpeed="0.00" departDelay="0.64" arrival="364.00" arrivalLane="nt4_np5_0" arrivalPos="75.00" arrivalSpeed="16.62" duration="227.00" routeLength="1294.04" waitingTime="88.00" waitingCount="4" stopTime="0.00" timeLoss="122.37" rerouteNo="0" devices="tripinfo_f_0_0.10" vType="type1" speedFactor="0.87" vaporized=""/>
    <tripinfo id="f_0_1.1" depart="14.00" departLane="np16_nt1_0" departPos="60.12" departSpeed="0.00" departDelay="0.36" arrival="371.00" arrivalLane="nt16_np8_0" arrivalPos="75.00" arrivalSpeed="18.45" duration="357.00" routeLength="1287.76" waitingTime="187.00" waitingCount="11" stopTime="0.00" timeLoss="258.73" rerouteNo="0" devices="tripinfo_f_0_1.1" vType="type1" speedFactor="0.92" vaporized=""/>
    <tripinfo id="f_0_1.2" depart="28.00" departLane="np16_nt1_0" departPos="15.76" departSpeed="0.00" departDelay="0.73" arrival="376.00" arrivalLane="nt16_np8_0" arrivalPos="75.00" arrivalSpeed="17.97" duration="348.00" routeLength="1332.12" waitingTime="171.00" waitingCount="12" stopTime="0.00" timeLoss="246.87" rerouteNo="0" devices="tripinfo_f_0_1.2" vType="type1" speedFactor="0.92" vaporized=""/>
    <tripinfo id="f_0_2.5" depart="41.00" departLane="np2_nt2_0" departPos="48.55" departSpeed="0.00" departDelay="0.09" arrival="383.00" arrivalLane="nt15_np10_0" arrivalPos="75.00" arrivalSpeed="9.45" duration="342.00" routeLength="902.53" waitingTime="180.00" waitingCount="13" stopTime="0.00" timeLoss="263.24" rerouteNo="0" devices="tripinfo_f_0_2.5" vType="type1" speedFactor="0.97" vaporized=""/>
    <tripinfo id="f_0_2.6" depart="50.00" departLane="np2_nt2_0" departPos="0.45" departSpeed="0.00" departDelay="0.91" arrival="392.00" arrivalLane="nt15_np10_0" arrivalPos="75.00" arrivalSpeed="10.08" duration="342.00" routeLength="950.63" waitingTime="176.00" waitingCount="14" stopTime="0.00" timeLoss="261.87" rerouteNo="0" devices="tripinfo_f_0_2.6" vType="type1" speedFactor="1.00" vaporized=""/>
    <tripinfo id="f_0_3.15" depart="130.00" departLane="np3_nt3_0" departPos="0.00" departSpeed="0.00" departDelay="7.27" arrival="393.00" arrivalLane="nt14_np11_0" arrivalPos="75.00" arrivalSpeed="9.32" duration="263.00" routeLength="951.09" waitingTime="107.00" waitingCount="9" stopTime="0.00" timeLoss="179.31" rerouteNo="0" devices="tripinfo_f_0_3.15" vType="type1" speedFactor="0.95" vaporized=""/>
    <tripinfo id="f_0_2.7" depart="58.00" departLane="np2_nt2_0" departPos="17.28" departSpeed="0.00" departDelay="0.73" arrival="398.00" arrivalLane="nt15_np10_0" arrivalPos="75.00" arrivalSpeed="10.27" duration="340.00" routeLength="933.80" waitingTime="163.00" waitingCount="12" stopTime="0.00" timeLoss="262.01" rerouteNo="0" devices="tripinfo_f_0_2.7" vType="type1" speedFactor="1.01" vaporized=""/>
    <tripinfo id="f_0_0.11" depart="150.00" departLane="np13_nt13_0" departPos="52.44" departSpeed="0.00" departDelay="0.00" arrival="399.00" arrivalLane="nt4_np5_0" arrivalPos="75.00" arrivalSpeed="17.04" duration="249.00" routeLength="1295.45" waitingTime="113.00" waitingCount="6" stopTime="0.00" timeLoss="153.62" rerouteNo="0" devices="tripinfo_f_0_0.11" vType="type1" speedFactor="0.96" vaporized=""/>
    <tripinfo id="f_0_0.12" depart="164.00" departLane="np13_nt13_0" departPos="50.60" departSpeed="0.00" departDelay="0.37" arrival="400.00" arrivalLane="nt4_np5_0" arrivalPos="75.00" arrivalSpeed="19.70" duration="236.00" routeLength="1297.29" waitingTime="108.00" waitingCount="7" stopTime="0.00" timeLoss="157.81" rerouteNo="0" devices="tripinfo_f_0_0.12" vType="type1" speedFactor="1.16" vaporized=""/>
    <tripinfo id="f_0_0.13" depart="178.00" departLane="np13_nt13_0" departPos="54.22" departSpeed="0.00" departDelay="0.73" arrival="414.00" arrivalLane="nt4_np5_0" arrivalPos="75.00" arrivalSpeed="18.95" duration="236.00" routeLength="1293.67" waitingTime="103.00" waitingCount="9" stopTime="0.00" timeLoss="148.95" rerouteNo="0" devices="tripinfo_f_0_0.13" vType="type1" speedFactor="1.04" vaporized=""/>
    <tripinfo id="f_0_0.14" depart="191.00" departLane="np13_nt13_0" departPos="57.61" departSpeed="0.00" departDelay="0.10" arrival="416.00" arrivalLane="nt4_np5_0" arrivalPos="75.00" arrivalSpeed="19.46" duration="225.00" routeLength="1290.28" waitingTime="86.00" waitingCount="7" stopTime="0.00" timeLoss="138.84" rerouteNo="0" devices="tripinfo_f_0_0.14" vType="type1" speedFactor="1.05" vaporized=""/>
    <tripinfo id="f_0_0.15" depart="205.00" departLane="np13_nt13_0" departPos="17.26" departSpeed="0.00" departDelay="0.46" arrival="427.00" arrivalLane="nt4_np5_0" arrivalPos="75.00" arrivalSpeed="16.16" duration="222.00" routeLength="1330.63" waitingTime="73.00" waitingCount="7" stopTime="0.00" timeLoss="121.63" rerouteNo="0" devices="tripinfo_f_0_0.15" vType="type1" speedFactor="0.92" vaporized=""/>
    <tripinfo id="f_0_1.3" depart="41.00" departLane="np16_nt1_0" departPos="36.84" departSpeed="0.00" departDelay="0.09" arrival="429.00" arrivalLane="nt16_np8_0" arrivalPos="75.00" arrivalSpeed="18.67" duration="388.00" routeLength="1311.04" waitingTime="192.00" waitingCount="14" stopTime="0.00" timeLoss="294.07" rerouteNo="0" devices="tripinfo_f_0_1.3" vType="type1" speedFactor="0.98" vaporized=""/>
    <tripinfo id="f_0_3.16" depart="164.00" departLane="np3_nt3_0" departPos="0.00" departSpeed="0.00" departDelay="33.09" arrival="431.00" arrivalLane="nt14_np11_0" arrivalPos="75.00" arrivalSpeed="10.86" duration="267.00" routeLength="951.09" waitingTime="131.00" waitingCount="11" stopTime="0.00" timeLoss="195.09" rerouteNo="0" devices="tripinfo_f_0_3.16" vType="type1" speedFactor="1.12" vaporized=""/>
    <tripinfo id="f_0_3.24" depart="240.00" departLane="np3_nt3_0" departPos="64.59" departSpeed="0.00" departDelay="43.63" arrival="436.00" arrivalLane="nt14_np11_0" arrivalPos="75.00" arrivalSpeed="8.57" duration="196.00" routeLength="886.50" waitingTime="64.00" waitingCount="6" stopTime="0.00" timeLoss="106.54" rerouteNo="0" devices="tripinfo_f_0_3.24" vType="type1" speedFactor="0.83" vaporized=""/>
    <tripinfo id="f_0_3.17" depart="172.00" departLane="np3_nt3_0" departPos="0.00" departSpeed="0.00" departDelay="32.91" arrival="442.00" arrivalLane="nt14_np11_0" arrivalPos="75.00" arrivalSpeed="9.42" duration="270.00" routeLength="951.09" waitingTime="116.00" waitingCount="9" stopTime="0.00" timeLoss="192.46" rerouteNo="0" devices="tripinfo_f_0_3.17" vType="type1" speedFactor="1.04" vaporized=""/>
    <tripinfo id="f_0_3.18" depart="176.00" departLane="np3_nt3_0" departPos="1.32" departSpeed="0.00" departDelay="28.72" arrival="467.00" arrivalLane="nt14_np11_0" arrivalPos="75.00" arrivalSpeed="9.62" duration="291.00" routeLength="949.77" waitingTime="154.00" waitingCount="10" stopTime="0.00" timeLoss="214.88" rerouteNo="0" devices="tripinfo_f_0_3.18" vType="type1" speedFactor="1.05" vaporized=""/>
    <tripinfo id="f_0_3.19" depart="202.00" departLane="np3_nt3_0" departPos="0.00" departSpeed="0.00" departDelay="46.54" arrival="470.00" arrivalLane="nt14_np11_0" arrivalPos="75.00" arrivalSpeed="8.22" duration="268.00" routeLength="951.09" waitingTime="120.00" waitingCount="9" stopTime="0.00" timeLoss="183.59" rerouteNo="0" devices="tripinfo_f_0_3.19" vType="type1" speedFactor="0.94" vaporized=""/>
    <tripinfo id="f_0_3.20" depart="206.00" departLane="np3_nt3_0" departPos="0.00" departSpeed="0.00" departDelay="42.36" arrival="477.00" arrivalLane="nt14_np11_0" arrivalPos="75.00" arrivalSpeed="10.35" duration="271.00" routeLength="951.09" waitingTime="111.00" waitingCount="10" stopTime="0.00" timeLoss="188.21" rerouteNo="0" devices="tripinfo_f_0_3.20" vType="type1" speedFactor="0.97" vaporized=""/>
    <tripinfo id="f_0_3.21" depart="222.00" departLane="np3_nt3_0" departPos="0.00" departSpeed="0.00" departDelay="50.18" arrival="480.00" arrivalLane="nt14_np11_0" arrivalPos="75.00" arrivalSpeed="9.67" duration="258.00" routeLength="951.09" waitingTime="105.00" waitingCount="10" stopTime="0.00" timeLoss="173.84" rerouteNo="0" devices="tripinfo_f_0_3.21" vType="type1" speedFactor="0.95" vaporized=""/>
    <tripinfo id="f_0_3.22" depart="226.00" departLane="np3_nt3_0" departPos="0.00" departSpeed="0.00" departDelay="46.00" arrival="482.00" arrivalLane="nt14_np11_0" arrivalPos="75.00" arrivalSpeed="8.83" duration="256.00" routeLength="951.09" waitingTime="105.00" waitingCount="9" stopTime="0.00" timeLoss="168.67" rerouteNo="0" devices="tripinfo_f_0_3.22" vType="type1" speedFactor="0.91" vaporized=""/>
    <tripinfo id="f_0_3.23" depart="234.00" departLane="np3_nt3_0" departPos="0.89" departSpeed="0.00" departDelay="45.81" arrival="484.00" arrivalLane="nt14_np11_0" arrivalPos="75.00" arrivalSpeed="11.42" duration="250.00" routeLength="950.20" waitingTime="101.00" waitingCount="9" stopTime="0.00" timeLoss="181.63" rerouteNo="0" devices="tripinfo_f_0_3.23" vType="type1" speedFactor="1.17" vaporized=""/>
    <tripinfo id="f_0_3.25" depart="247.00" departLane="np3_nt3_0" departPos="0.50" departSpeed="0.00" departDelay="42.45" arrival="511.00" arrivalLane="nt14_np11_0" arrivalPos="75.00" arrivalSpeed="12.65" duration="264.00" routeLength="950.59" waitingTime="117.00" waitingCount="9" stopTime="0.00" timeLoss="196.41" rerouteNo="0" devices="tripinfo_f_0_3.25" vType="type1" speedFactor="1.19" vaporized=""/>
    <tripinfo id="f_0_3.26" depart="252.00" departLane="np3_nt3_0" departPos="2.66" departSpeed="0.00" departDelay="39.27" arrival="514.00" arrivalLane="nt14_np11_0" arrivalPos="75.00" arrivalSpeed="10.22" duration="262.00" routeLength="948.43" waitingTime="118.00" waitingCount="8" stopTime="0.00" timeLoss="180.92" rerouteNo="0" devices="tripinfo_f_0_3.26" vType="type1" speedFactor="0.99" vaporized=""/>
    <tripinfo id="f_0_3.27" depart="255.00" departLane="np3_nt3_0" departPos="0.00" departSpeed="0.00" departDelay="34.09" arrival="518.00" arrivalLane="nt14_np11_0" arrivalPos="75.00" arrivalSpeed="8.91" duration="263.00" routeLength="951.09" waitingTime="111.00" waitingCount="7" stopTime="0.00" timeLoss="170.93" rerouteNo="0" devices="tripinfo_f_0_3.27" vType="type1" speedFactor="0.87" vaporized=""/>
    <tripinfo id="f_0_3.28" depart="308.00" departLane="np3_nt3_0" departPos="0.00" departSpeed="0.00" departDelay="78.90" arrival="520.00" arrivalLane="nt14_np11_0" arrivalPos="75.00" arrivalSpeed="10.40" duration="212.00" routeLength="951.09" waitingTime="61.00" waitingCount="5" stopTime="0.00" timeLoss="135.67" rerouteNo="0" devices="tripinfo_f_0_3.28" vType="type1" speedFactor="1.05" vaporized=""/>
    <tripinfo id="f_0_3.29" depart="317.00" departLane="np3_nt3_0" departPos="0.09" departSpeed="0.00" departDelay="79.72" arrival="533.00" arrivalLane="nt14_np11_0" arrivalPos="75.00" arrivalSpeed="8.45" duration="216.00" routeLength="951.00" waitingTime="68.00" waitingCount="7" stopTime="0.00" timeLoss="132.78" rerouteNo="0" devices="tripinfo_f_0_3.29" vType="type1" speedFactor="0.96" vaporized=""/>
    <tripinfo id="f_0_3.34" depart="338.00" departLane="np3_nt3_0" departPos="38.97" departSpeed="0.00" departDelay="59.81" arrival="535.00" arrivalLane="nt14_np11_0" arrivalPos="75.00" arrivalSpeed="9.66" duration="197.00" routeLength="912.12" waitingTime="62.00" waitingCount="6" stopTime="0.00" timeLoss="122.39" rerouteNo="0" devices="tripinfo_f_0_3.34" vType="type1" speedFactor="1.03" vaporized=""/>
    <tripinfo id="f_0_3.30" depart="320.00" departLane="np3_nt3_0" departPos="0.00" departSpeed="0.00" departDelay="74.54" arrival="546.00" arrivalLane="nt14_np11_0" arrivalPos="75.00" arrivalSpeed="11.09" duration="226.00" routeLength="951.09" waitingTime="72.00" waitingCount="9" stopTime="0.00" timeLoss="154.27" rerouteNo="0" devices="tripinfo_f_0_3.30" vType="type1" speedFactor="1.11" vaporized=""/>
    <tripinfo id="f_0_3.31" depart="327.00" departLane="np3_nt3_0" departPos="0.00" departSpeed="0.00" departDelay="73.36" arrival="549.00" arrivalLane="nt14_np11_0" arrivalPos="75.00" arrivalSpeed="10.74" duration="222.00" routeLength="951.09" waitingTime="65.00" waitingCount="9" stopTime="0.00" timeLoss="144.65" rerouteNo="0" devices="tripinfo_f_0_3.31" vType="type1" speedFactor="1.04" vaporized=""/>
    <tripinfo id="f_0_3.32" depart="330.00" departLane="np3_nt3_0" departPos="0.00" departSpeed="0.00" departDelay="68.18" arrival="558.00" arrivalLane="nt14_np11_0" arrivalPos="75.00" arrivalSpeed="9.28" duration="228.00" routeLength="951.09" waitingTime="74.00" waitingCount="7" stopTime="0.00" timeLoss="135.28" rerouteNo="0" devices="tripinfo_f_0_3.32" vType="type1" speedFactor="0.86" vaporized=""/>
    <tripinfo id="f_0_3.33" depart="335.00" departLane="np3_nt3_0" departPos="0.00" departSpeed="0.00" departDelay="64.99" arrival="560.00" arrivalLane="nt14_np11_0" arrivalPos="75.00" arrivalSpeed="10.76" duration="225.00" routeLength="951.09" waitingTime="70.00" waitingCount="6" stopTime="0.00" timeLoss="150.05" rerouteNo="0" devices="tripinfo_f_0_3.33" vType="type1" speedFactor="1.07" vaporized=""/>
    <tripinfo id="f_0_3.35" depart="344.00" departLane="np3_nt3_0" departPos="0.00" departSpeed="0.00" departDelay="57.63" arrival="562.00" arrivalLane="nt14_np11_0" arrivalPos="75.00" arrivalSpeed="10.71" duration="218.00" routeLength="951.09" waitingTime="74.00" waitingCount="7" stopTime="0.00" timeLoss="145.81" rerouteNo="0" devices="tripinfo_f_0_3.35" vType="type1" speedFactor="1.12" vaporized=""/>
    <tripinfo id="f_0_3.36" depart="347.00" departLane="np3_nt3_0" departPos="0.00" departSpeed="0.00" departDelay="52.45" arrival="566.00" arrivalLane="nt14_np11_0" arrivalPos="75.00" arrivalSpeed="10.01" duration="219.00" routeLength="951.09" waitingTime="66.00" waitingCount="9" stopTime="0.00" timeLoss="137.61" rerouteNo="0" devices="tripinfo_f_0_3.36" vType="type1" speedFactor="0.99" vaporized=""/>
    <tripinfo id="f_1_3.1" depart="350.00" departLane="np3_nt3_0" departPos="9.08" departSpeed="0.00" departDelay="45.32" arrival="589.00" arrivalLane="nt14_np11_0" arrivalPos="75.00" arrivalSpeed="7.14" duration="239.00" routeLength="942.01" waitingTime="80.00" waitingCount="11" stopTime="0.00" timeLoss="146.30" rerouteNo="0" devices="tripinfo_f_1_3.1" vType="type1" speedFactor="0.85" vaporized=""/>
    <tripinfo id="f_1_3.0" depart="349.00" departLane="np3_nt3_0" departPos="0.00" departSpeed="0.00" departDelay="49.00" arrival="596.00" arrivalLane="nt14_np11_0" arrivalPos="75.00" arrivalSpeed="10.88" duration="247.00" routeLength="951.09" waitingTime="87.00" waitingCount="11" stopTime="0.00" timeLoss="174.97" rerouteNo="0" devices="tripinfo_f_1_3.0" vType="type1" speedFactor="1.10" vaporized=""/>
    <tripinfo id="f_1_3.2" depart="356.00" departLane="np3_nt3_0" departPos="0.00" departSpeed="0.00" departDelay="46.65" arrival="618.00" arrivalLane="nt14_np11_0" arrivalPos="75.00" arrivalSpeed="8.53" duration="262.00" routeLength="951.09" waitingTime="89.00" waitingCount="12" stopTime="0.00" timeLoss="176.70" rerouteNo="0" devices="tripinfo_f_1_3.2" vType="type1" speedFactor="0.94" vaporized=""/>
    <tripinfo id="f_1_3.3" depart="367.00" departLane="np3_nt3_0" departPos="0.00" departSpeed="0.00" departDelay="52.97" arrival="642.00" arrivalLane="nt14_np11_0" arrivalPos="75.00" arrivalSpeed="10.08" duration="275.00" routeLength="951.09" waitingTime="118.00" waitingCount="12" stopTime="0.00" timeLoss="198.98" rerouteNo="0" devices="tripinfo_f_1_3.3" vType="type1" speedFactor="1.05" vaporized=""/>
    <tripinfo id="f_1_3.4" depart="371.00" departLane="np3_nt3_0" departPos="0.00" departSpeed="0.00" departDelay="52.30" arrival="645.00" arrivalLane="nt14_np11_0" arrivalPos="75.00" arrivalSpeed="9.37" duration="274.00" routeLength="951.09" waitingTime="108.00" waitingCount="11" stopTime="0.00" timeLoss="187.67" rerouteNo="0" devices="tripinfo_f_1_3.4" vType="type1" speedFactor="0.92" vaporized=""/>
    <tripinfo id="f_1_3.5" depart="383.00" departLane="np3_nt3_0" departPos="0.00" departSpeed="0.00" departDelay="59.62" arrival="663.00" arrivalLane="nt14_np11_0" arrivalPos="75.00" arrivalSpeed="7.83" duration="280.00" routeLength="951.09" waitingTime="107.00" waitingCount="11" stopTime="0.00" timeLoss="190.11" rerouteNo="0" devices="tripinfo_f_1_3.5" vType="type1" speedFactor="0.89" vaporized=""/>