<?xml version="1.0" encoding="UTF-8"?>

<!-- generated on 2023-08-30 12:42:10 by Eclipse SUMO libsumo Version 1.18.0
<configuration xmlns:xsi="http://www.w3.org/2001/XMLSchema-instance" xsi:noNamespaceSchemaLocation="http://sumo.dlr.de/xsd/libsumoConfiguration.xsd">

    <input>
        <net-file value="/home/stefan/RESCO/./environments/arterial4x4/arterial4x4.net.xml"/>
        <route-files value="/home/stefan/RESCO/./environments/arterial4x4/arterial4x4_64.rou.xml"/>
    </input>

    <output>
        <tripinfo-output value="/home/stefan/results/ITRPO-tr0-arterial4x4-0-drq_norm-wait_norm/tripinfo_64.xml"/>
        <tripinfo-output.write-unfinished value="true"/>
    </output>

    <processing>
        <time-to-teleport value="-1"/>
    </processing>

    <report>
        <no-warnings value="True"/>
        <no-step-log value="True"/>
    </report>

    <random_number>
        <random value="true"/>
    </random_number>

</configuration>
-->

<tripinfos xmlns:xsi="http://www.w3.org/2001/XMLSchema-instance" xsi:noNamespaceSchemaLocation="http://sumo.dlr.de/xsd/tripinfo_file.xsd">
    <tripinfo id="f_0_2.0" depart="0.00" departLane="np2_nt2_0" departPos="62.34" departSpeed="0.00" departDelay="0.00" arrival="127.00" arrivalLane="nt15_np10_0" arrivalPos="75.00" arrivalSpeed="10.73" duration="127.00" routeLength="888.74" waitingTime="27.00" waitingCount="5" stopTime="0.00" timeLoss="52.26" rerouteNo="0" devices="tripinfo_f_0_2.0" vType="type1" speedFactor="0.99" vaporized=""/>
    <tripinfo id="f_0_3.0" depart="0.00" departLane="np3_nt3_0" departPos="45.48" departSpeed="0.00" departDelay="0.00" arrival="141.00" arrivalLane="nt14_np11_0" arrivalPos="75.00" arrivalSpeed="11.27" duration="141.00" routeLength="905.61" waitingTime="47.00" waitingCount="5" stopTime="0.00" timeLoss="71.46" rerouteNo="0" devices="tripinfo_f_0_3.0" vType="type1" speedFactor="1.09" vaporized=""/>
    <tripinfo id="f_0_3.1" depart="9.00" departLane="np3_nt3_0" departPos="16.06" departSpeed="0.00" departDelay="0.82" arrival="144.00" arrivalLane="nt14_np11_0" arrivalPos="75.00" arrivalSpeed="8.58" duration="135.00" routeLength="935.03" waitingTime="26.00" waitingCount="5" stopTime="0.00" timeLoss="56.08" rerouteNo="0" devices="tripinfo_f_0_3.1" vType="type1" speedFactor="0.99" vaporized=""/>
    <tripinfo id="f_0_2.1" depart="9.00" departLane="np2_nt2_0" departPos="32.38" departSpeed="0.00" departDelay="0.82" arrival="152.00" arrivalLane="nt15_np10_0" arrivalPos="75.00" arrivalSpeed="10.13" duration="143.00" routeLength="918.70" waitingTime="45.00" waitingCount="6" stopTime="0.00" timeLoss="71.69" rerouteNo="0" devices="tripinfo_f_0_2.1" vType="type1" speedFactor="1.08" vaporized=""/>
    <tripinfo id="f_0_2.2" depart="17.00" departLane="np2_nt2_0" departPos="47.90" departSpeed="0.00" departDelay="0.64" arrival="164.00" arrivalLane="nt15_np10_0" arrivalPos="75.00" arrivalSpeed="7.92" duration="147.00" routeLength="903.18" waitingTime="36.00" waitingCount="4" stopTime="0.00" timeLoss="64.65" rerouteNo="0" devices="tripinfo_f_0_2.2" vType="type1" speedFactor="0.92" vaporized=""/>
    <tripinfo id="f_0_2.3" depart="25.00" departLane="np2_nt2_0" departPos="3.29" departSpeed="0.00" departDelay="0.45" arrival="177.00" arrivalLane="nt15_np10_0" arrivalPos="75.00" arrivalSpeed="10.63" duration="152.00" routeLength="947.79" waitingTime="33.00" waitingCount="5" stopTime="0.00" timeLoss="70.64" rerouteNo="0" devices="tripinfo_f_0_2.3" vType="type1" speedFactor="0.98" vaporized=""/>
    <tripinfo id="f_0_1.0" depart="0.00" departLane="np16_nt1_0" departPos="10.06" departSpeed="0.00" departDelay="0.00" arrival="178.00" arrivalLane="nt16_np8_0" arrivalPos="75.00" arrivalSpeed="19.27" duration="178.00" routeLength="1337.82" waitingTime="39.00" waitingCount="6" stopTime="0.00" timeLoss="84.73" rerouteNo="0" devices="tripinfo_f_0_1.0" vType="type1" speedFactor="1.00" vaporized=""/>
    <tripinfo id="f_0_1.1" depart="14.00" departLane="np16_nt1_0" departPos="47.61" departSpeed="0.00" departDelay="0.36" arrival="180.00" arrivalLane="nt16_np8_0" arrivalPos="75.00" arrivalSpeed="23.39" duration="166.00" routeLength="1300.27" waitingTime="42.00" waitingCount="6" stopTime="0.00" timeLoss="88.05" rerouteNo="0" devices="tripinfo_f_0_1.1" vType="type1" speedFactor="1.18" vaporized=""/>
    <tripinfo id="f_0_3.2" depart="17.00" departLane="np3_nt3_0" departPos="17.93" departSpeed="0.00" departDelay="0.64" arrival="184.00" arrivalLane="nt14_np11_0" arrivalPos="75.00" arrivalSpeed="7.53" duration="167.00" routeLength="933.16" waitingTime="43.00" waitingCount="5" stopTime="0.00" timeLoss="78.42" rerouteNo="0" devices="tripinfo_f_0_3.2" vType="type1" speedFactor="0.89" vaporized=""/>
    <tripinfo id="f_0_3.3" depart="25.00" departLane="np3_nt3_0" departPos="39.92" departSpeed="0.00" departDelay="0.45" arrival="186.00" arrivalLane="nt14_np11_0" arrivalPos="75.00" arrivalSpeed="10.43" duration="161.00" routeLength="911.17" waitingTime="54.00" waitingCount="6" stopTime="0.00" timeLoss="89.24" rerouteNo="0" devices="tripinfo_f_0_3.3" vType="type1" speedFactor="1.07" vaporized=""/>
    <tripinfo id="f_0_3.4" depart="33.00" departLane="np3_nt3_0" departPos="4.87" departSpeed="0.00" departDelay="0.27" arrival="188.00" arrivalLane="nt14_np11_0" arrivalPos="75.00" arrivalSpeed="9.39" duration="155.00" routeLength="946.22" waitingTime="39.00" waitingCount="5" stopTime="0.00" timeLoss="70.95" rerouteNo="0" devices="tripinfo_f_0_3.4" vType="type1" speedFactor="0.95" vaporized=""/>
    <tripinfo id="f_0_2.4" depart="33.00" departLane="np2_nt2_0" departPos="5.12" departSpeed="0.00" departDelay="0.27" arrival="203.00" arrivalLane="nt15_np10_0" arrivalPos="75.00" arrivalSpeed="8.47" duration="170.00" routeLength="945.96" waitingTime="47.00" waitingCount="5" stopTime="0.00" timeLoss="87.47" rerouteNo="0" devices="tripinfo_f_0_2.4" vType="type1" speedFactor="0.97" vaporized=""/>
    <tripinfo id="f_0_2.5" depart="41.00" departLane="np2_nt2_0" departPos="46.80" departSpeed="0.00" departDelay="0.09" arrival="205.00" arrivalLane="nt15_np10_0" arrivalPos="75.00" arrivalSpeed="9.58" duration="164.00" routeLength="904.28" waitingTime="47.00" waitingCount="4" stopTime="0.00" timeLoss="91.22" rerouteNo="0" devices="tripinfo_f_0_2.5" vType="type1" speedFactor="1.04" vaporized=""/>
    <tripinfo id="f_0_2.6" depart="50.00" departLane="np2_nt2_0" departPos="46.66" departSpeed="0.00" departDelay="0.91" arrival="212.00" arrivalLane="nt15_np10_0" arrivalPos="75.00" arrivalSpeed="8.54" duration="162.00" routeLength="904.42" waitingTime="43.00" waitingCount="8" stopTime="0.00" timeLoss="84.50" rerouteNo="0" devices="tripinfo_f_0_2.6" vType="type1" speedFactor="0.97" vaporized=""/>
    <tripinfo id="f_0_2.7" depart="58.00" departLane="np2_nt2_0" departPos="11.02" departSpeed="0.00" departDelay="0.73" arrival="215.00" arrivalLane="nt15_np10_0" arrivalPos="75.00" arrivalSpeed="9.06" duration="157.00" routeLength="940.06" waitingTime="35.00" waitingCount="5" stopTime="0.00" timeLoss="72.88" rerouteNo="0" devices="tripinfo_f_0_2.7" vType="type1" speedFactor="0.94" vaporized=""/>
    <tripinfo id="f_0_0.0" depart="0.00" departLane="np13_nt13_0" departPos="14.12" departSpeed="0.00" departDelay="0.00" arrival="248.00" arrivalLane="nt4_np5_0" arrivalPos="75.00" arrivalSpeed="17.47" duration="248.00" routeLength="1333.77" waitingTime="120.00" waitingCount="5" stopTime="0.00" timeLoss="152.06" rerouteNo="0" devices="tripinfo_f_0_0.0" vType="type1" speedFactor="0.96" vaporized=""/>
    <tripinfo id="f_0_0.1" depart="14.00" departLane="np13_nt13_0" departPos="5.20" departSpeed="0.00" departDelay="0.36" arrival="254.00" arrivalLane="nt4_np5_0" arrivalPos="75.00" arrivalSpeed="21.34" duration="240.00" routeLength="1342.69" waitingTime="114.00" waitingCount="7" stopTime="0.00" timeLoss="153.47" rerouteNo="0" devices="tripinfo_f_0_0.1" vType="type1" speedFactor="1.08" vaporized=""/>
    <tripinfo id="f_0_1.2" depart="28.00" departLane="np16_nt1_0" departPos="62.74" departSpeed="0.00" departDelay="0.73" arrival="264.00" arrivalLane="nt16_np8_0" arrivalPos="75.00" arrivalSpeed="17.69" duration="236.00" routeLength="1285.14" waitingTime="89.00" waitingCount="9" stopTime="0.00" timeLoss="139.77" rerouteNo="0" devices="tripinfo_f_0_1.2" vType="type1" speedFactor="0.94" vaporized=""/>
    <tripinfo id="f_0_1.3" depart="41.00" departLane="np16_nt1_0" departPos="56.73" departSpeed="0.00" departDelay="0.09" arrival="265.00" arrivalLane="nt16_np8_0" arrivalPos="75.00" arrivalSpeed="18.73" duration="224.00" routeLength="1291.15" waitingTime="63.00" waitingCount="8" stopTime="0.00" timeLoss="137.84" rerouteNo="0" devices="tripinfo_f_0_1.3" vType="type1" speedFactor="1.05" vaporized=""/>
    <tripinfo id="f_0_3.5" depart="41.00" departLane="np3_nt3_0" departPos="13.60" departSpeed="0.00" departDelay="0.09" arrival="267.00" arrivalLane="nt14_np11_0" arrivalPos="75.00" arrivalSpeed="9.17" duration="226.00" routeLength="937.49" waitingTime="110.00" waitingCount="7" stopTime="0.00" timeLoss="148.19" rerouteNo="0" devices="tripinfo_f_0_3.5" vType="type1" speedFactor="1.01" vaporized=""/>
    <tripinfo id="f_0_2.8" depart="66.00" departLane="np2_nt2_0" departPos="49.63" departSpeed="0.00" departDelay="0.54" arrival="277.00" arrivalLane="nt15_np10_0" arrivalPos="75.00" arrivalSpeed="11.01" duration="211.00" routeLength="901.45" waitingTime="87.00" waitingCount="6" stopTime="0.00" timeLoss="138.98" rerouteNo="0" devices="tripinfo_f_0_2.8" vType="type1" speedFactor="1.06" vaporized=""/>
    <tripinfo id="f_0_3.6" depart="50.00" departLane="np3_nt3_0" departPos="33.63" departSpeed="0.00" departDelay="0.91" arrival="282.00" arrivalLane="nt14_np11_0" arrivalPos="75.00" arrivalSpeed="8.82" duration="232.00" routeLength="917.46" waitingTime="109.00" waitingCount="8" stopTime="0.00" timeLoss="155.91" rerouteNo="0" devices="tripinfo_f_0_3.6" vType="type1" speedFactor="1.01" vaporized=""/>
    <tripinfo id="f_0_0.2" depart="28.00" departLane="np13_nt13_0" departPos="19.79" departSpeed="0.00" departDelay="0.73" arrival="283.00" arrivalLane="nt4_np5_0" arrivalPos="75.00" arrivalSpeed="21.31" duration="255.00" routeLength="1328.10" waitingTime="114.00" waitingCount="10" stopTime="0.00" timeLoss="174.52" rerouteNo="0" devices="tripinfo_f_0_0.2" vType="type1" speedFactor="1.14" vaporized=""/>
    <tripinfo id="f_0_3.7" depart="58.00" departLane="np3_nt3_0" departPos="24.58" departSpeed="0.00" departDelay="0.73" arrival="284.00" arrivalLane="nt14_np11_0" arrivalPos="75.00" arrivalSpeed="9.96" duration="226.00" routeLength="926.51" waitingTime="106.00" waitingCount="8" stopTime="0.00" timeLoss="147.33" rerouteNo="0" devices="tripinfo_f_0_3.7" vType="type1" speedFactor="0.99" vaporized=""/>
    <tripinfo id="f_0_0.3" depart="41.00" departLane="np13_nt13_0" departPos="51.59" departSpeed="0.00" departDelay="0.09" arrival="286.00" arrivalLane="nt4_np5_0" arrivalPos="75.00" arrivalSpeed="18.02" duration="245.00" routeLength="1296.30" waitingTime="86.00" waitingCount="10" stopTime="0.00" timeLoss="154.48" rerouteNo="0" devices="tripinfo_f_0_0.3" vType="type1" speedFactor="1.01" vaporized=""/>
    <tripinfo id="f_0_0.4" depart="55.00" departLane="np13_nt13_0" departPos="5.00" departSpeed="0.00" departDelay="0.46" arrival="287.00" arrivalLane="nt4_np5_0" arrivalPos="75.00" arrivalSpeed="17.32" duration="232.00" routeLength="1342.89" waitingTime="74.00" waitingCount="8" stopTime="0.00" timeLoss="128.09" rerouteNo="0" devices="tripinfo_f_0_0.4" vType="type1" speedFactor="0.89" vaporized=""/>
    <tripinfo id="f_0_1.4" depart="55.00" departLane="np16_nt1_0" departPos="38.14" departSpeed="0.00" departDelay="0.46" arrival="293.00" arrivalLane="nt16_np8_0" arrivalPos="75.00" arrivalSpeed="14.47" duration="238.00" routeLength="1309.74" waitingTime="79.00" waitingCount="7" stopTime="0.00" timeLoss="128.44" rerouteNo="0" devices="tripinfo_f_0_1.4" vType="type1" speedFactor="0.84" vaporized=""/>
    <tripinfo id="f_0_2.9" depart="74.00" departLane="np2_nt2_0" departPos="51.72" departSpeed="0.00" departDelay="0.36" arrival="301.00" arrivalLane="nt15_np10_0" arrivalPos="75.00" arrivalSpeed="10.48" duration="227.00" routeLength="899.36" waitingTime="97.00" waitingCount="7" stopTime="0.00" timeLoss="158.63" rerouteNo="0" devices="tripinfo_f_0_2.9" vType="type1" speedFactor="1.10" vaporized=""/>
    <tripinfo id="f_0_2.10" depart="82.00" departLane="np2_nt2_0" departPos="49.93" departSpeed="0.00" departDelay="0.18" arrival="303.00" arrivalLane="nt15_np10_0" arrivalPos="75.00" arrivalSpeed="10.32" duration="221.00" routeLength="901.15" waitingTime="89.00" waitingCount="8" stopTime="0.00" timeLoss="153.12" rerouteNo="0" devices="tripinfo_f_0_2.10" vType="type1" speedFactor="1.11" vaporized=""/>
    <tripinfo id="f_0_3.8" depart="66.00" departLane="np3_nt3_0" departPos="11.24" departSpeed="0.00" departDelay="0.54" arrival="306.00" arrivalLane="nt14_np11_0" arrivalPos="75.00" arrivalSpeed="11.64" duration="240.00" routeLength="939.85" waitingTime="126.00" waitingCount="7" stopTime="0.00" timeLoss="166.68" rerouteNo="0" devices="tripinfo_f_0_3.8" vType="type1" speedFactor="1.07" vaporized=""/>
    <tripinfo id="f_0_2.11" depart="90.00" departLane="np2_nt2_0" departPos="22.92" departSpeed="0.00" departDelay="0.00" arrival="306.00" arrivalLane="nt15_np10_0" arrivalPos="75.00" arrivalSpeed="9.81" duration="216.00" routeLength="928.16" waitingTime="87.00" waitingCount="8" stopTime="0.00" timeLoss="135.07" rerouteNo="0" devices="tripinfo_f_0_2.11" vType="type1" speedFactor="0.96" vaporized=""/>
    <tripinfo id="f_0_2.12" depart="99.00" departLane="np2_nt2_0" departPos="2.88" departSpeed="0.00" departDelay="0.82" arrival="309.00" arrivalLane="nt15_np10_0" arrivalPos="75.00" arrivalSpeed="8.18" duration="210.00" routeLength="948.20" waitingTime="75.00" waitingCount="7" stopTime="0.00" timeLoss="122.54" rerouteNo="0" devices="tripinfo_f_0_2.12" vType="type1" speedFactor="0.91" vaporized=""/>
    <tripinfo id="f_0_0.5" depart="69.00" departLane="np13_nt13_0" departPos="60.62" departSpeed="0.00" departDelay="0.82" arrival="318.00" arrivalLane="nt4_np5_0" arrivalPos="75.00" arrivalSpeed="20.45" duration="249.00" routeLength="1287.27" waitingTime="110.00" waitingCount="7" stopTime="0.00" timeLoss="162.12" rerouteNo="0" devices="tripinfo_f_0_0.5" vType="type1" speedFactor="1.03" vaporized=""/>
    <tripinfo id="f_0_0.6" depart="82.00" departLane="np13_nt13_0" departPos="35.17" departSpeed="0.00" departDelay="0.18" arrival="333.00" arrivalLane="nt4_np5_0" arrivalPos="75.00" arrivalSpeed="19.07" duration="251.00" routeLength="1312.72" waitingTime="107.00" waitingCount="8" stopTime="0.00" timeLoss="159.77" rerouteNo="0" devices="tripinfo_f_0_0.6" vType="type1" speedFactor="1.00" vaporized=""/>
    <tripinfo id="f_0_0.7" depart="96.00" departLane="np13_nt13_0" departPos="34.83" departSpeed="0.00" departDelay="0.55" arrival="335.00" arrivalLane="nt4_np5_0" arrivalPos="75.00" arrivalSpeed="17.74" duration="239.00" routeLength="1313.06" waitingTime="83.00" waitingCount="7" stopTime="0.00" timeLoss="138.72" rerouteNo="0" devices="tripinfo_f_0_0.7" vType="type1" speedFactor="0.91" vaporized=""/>
    <tripinfo id="f_0_2.13" depart="107.00" departLane="np2_nt2_0" departPos="47.91" departSpeed="0.00" departDelay="0.63" arrival="348.00" arrivalLane="nt15_np10_0" arrivalPos="75.00" arrivalSpeed="8.60" duration="241.00" routeLength="903.17" waitingTime="100.00" waitingCount="10" stopTime="0.00" timeLoss="158.31" rerouteNo="0" devices="tripinfo_f_0_2.13" vType="type1" speedFactor="0.91" vaporized=""/>
    <tripinfo id="f_0_2.14" depart="115.00" departLane="np2_nt2_0" departPos="56.16" departSpeed="0.00" departDelay="0.45" arrival="351.00" arrivalLane="nt15_np10_0" arrivalPos="75.00" arrivalSpeed="7.68" duration="236.00" routeLength="894.92" waitingTime="87.00" waitingCount="9" stopTime="0.00" timeLoss="147.95" rerouteNo="0" devices="tripinfo_f_0_2.14" vType="type1" speedFactor="0.85" vaporized=""/>
    <tripinfo id="f_0_1.5" depart="69.00" departLane="np16_nt1_0" departPos="31.20" departSpeed="0.00" departDelay="0.82" arrival="361.00" arrivalLane="nt16_np8_0" arrivalPos="75.00" arrivalSpeed="18.21" duration="292.00" routeLength="1316.68" waitingTime="121.00" waitingCount="12" stopTime="0.00" timeLoss="191.78" rerouteNo="0" devices="tripinfo_f_0_1.5" vType="type1" speedFactor="0.92" vaporized=""/>
    <tripinfo id="f_0_2.15" depart="123.00" departLane="np2_nt2_0" departPos="6.38" departSpeed="0.00" departDelay="0.27" arrival="361.00" arrivalLane="nt15_np10_0" arrivalPos="75.00" arrivalSpeed="11.84" duration="238.00" routeLength="944.70" waitingTime="79.00" waitingCount="9" stopTime="0.00" timeLoss="165.30" rerouteNo="0" devices="tripinfo_f_0_2.15" vType="type1" speedFactor="1.08" vaporized=""/>
    <tripinfo id="f_0_1.6" depart="82.00" departLane="np16_nt1_0" departPos="28.80" departSpeed="0.00" departDelay="0.18" arrival="362.00" arrivalLane="nt16_np8_0" arrivalPos="75.00" arrivalSpeed="18.39" duration="280.00" routeLength="1319.08" waitingTime="104.00" waitingCount="9" stopTime="0.00" timeLoss="185.27" rerouteNo="0" devices="tripinfo_f_0_1.6" vType="type1" speedFactor="0.97" vaporized=""/>
    <tripinfo id="f_0_2.16" depart="131.00" departLane="np2_nt2_0" departPos="55.58" departSpeed="0.00" departDelay="0.09" arrival="363.00" arrivalLane="nt15_np10_0" arrivalPos="75.00" arrivalSpeed="12.53" duration="232.00" routeLength="895.50" waitingTime="71.00" waitingCount="7" stopTime="0.00" timeLoss="166.36" rerouteNo="0" devices="tripinfo_f_0_2.16" vType="type1" speedFactor="1.15" vaporized=""/>
    <tripinfo id="f_0_3.9" depart="74.00" departLane="np3_nt3_0" departPos="2.45" departSpeed="0.00" departDelay="0.36" arrival="366.00" arrivalLane="nt14_np11_0" arrivalPos="75.00" arrivalSpeed="10.97" duration="292.00" routeLength="948.64" waitingTime="171.00" waitingCount="10" stopTime="0.00" timeLoss="220.53" rerouteNo="0" devices="tripinfo_f_0_3.9" vType="type1" speedFactor="1.12" vaporized=""/>
    <tripinfo id="f_0_3.10" depart="82.00" departLane="np3_nt3_0" departPos="4.42" departSpeed="0.00" departDelay="0.18" arrival="370.00" arrivalLane="nt14_np11_0" arrivalPos="75.00" arrivalSpeed="8.98" duration="288.00" routeLength="946.67" waitingTime="146.00" waitingCount="9" stopTime="0.00" timeLoss="197.74" rerouteNo="0" devices="tripinfo_f_0_3.10" vType="type1" speedFactor="0.88" vaporized=""/>
    <tripinfo id="f_0_0.8" depart="110.00" departLane="np13_nt13_0" departPos="17.43" departSpeed="0.00" departDelay="0.91" arrival="374.00" arrivalLane="nt4_np5_0" arrivalPos="75.00" arrivalSpeed="15.81" duration="264.00" routeLength="1330.46" waitingTime="103.00" waitingCount="10" stopTime="0.00" timeLoss="154.89" rerouteNo="0" devices="tripinfo_f_0_0.8" vType="type1" speedFactor="0.84" vaporized=""/>
    <tripinfo id="f_0_0.9" depart="123.00" departLane="np13_nt13_0" departPos="31.84" departSpeed="0.00" departDelay="0.28" arrival="376.00" arrivalLane="nt4_np5_0" arrivalPos="75.00" arrivalSpeed="18.68" duration="253.00" routeLength="1316.05" waitingTime="95.00" waitingCount="8" stopTime="0.00" timeLoss="164.08" rerouteNo="0" devices="tripinfo_f_0_0.9" vType="type1" speedFactor="1.04" vaporized=""/>
    <tripinfo id="f_0_1.7" depart="96.00" departLane="np16_nt1_0" departPos="51.38" departSpeed="0.00" departDelay="0.55" arrival="379.00" arrivalLane="nt16_np8_0" arrivalPos="75.00" arrivalSpeed="17.11" duration="283.00" routeLength="1296.50" waitingTime="85.00" waitingCount="9" stopTime="0.00" timeLoss="177.97" rerouteNo="0" devices="tripinfo_f_0_1.7" vType="type1" speedFactor="0.87" vaporized=""/>
    <tripinfo id="f_0_0.10" depart="137.00" departLane="np13_nt13_0" departPos="50.89" departSpeed="0.00" departDelay="0.64" arrival="383.00" arrivalLane="nt4_np5_0" arrivalPos="75.00" arrivalSpeed="23.66" duration="246.00" routeLength="1297.00" waitingTime="87.00" waitingCount="9" stopTime="0.00" timeLoss="171.72" rerouteNo="0" devices="tripinfo_f_0_0.10" vType="type1" speedFactor="1.23" vaporized=""/>
    <tripinfo id="f_0_1.8" depart="110.00" departLane="np16_nt1_0" departPos="46.16" departSpeed="0.00" departDelay="0.91" arrival="384.00" arrivalLane="nt16_np8_0" arrivalPos="75.00" arrivalSpeed="17.24" duration="274.00" routeLength="1301.72" waitingTime="72.00" waitingCount="9" stopTime="0.00" timeLoss="173.55" rerouteNo="0" devices="tripinfo_f_0_1.8" vType="type1" speedFactor="0.91" vaporized=""/>
    <tripinfo id="f_0_2.17" depart="140.00" departLane="np2_nt2_0" departPos="54.06" departSpeed="0.00" departDelay="0.91" arrival="404.00" arrivalLane="nt15_np10_0" arrivalPos="75.00" arrivalSpeed="6.72" duration="264.00" routeLength="897.02" waitingTime="101.00" waitingCount="9" stopTime="0.00" timeLoss="174.15" rerouteNo="0" devices="tripinfo_f_0_2.17" vType="type1" speedFactor="0.84" vaporized=""/>
    <tripinfo id="f_0_3.11" depart="90.00" departLane="np3_nt3_0" departPos="0.84" departSpeed="0.00" departDelay="0.00" arrival="409.00" arrivalLane="nt14_np11_0" arrivalPos="75.00" arrivalSpeed="7.84" duration="319.00" routeLength="950.25" waitingTime="172.00" waitingCount="9" stopTime="0.00" timeLoss="231.62" rerouteNo="0" devices="tripinfo_f_0_3.11" vType="type1" speedFactor="0.91" vaporized=""/>
    <tripinfo id="f_0_0.11" depart="150.00" departLane="np13_nt13_0" departPos="0.64" departSpeed="0.00" departDelay="0.00" arrival="414.00" arrivalLane="nt4_np5_0" arrivalPos="75.00" arrivalSpeed="19.21" duration="264.00" routeLength="1347.25" waitingTime="93.00" waitingCount="8" stopTime="0.00" timeLoss="175.70" rerouteNo="0" devices="tripinfo_f_0_0.11" vType="type1" speedFactor="1.05" vaporized=""/>
    <tripinfo id="f_0_1.9" depart="123.00" departLane="np16_nt1_0" departPos="62.07" departSpeed="0.00" departDelay="0.28" arrival="418.00" arrivalLane="nt16_np8_0" arrivalPos="75.00" arrivalSpeed="20.39" duration="295.00" routeLength="1285.81" waitingTime="101.00" waitingCount="11" stopTime="0.00" timeLoss="211.80" rerouteNo="0" devices="tripinfo_f_0_1.9" vType="type1" speedFactor="1.08" vaporized=""/>
    <tripinfo id="f_0_2.18" depart="148.00" departLane="np2_nt2_0" departPos="10.20" departSpeed="0.00" departDelay="0.72" arrival="434.00" arrivalLane="nt15_np10_0" arrivalPos="75.00" arrivalSpeed="9.47" duration="286.00" routeLength="940.88" waitingTime="106.00" waitingCount="9" stopTime="0.00" timeLoss="197.21" rerouteNo="0" devices="tripinfo_f_0_2.18" vType="type1" speedFactor="0.89" vaporized=""/>
    <tripinfo id="f_0_1.10" depart="137.00" departLane="np16_nt1_0" departPos="58.15" departSpeed="0.00" departDelay="0.64" arrival="442.00" arrivalLane="nt16_np8_0" arrivalPos="75.00" arrivalSpeed="20.76" duration="305.00" routeLength="1289.73" waitingTime="107.00" waitingCount="10" stopTime="0.00" timeLoss="226.83" rerouteNo="0" devices="tripinfo_f_0_1.10" vType="type1" speedFactor="1.15" vaporized=""/>
    <tripinfo id="f_0_0.12" depart="164.00" departLane="np13_nt13_0" departPos="32.74" departSpeed="0.00" departDelay="0.37" arrival="448.00" arrivalLane="nt4_np5_0" arrivalPos="75.00" arrivalSpeed="20.39" duration="284.00" routeLength="1315.15" waitingTime="109.00" waitingCount="10" stopTime="0.00" timeLoss="195.46" rerouteNo="0" devices="tripinfo_f_0_0.12" vType="type1" speedFactor="1.03" vaporized=""/>
    <tripinfo id="f_0_2.19" depart="156.00" departLane="np2_nt2_0" departPos="6.63" departSpeed="0.00" departDelay="0.54" arrival="451.00" arrivalLane="nt15_np10_0" arrivalPos="75.00" arrivalSpeed="11.41" duration="295.00" routeLength="944.45" waitingTime="124.00" waitingCount="13" stopTime="0.00" timeLoss="225.34" rerouteNo="0" devices="tripinfo_f_0_2.19" vType="type1" speedFactor="1.14" vaporized=""/>
    <tripinfo id="f_0_0.13" depart="178.00" departLane="np13_nt13_0" departPos="32.86" departSpeed="0.00" departDelay="0.73" arrival="458.00" arrivalLane="nt4_np5_0" arrivalPos="75.00" arrivalSpeed="20.74" duration="280.00" routeLength="1315.03" waitingTime="112.00" waitingCount="11" stopTime="0.00" timeLoss="194.96" rerouteNo="0" devices="tripinfo_f_0_0.13" vType="type1" speedFactor="1.07" vaporized=""/>
    <tripinfo id="f_0_3.12" depart="99.00" departLane="np3_nt3_0" departPos="7.42" departSpeed="0.00" departDelay="0.82" arrival="459.00" arrivalLane="nt14_np11_0" arrivalPos="75.00" arrivalSpeed="7.71" duration="360.00" routeLength="943.67" waitingTime="209.00" waitingCount="9" stopTime="0.00" timeLoss="268.07" rerouteNo="0" devices="tripinfo_f_0_3.12" vType="type1" speedFactor="0.87" vaporized=""/>
    <tripinfo id="f_0_0.14" depart="191.00" departLane="np13_nt13_0" departPos="19.83" departSpeed="0.00" departDelay="0.10" arrival="460.00" arrivalLane="nt4_np5_0" arrivalPos="75.00" arrivalSpeed="19.13" duration="269.00" routeLength="1328.06" waitingTime="98.00" waitingCount="10" stopTime="0.00" timeLoss="182.99" rerouteNo="0" devices="tripinfo_f_0_0.14" vType="type1" speedFactor="1.07" vaporized=""/>
    <tripinfo id="f_0_1.11" depart="150.00" departLane="np16_nt1_0" departPos="64.75" departSpeed="0.00" departDelay="0.00" arrival="462.00" arrivalLane="nt16_np8_0" arrivalPos="75.00" arrivalSpeed="19.00" duration="312.00" routeLength="1283.13" waitingTime="133.00" waitingCount="12" stopTime="0.00" timeLoss="221.35" rerouteNo="0" devices="tripinfo_f_0_1.11" vType="type1" speedFactor="0.99" vaporized=""/>
    <tripinfo id="f_0_3.13" depart="107.00" departLane="np3_nt3_0" departPos="1.76" departSpeed="0.00" departDelay="0.63" arrival="467.00" arrivalLane="nt14_np11_0" arrivalPos="75.00" arrivalSpeed="10.56" duration="360.00" routeLength="949.33" waitingTime="217.00" waitingCount="10" stopTime="0.00" timeLoss="282.23" rerouteNo="0" devices="tripinfo_f_0_3.13" vType="type1" speedFactor="1.02" vaporized=""/>
    <tripinfo id="f_0_3.14" depart="128.00" departLane="np3_nt3_0" departPos="0.00" departSpeed="0.00" departDelay="13.45" arrival="469.00" arrivalLane="nt14_np11_0" arrivalPos="75.00" arrivalSpeed="11.09" duration="341.00" routeLength="951.09" waitingTime="193.00" waitingCount="10" stopTime="0.00" timeLoss="263.29" rerouteNo="0" devices="tripinfo_f_0_3.14" vType="type1" speedFactor="1.03" vaporized=""/>
    <tripinfo id="f_0_3.15" depart="138.00" departLane="np3_nt3_0" departPos="0.00" departSpeed="0.00" departDelay="15.27" arrival="471.00" arrivalLane="nt14_np11_0" arrivalPos="75.00" arrivalSpeed="9.99" duration="333.00" routeLength="951.09" waitingTime="183.00" waitingCount="11" stopTime="0.00" timeLoss="260.61" rerouteNo="0" devices="tripinfo_f_0_3.15" vType="type1" speedFactor="1.10" vaporized=""/>
    <tripinfo id="f_0_3.16" depart="178.00" departLane="np3_nt3_0" departPos="0.00" departSpeed="0.00" departDelay="47.09" arrival="475.00" arrivalLane="nt14_np11_0" arrivalPos="75.00" arrivalSpeed="8.70" duration="297.00" routeLength="951.09" waitingTime="146.00" waitingCount="11" stopTime="0.00" timeLoss="210.37" rerouteNo="0" devices="tripinfo_f_0_3.16" vType="type1" speedFactor="0.93" vaporized=""/>
    <tripinfo id="f_0_0.15" depart="205.00" departLane="np13_nt13_0" departPos="22.51" departSpeed="0.00" departDelay="0.46" arrival="479.00" arrivalLane="nt4_np5_0" arrivalPos="75.00" arrivalSpeed="15.02" duration="274.00" routeLength="1325.38" waitingTime="101.00" waitingCount="10" stopTime="0.00" timeLoss="167.87" rerouteNo="0" devices="tripinfo_f_0_0.15" vType="type1" speedFactor="0.87" vaporized=""/>
    <tripinfo id="f_0_3.17" depart="228.00" departLane="np3_nt3_0" departPos="0.00" departSpeed="0.00" departDelay="88.91" arrival="481.00" arrivalLane="nt14_np11_0" arrivalPos="75.00" arrivalSpeed="12.43" duration="253.00" routeLength="951.09" waitingTime="108.00" waitingCount="8" stopTime="0.00" timeLoss="184.03" rerouteNo="0" devices="tripinfo_f_0_3.17" vType="type1" speedFactor="1.16" vaporized=""/>
    <tripinfo id="f_0_3.18" depart="247.00" departLane="np3_nt3_0" departPos="0.00" departSpeed="0.00" departDelay="99.72" arrival="484.00" arrivalLane="nt14_np11_0" arrivalPos="75.00" arrivalSpeed="9.14" duration="237.00" routeLength="951.09" waitingTime="108.00" waitingCount="7" stopTime="0.00" timeLoss="156.86" rerouteNo="0" devices="tripinfo_f_0_3.18" vType="type1" speedFactor="0.99" vaporized=""/>
    <tripinfo id="f_0_2.20" depart="164.00" departLane="np2_nt2_0" departPos="0.76" departSpeed="0.00" departDelay="0.36" arrival="488.00" arrivalLane="nt15_np10_0" arrivalPos="75.00" arrivalSpeed="9.60" duration="324.00" routeLength="950.32" waitingTime="140.00" waitingCount="12" stopTime="0.00" timeLoss="237.43" rerouteNo="0" devices="tripinfo_f_0_2.20" vType="type1" speedFactor="0.93" vaporized=""/>
    <tripinfo id="f_0_0.16" depart="219.00" departLane="np13_nt13_0" departPos="57.41" departSpeed="0.00" departDelay="0.82" arrival="498.00" arrivalLane="nt4_np5_0" arrivalPos="75.00" arrivalSpeed="20.95" duration="279.00" routeLength="1290.48" waitingTime="108.00" waitingCount="11" stopTime="0.00" timeLoss="193.43" rerouteNo="0" devices="tripinfo_f_0_0.16" vType="type1" speedFactor="1.06" vaporized=""/>
    <tripinfo id="f_0_0.17" depart="232.00" departLane="np13_nt13_0" departPos="48.97" departSpeed="0.00" departDelay="0.19" arrival="500.00" arrivalLane="nt4_np5_0" arrivalPos="75.00" arrivalSpeed="17.01" duration="268.00" routeLength="1298.92" waitingTime="106.00" waitingCount="10" stopTime="0.00" timeLoss="162.74" rerouteNo="0" devices="tripinfo_f_0_0.17" vType="type1" speedFactor="0.86" vaporized=""/>
    <tripinfo id="f_0_2.21" depart="172.00" departLane="np2_nt2_0" departPos="26.48" departSpeed="0.00" departDelay="0.18" arrival="501.00" arrivalLane="nt15_np10_0" arrivalPos="75.00" arrivalSpeed="12.06" duration="329.00" routeLength="924.60" waitingTime="146.00" waitingCount="13" stopTime="0.00" timeLoss="259.31" rerouteNo="0" devices="tripinfo_f_0_2.21" vType="type1" speedFactor="1.11" vaporized=""/>