<?xml version="1.0" encoding="UTF-8"?>

<!-- generated on 2023-08-30 12:52:09 by Eclipse SUMO libsumo Version 1.18.0
<configuration xmlns:xsi="http://www.w3.org/2001/XMLSchema-instance" xsi:noNamespaceSchemaLocation="http://sumo.dlr.de/xsd/libsumoConfiguration.xsd">

    <input>
        <net-file value="/home/stefan/RESCO/./environments/arterial4x4/arterial4x4.net.xml"/>
        <route-files value="/home/stefan/RESCO/./environments/arterial4x4/arterial4x4_94.rou.xml"/>
    </input>

    <output>
        <tripinfo-output value="/home/stefan/results/ITRPO-tr0-arterial4x4-0-drq_norm-wait_norm/tripinfo_94.xml"/>
        <tripinfo-output.write-unfinished value="true"/>
    </output>

    <processing>
        <time-to-teleport value="-1"/>
    </processing>

    <report>
        <no-warnings value="True"/>
        <no-step-log value="True"/>
    </report>

    <random_number>
        <random value="true"/>
    </random_number>

</configuration>
-->

<tripinfos xmlns:xsi="http://www.w3.org/2001/XMLSchema-instance" xsi:noNamespaceSchemaLocation="http://sumo.dlr.de/xsd/tripinfo_file.xsd">
    <tripinfo id="f_0_2.0" depart="0.00" departLane="np2_nt2_0" departPos="23.89" departSpeed="0.00" departDelay="0.00" arrival="143.00" arrivalLane="nt15_np10_0" arrivalPos="75.00" arrivalSpeed="8.43" duration="143.00" routeLength="927.19" waitingTime="37.00" waitingCount="4" stopTime="0.00" timeLoss="60.12" rerouteNo="0" devices="tripinfo_f_0_2.0" vType="type1" speedFactor="0.94" vaporized=""/>
    <tripinfo id="f_0_3.0" depart="0.00" departLane="np3_nt3_0" departPos="63.55" departSpeed="0.00" departDelay="0.00" arrival="147.00" arrivalLane="nt14_np11_0" arrivalPos="75.00" arrivalSpeed="10.27" duration="147.00" routeLength="887.54" waitingTime="60.00" waitingCount="2" stopTime="0.00" timeLoss="76.31" rerouteNo="0" devices="tripinfo_f_0_3.0" vType="type1" speedFactor="1.05" vaporized=""/>
    <tripinfo id="f_0_3.1" depart="9.00" departLane="np3_nt3_0" departPos="60.17" departSpeed="0.00" departDelay="0.82" arrival="150.00" arrivalLane="nt14_np11_0" arrivalPos="75.00" arrivalSpeed="8.97" duration="141.00" routeLength="890.92" waitingTime="45.00" waitingCount="3" stopTime="0.00" timeLoss="67.79" rerouteNo="0" devices="tripinfo_f_0_3.1" vType="type1" speedFactor="1.02" vaporized=""/>
    <tripinfo id="f_0_3.2" depart="17.00" departLane="np3_nt3_0" departPos="53.04" departSpeed="0.00" departDelay="0.64" arrival="151.00" arrivalLane="nt14_np11_0" arrivalPos="75.00" arrivalSpeed="11.27" duration="134.00" routeLength="898.05" waitingTime="44.00" waitingCount="3" stopTime="0.00" timeLoss="67.92" rerouteNo="0" devices="tripinfo_f_0_3.2" vType="type1" speedFactor="1.13" vaporized=""/>
    <tripinfo id="f_0_3.3" depart="25.00" departLane="np3_nt3_0" departPos="44.17" departSpeed="0.00" departDelay="0.45" arrival="158.00" arrivalLane="nt14_np11_0" arrivalPos="75.00" arrivalSpeed="9.04" duration="133.00" routeLength="906.92" waitingTime="30.00" waitingCount="5" stopTime="0.00" timeLoss="55.19" rerouteNo="0" devices="tripinfo_f_0_3.3" vType="type1" speedFactor="0.98" vaporized=""/>
    <tripinfo id="f_0_2.1" depart="9.00" departLane="np2_nt2_0" departPos="15.49" departSpeed="0.00" departDelay="0.82" arrival="162.00" arrivalLane="nt15_np10_0" arrivalPos="75.00" arrivalSpeed="10.88" duration="153.00" routeLength="935.59" waitingTime="44.00" waitingCount="5" stopTime="0.00" timeLoss="75.40" rerouteNo="0" devices="tripinfo_f_0_2.1" vType="type1" speedFactor="1.00" vaporized=""/>
    <tripinfo id="f_0_1.0" depart="0.00" departLane="np16_nt1_0" departPos="28.06" departSpeed="0.00" departDelay="0.00" arrival="183.00" arrivalLane="nt16_np8_0" arrivalPos="75.00" arrivalSpeed="19.87" duration="183.00" routeLength="1319.82" waitingTime="57.00" waitingCount="4" stopTime="0.00" timeLoss="93.20" rerouteNo="0" devices="tripinfo_f_0_1.0" vType="type1" speedFactor="1.03" vaporized=""/>
    <tripinfo id="f_0_3.4" depart="33.00" departLane="np3_nt3_0" departPos="50.60" departSpeed="0.00" departDelay="0.27" arrival="189.00" arrivalLane="nt14_np11_0" arrivalPos="75.00" arrivalSpeed="8.92" duration="156.00" routeLength="900.49" waitingTime="38.00" waitingCount="5" stopTime="0.00" timeLoss="68.73" rerouteNo="0" devices="tripinfo_f_0_3.4" vType="type1" speedFactor="0.86" vaporized=""/>
    <tripinfo id="f_0_0.0" depart="0.00" departLane="np13_nt13_0" departPos="32.07" departSpeed="0.00" departDelay="0.00" arrival="194.00" arrivalLane="nt4_np5_0" arrivalPos="75.00" arrivalSpeed="17.84" duration="194.00" routeLength="1315.82" waitingTime="53.00" waitingCount="5" stopTime="0.00" timeLoss="93.98" rerouteNo="0" devices="tripinfo_f_0_0.0" vType="type1" speedFactor="0.92" vaporized=""/>
    <tripinfo id="f_0_3.5" depart="41.00" departLane="np3_nt3_0" departPos="28.76" departSpeed="0.00" departDelay="0.09" arrival="202.00" arrivalLane="nt14_np11_0" arrivalPos="75.00" arrivalSpeed="9.68" duration="161.00" routeLength="922.33" waitingTime="40.00" waitingCount="7" stopTime="0.00" timeLoss="86.05" rerouteNo="0" devices="tripinfo_f_0_3.5" vType="type1" speedFactor="1.03" vaporized=""/>
    <tripinfo id="f_0_2.2" depart="17.00" departLane="np2_nt2_0" departPos="19.40" departSpeed="0.00" departDelay="0.64" arrival="203.00" arrivalLane="nt15_np10_0" arrivalPos="75.00" arrivalSpeed="10.14" duration="186.00" routeLength="931.68" waitingTime="79.00" waitingCount="5" stopTime="0.00" timeLoss="104.78" rerouteNo="0" devices="tripinfo_f_0_2.2" vType="type1" speedFactor="0.96" vaporized=""/>
    <tripinfo id="f_0_2.3" depart="25.00" departLane="np2_nt2_0" departPos="35.45" departSpeed="0.00" departDelay="0.45" arrival="205.00" arrivalLane="nt15_np10_0" arrivalPos="75.00" arrivalSpeed="9.02" duration="180.00" routeLength="915.63" waitingTime="66.00" waitingCount="7" stopTime="0.00" timeLoss="94.61" rerouteNo="0" devices="tripinfo_f_0_2.3" vType="type1" speedFactor="0.90" vaporized=""/>
    <tripinfo id="f_0_0.1" depart="14.00" departLane="np13_nt13_0" departPos="56.48" departSpeed="0.00" departDelay="0.36" arrival="235.00" arrivalLane="nt4_np5_0" arrivalPos="75.00" arrivalSpeed="13.98" duration="221.00" routeLength="1291.41" waitingTime="63.00" waitingCount="6" stopTime="0.00" timeLoss="102.17" rerouteNo="0" devices="tripinfo_f_0_0.1" vType="type1" speedFactor="0.76" vaporized=""/>
    <tripinfo id="f_0_0.2" depart="28.00" departLane="np13_nt13_0" departPos="34.85" departSpeed="0.00" departDelay="0.73" arrival="236.00" arrivalLane="nt4_np5_0" arrivalPos="75.00" arrivalSpeed="18.81" duration="208.00" routeLength="1313.04" waitingTime="62.00" waitingCount="5" stopTime="0.00" timeLoss="117.55" rerouteNo="0" devices="tripinfo_f_0_0.2" vType="type1" speedFactor="1.01" vaporized=""/>
    <tripinfo id="f_0_3.6" depart="50.00" departLane="np3_nt3_0" departPos="20.58" departSpeed="0.00" departDelay="0.91" arrival="237.00" arrivalLane="nt14_np11_0" arrivalPos="75.00" arrivalSpeed="9.90" duration="187.00" routeLength="930.51" waitingTime="57.00" waitingCount="5" stopTime="0.00" timeLoss="110.40" rerouteNo="0" devices="tripinfo_f_0_3.6" vType="type1" speedFactor="1.02" vaporized=""/>
    <tripinfo id="f_0_2.4" depart="33.00" departLane="np2_nt2_0" departPos="36.65" departSpeed="0.00" departDelay="0.27" arrival="244.00" arrivalLane="nt15_np10_0" arrivalPos="75.00" arrivalSpeed="9.07" duration="211.00" routeLength="914.43" waitingTime="84.00" waitingCount="6" stopTime="0.00" timeLoss="121.69" rerouteNo="0" devices="tripinfo_f_0_2.4" vType="type1" speedFactor="0.86" vaporized=""/>
    <tripinfo id="f_0_2.5" depart="41.00" departLane="np2_nt2_0" departPos="58.06" departSpeed="0.00" departDelay="0.09" arrival="246.00" arrivalLane="nt15_np10_0" arrivalPos="75.00" arrivalSpeed="9.74" duration="205.00" routeLength="893.02" waitingTime="83.00" waitingCount="5" stopTime="0.00" timeLoss="120.07" rerouteNo="0" devices="tripinfo_f_0_2.5" vType="type1" speedFactor="0.89" vaporized=""/>
    <tripinfo id="f_0_2.6" depart="50.00" departLane="np2_nt2_0" departPos="29.93" departSpeed="0.00" departDelay="0.91" arrival="248.00" arrivalLane="nt15_np10_0" arrivalPos="75.00" arrivalSpeed="9.24" duration="198.00" routeLength="921.15" waitingTime="76.00" waitingCount="4" stopTime="0.00" timeLoss="119.31" rerouteNo="0" devices="tripinfo_f_0_2.6" vType="type1" speedFactor="0.98" vaporized=""/>
    <tripinfo id="f_0_2.7" depart="58.00" departLane="np2_nt2_0" departPos="41.81" departSpeed="0.00" departDelay="0.73" arrival="249.00" arrivalLane="nt15_np10_0" arrivalPos="75.00" arrivalSpeed="11.25" duration="191.00" routeLength="909.27" waitingTime="81.00" waitingCount="6" stopTime="0.00" timeLoss="121.16" rerouteNo="0" devices="tripinfo_f_0_2.7" vType="type1" speedFactor="1.08" vaporized=""/>
    <tripinfo id="f_0_2.8" depart="66.00" departLane="np2_nt2_0" departPos="45.32" departSpeed="0.00" departDelay="0.54" arrival="251.00" arrivalLane="nt15_np10_0" arrivalPos="75.00" arrivalSpeed="11.08" duration="185.00" routeLength="905.76" waitingTime="75.00" waitingCount="4" stopTime="0.00" timeLoss="116.71" rerouteNo="0" devices="tripinfo_f_0_2.8" vType="type1" speedFactor="1.11" vaporized=""/>
    <tripinfo id="f_0_3.7" depart="58.00" departLane="np3_nt3_0" departPos="21.78" departSpeed="0.00" departDelay="0.73" arrival="252.00" arrivalLane="nt14_np11_0" arrivalPos="75.00" arrivalSpeed="10.35" duration="194.00" routeLength="929.31" waitingTime="81.00" waitingCount="7" stopTime="0.00" timeLoss="123.33" rerouteNo="0" devices="tripinfo_f_0_3.7" vType="type1" speedFactor="1.11" vaporized=""/>
    <tripinfo id="f_0_3.8" depart="66.00" departLane="np3_nt3_0" departPos="25.46" departSpeed="0.00" departDelay="0.54" arrival="286.00" arrivalLane="nt14_np11_0" arrivalPos="75.00" arrivalSpeed="10.59" duration="220.00" routeLength="925.63" waitingTime="128.00" waitingCount="7" stopTime="0.00" timeLoss="153.81" rerouteNo="0" devices="tripinfo_f_0_3.8" vType="type1" speedFactor="1.17" vaporized=""/>
    <tripinfo id="f_0_2.9" depart="74.00" departLane="np2_nt2_0" departPos="4.18" departSpeed="0.00" departDelay="0.36" arrival="302.00" arrivalLane="nt15_np10_0" arrivalPos="75.00" arrivalSpeed="9.88" duration="228.00" routeLength="946.90" waitingTime="80.00" waitingCount="7" stopTime="0.00" timeLoss="149.08" rerouteNo="0" devices="tripinfo_f_0_2.9" vType="type1" speedFactor="1.01" vaporized=""/>
    <tripinfo id="f_0_3.9" depart="74.00" departLane="np3_nt3_0" departPos="35.36" departSpeed="0.00" departDelay="0.36" arrival="302.00" arrivalLane="nt14_np11_0" arrivalPos="75.00" arrivalSpeed="10.98" duration="228.00" routeLength="915.73" waitingTime="120.00" waitingCount="7" stopTime="0.00" timeLoss="152.05" rerouteNo="0" devices="tripinfo_f_0_3.9" vType="type1" speedFactor="1.00" vaporized=""/>
    <tripinfo id="f_0_1.1" depart="14.00" departLane="np16_nt1_0" departPos="10.80" departSpeed="0.00" departDelay="0.36" arrival="304.00" arrivalLane="nt16_np8_0" arrivalPos="75.00" arrivalSpeed="15.35" duration="290.00" routeLength="1337.08" waitingTime="123.00" waitingCount="8" stopTime="0.00" timeLoss="180.16" rerouteNo="0" devices="tripinfo_f_0_1.1" vType="type1" speedFactor="0.84" vaporized=""/>
    <tripinfo id="f_0_3.10" depart="82.00" departLane="np3_nt3_0" departPos="14.77" departSpeed="0.00" departDelay="0.18" arrival="304.00" arrivalLane="nt14_np11_0" arrivalPos="75.00" arrivalSpeed="10.98" duration="222.00" routeLength="936.32" waitingTime="103.00" waitingCount="6" stopTime="0.00" timeLoss="143.67" rerouteNo="0" devices="tripinfo_f_0_3.10" vType="type1" speedFactor="1.00" vaporized=""/>
    <tripinfo id="f_0_1.2" depart="28.00" departLane="np16_nt1_0" departPos="8.09" departSpeed="0.00" departDelay="0.73" arrival="305.00" arrivalLane="nt16_np8_0" arrivalPos="75.00" arrivalSpeed="19.71" duration="277.00" routeLength="1339.79" waitingTime="109.00" waitingCount="8" stopTime="0.00" timeLoss="197.59" rerouteNo="0" devices="tripinfo_f_0_1.2" vType="type1" speedFactor="1.17" vaporized=""/>
    <tripinfo id="f_0_3.11" depart="90.00" departLane="np3_nt3_0" departPos="22.98" departSpeed="0.00" departDelay="0.00" arrival="307.00" arrivalLane="nt14_np11_0" arrivalPos="75.00" arrivalSpeed="8.80" duration="217.00" routeLength="928.11" waitingTime="100.00" waitingCount="6" stopTime="0.00" timeLoss="134.56" rerouteNo="0" devices="tripinfo_f_0_3.11" vType="type1" speedFactor="0.94" vaporized=""/>
    <tripinfo id="f_0_2.10" depart="82.00" departLane="np2_nt2_0" departPos="38.60" departSpeed="0.00" departDelay="0.18" arrival="309.00" arrivalLane="nt15_np10_0" arrivalPos="75.00" arrivalSpeed="9.45" duration="227.00" routeLength="912.48" waitingTime="74.00" waitingCount="6" stopTime="0.00" timeLoss="138.47" rerouteNo="0" devices="tripinfo_f_0_2.10" vType="type1" speedFactor="0.86" vaporized=""/>
    <tripinfo id="f_0_3.12" depart="99.00" departLane="np3_nt3_0" departPos="12.23" departSpeed="0.00" departDelay="0.82" arrival="309.00" arrivalLane="nt14_np11_0" arrivalPos="75.00" arrivalSpeed="10.39" duration="210.00" routeLength="938.86" waitingTime="88.00" waitingCount="5" stopTime="0.00" timeLoss="130.75" rerouteNo="0" devices="tripinfo_f_0_3.12" vType="type1" speedFactor="1.00" vaporized=""/>
    <tripinfo id="f_0_0.3" depart="41.00" departLane="np13_nt13_0" departPos="4.38" departSpeed="0.00" departDelay="0.09" arrival="324.00" arrivalLane="nt4_np5_0" arrivalPos="75.00" arrivalSpeed="19.21" duration="283.00" routeLength="1343.51" waitingTime="131.00" waitingCount="7" stopTime="0.00" timeLoss="190.63" rerouteNo="0" devices="tripinfo_f_0_0.3" vType="type1" speedFactor="1.02" vaporized=""/>
    <tripinfo id="f_0_0.4" depart="55.00" departLane="np13_nt13_0" departPos="26.25" departSpeed="0.00" departDelay="0.46" arrival="325.00" arrivalLane="nt4_np5_0" arrivalPos="75.00" arrivalSpeed="17.42" duration="270.00" routeLength="1321.64" waitingTime="117.00" waitingCount="8" stopTime="0.00" timeLoss="170.66" rerouteNo="0" devices="tripinfo_f_0_0.4" vType="type1" speedFactor="0.92" vaporized=""/>
    <tripinfo id="f_0_0.5" depart="69.00" departLane="np13_nt13_0" departPos="62.31" departSpeed="0.00" departDelay="0.82" arrival="330.00" arrivalLane="nt4_np5_0" arrivalPos="75.00" arrivalSpeed="20.06" duration="261.00" routeLength="1285.58" waitingTime="118.00" waitingCount="7" stopTime="0.00" timeLoss="177.41" rerouteNo="0" devices="tripinfo_f_0_0.5" vType="type1" speedFactor="1.08" vaporized=""/>
    <tripinfo id="f_0_1.3" depart="41.00" departLane="np16_nt1_0" departPos="55.90" departSpeed="0.00" departDelay="0.09" arrival="338.00" arrivalLane="nt16_np8_0" arrivalPos="75.00" arrivalSpeed="19.34" duration="297.00" routeLength="1291.98" waitingTime="122.00" waitingCount="7" stopTime="0.00" timeLoss="210.13" rerouteNo="0" devices="tripinfo_f_0_1.3" vType="type1" speedFactor="1.05" vaporized=""/>
    <tripinfo id="f_0_2.11" depart="90.00" departLane="np2_nt2_0" departPos="39.23" departSpeed="0.00" departDelay="0.00" arrival="347.00" arrivalLane="nt15_np10_0" arrivalPos="75.00" arrivalSpeed="9.19" duration="257.00" routeLength="911.85" waitingTime="116.00" waitingCount="7" stopTime="0.00" timeLoss="184.52" rerouteNo="0" devices="tripinfo_f_0_2.11" vType="type1" speedFactor="1.06" vaporized=""/>
    <tripinfo id="f_0_0.6" depart="82.00" departLane="np13_nt13_0" departPos="60.78" departSpeed="0.00" departDelay="0.18" arrival="348.00" arrivalLane="nt4_np5_0" arrivalPos="75.00" arrivalSpeed="16.80" duration="266.00" routeLength="1287.11" waitingTime="114.00" waitingCount="8" stopTime="0.00" timeLoss="160.82" rerouteNo="0" devices="tripinfo_f_0_0.6" vType="type1" speedFactor="0.86" vaporized=""/>
    <tripinfo id="f_0_3.13" depart="107.00" departLane="np3_nt3_0" departPos="22.21" departSpeed="0.00" departDelay="0.63" arrival="353.00" arrivalLane="nt14_np11_0" arrivalPos="75.00" arrivalSpeed="9.95" duration="246.00" routeLength="928.88" waitingTime="116.00" waitingCount="7" stopTime="0.00" timeLoss="160.89" rerouteNo="0" devices="tripinfo_f_0_3.13" vType="type1" speedFactor="0.92" vaporized=""/>
    <tripinfo id="f_0_0.7" depart="96.00" departLane="np13_nt13_0" departPos="24.39" departSpeed="0.00" departDelay="0.55" arrival="356.00" arrivalLane="nt4_np5_0" arrivalPos="75.00" arrivalSpeed="18.03" duration="260.00" routeLength="1323.50" waitingTime="115.00" waitingCount="9" stopTime="0.00" timeLoss="160.93" rerouteNo="0" devices="tripinfo_f_0_0.7" vType="type1" speedFactor="0.93" vaporized=""/>
    <tripinfo id="f_0_0.8" depart="110.00" departLane="np13_nt13_0" departPos="11.84" departSpeed="0.00" departDelay="0.91" arrival="357.00" arrivalLane="nt4_np5_0" arrivalPos="75.00" arrivalSpeed="19.48" duration="247.00" routeLength="1336.05" waitingTime="107.00" waitingCount="8" stopTime="0.00" timeLoss="156.38" rerouteNo="0" devices="tripinfo_f_0_0.8" vType="type1" speedFactor="1.02" vaporized=""/>
    <tripinfo id="f_0_3.14" depart="115.00" departLane="np3_nt3_0" departPos="13.32" departSpeed="0.00" departDelay="0.45" arrival="369.00" arrivalLane="nt14_np11_0" arrivalPos="75.00" arrivalSpeed="10.37" duration="254.00" routeLength="937.77" waitingTime="133.00" waitingCount="5" stopTime="0.00" timeLoss="172.25" rerouteNo="0" devices="tripinfo_f_0_3.14" vType="type1" speedFactor="0.97" vaporized=""/>
    <tripinfo id="f_0_0.9" depart="123.00" departLane="np13_nt13_0" departPos="31.76" departSpeed="0.00" departDelay="0.28" arrival="373.00" arrivalLane="nt4_np5_0" arrivalPos="75.00" arrivalSpeed="17.64" duration="250.00" routeLength="1316.13" waitingTime="89.00" waitingCount="13" stopTime="0.00" timeLoss="158.28" rerouteNo="0" devices="tripinfo_f_0_0.9" vType="type1" speedFactor="1.00" vaporized=""/>
    <tripinfo id="f_0_1.4" depart="55.00" departLane="np16_nt1_0" departPos="2.69" departSpeed="0.00" departDelay="0.46" arrival="374.00" arrivalLane="nt16_np8_0" arrivalPos="75.00" arrivalSpeed="15.45" duration="319.00" routeLength="1345.19" waitingTime="127.00" waitingCount="11" stopTime="0.00" timeLoss="209.76" rerouteNo="0" devices="tripinfo_f_0_1.4" vType="type1" speedFactor="0.86" vaporized=""/>
    <tripinfo id="f_0_1.5" depart="69.00" departLane="np16_nt1_0" departPos="10.63" departSpeed="0.00" departDelay="0.82" arrival="375.00" arrivalLane="nt16_np8_0" arrivalPos="75.00" arrivalSpeed="19.34" duration="306.00" routeLength="1337.25" waitingTime="121.00" waitingCount="10" stopTime="0.00" timeLoss="213.17" rerouteNo="0" devices="tripinfo_f_0_1.5" vType="type1" speedFactor="1.00" vaporized=""/>
    <tripinfo id="f_0_1.6" depart="82.00" departLane="np16_nt1_0" departPos="45.44" departSpeed="0.00" departDelay="0.18" arrival="377.00" arrivalLane="nt16_np8_0" arrivalPos="75.00" arrivalSpeed="19.05" duration="295.00" routeLength="1302.44" waitingTime="103.00" waitingCount="11" stopTime="0.00" timeLoss="207.49" rerouteNo="0" devices="tripinfo_f_0_1.6" vType="type1" speedFactor="1.04" vaporized=""/>
    <tripinfo id="f_0_2.12" depart="99.00" departLane="np2_nt2_0" departPos="60.56" departSpeed="0.00" departDelay="0.82" arrival="377.00" arrivalLane="nt15_np10_0" arrivalPos="75.00" arrivalSpeed="10.75" duration="278.00" routeLength="890.52" waitingTime="112.00" waitingCount="9" stopTime="0.00" timeLoss="203.37" rerouteNo="0" devices="tripinfo_f_0_2.12" vType="type1" speedFactor="1.00" vaporized=""/>
    <tripinfo id="f_0_2.13" depart="107.00" departLane="np2_nt2_0" departPos="41.66" departSpeed="0.00" departDelay="0.63" arrival="379.00" arrivalLane="nt15_np10_0" arrivalPos="75.00" arrivalSpeed="10.49" duration="272.00" routeLength="909.42" waitingTime="101.00" waitingCount="8" stopTime="0.00" timeLoss="196.99" rerouteNo="0" devices="tripinfo_f_0_2.13" vType="type1" speedFactor="1.01" vaporized=""/>
    <tripinfo id="f_0_0.10" depart="137.00" departLane="np13_nt13_0" departPos="28.47" departSpeed="0.00" departDelay="0.64" arrival="383.00" arrivalLane="nt4_np5_0" arrivalPos="75.00" arrivalSpeed="20.70" duration="246.00" routeLength="1319.42" waitingTime="80.00" waitingCount="11" stopTime="0.00" timeLoss="162.72" rerouteNo="0" devices="tripinfo_f_0_0.10" vType="type1" speedFactor="1.10" vaporized=""/>
    <tripinfo id="f_0_3.15" depart="123.00" departLane="np3_nt3_0" departPos="0.49" departSpeed="0.00" departDelay="0.27" arrival="392.00" arrivalLane="nt14_np11_0" arrivalPos="75.00" arrivalSpeed="9.74" duration="269.00" routeLength="950.60" waitingTime="144.00" waitingCount="8" stopTime="0.00" timeLoss="188.80" rerouteNo="0" devices="tripinfo_f_0_3.15" vType="type1" speedFactor="0.99" vaporized=""/>
    <tripinfo id="f_0_0.11" depart="150.00" departLane="np13_nt13_0" departPos="26.65" departSpeed="0.00" departDelay="0.00" arrival="402.00" arrivalLane="nt4_np5_0" arrivalPos="75.00" arrivalSpeed="16.96" duration="252.00" routeLength="1321.24" waitingTime="84.00" waitingCount="8" stopTime="0.00" timeLoss="151.10" rerouteNo="0" devices="tripinfo_f_0_0.11" vType="type1" speedFactor="0.91" vaporized=""/>
    <tripinfo id="f_0_3.16" depart="131.00" departLane="np3_nt3_0" departPos="0.00" departSpeed="0.00" departDelay="0.09" arrival="404.00" arrivalLane="nt14_np11_0" arrivalPos="75.00" arrivalSpeed="10.47" duration="273.00" routeLength="951.09" waitingTime="140.00" waitingCount="7" stopTime="0.00" timeLoss="189.58" rerouteNo="0" devices="tripinfo_f_0_3.16" vType="type1" speedFactor="0.97" vaporized=""/>
    <tripinfo id="f_0_2.14" depart="115.00" departLane="np2_nt2_0" departPos="33.25" departSpeed="0.00" departDelay="0.45" arrival="408.00" arrivalLane="nt15_np10_0" arrivalPos="75.00" arrivalSpeed="9.13" duration="293.00" routeLength="917.83" waitingTime="107.00" waitingCount="9" stopTime="0.00" timeLoss="213.49" rerouteNo="0" devices="tripinfo_f_0_2.14" vType="type1" speedFactor="0.97" vaporized=""/>
    <tripinfo id="f_0_1.7" depart="96.00" departLane="np16_nt1_0" departPos="45.04" departSpeed="0.00" departDelay="0.55" arrival="413.00" arrivalLane="nt16_np8_0" arrivalPos="75.00" arrivalSpeed="19.04" duration="317.00" routeLength="1302.84" waitingTime="115.00" waitingCount="10" stopTime="0.00" timeLoss="221.37" rerouteNo="0" devices="tripinfo_f_0_1.7" vType="type1" speedFactor="0.95" vaporized=""/>
    <tripinfo id="f_0_2.15" depart="123.00" departLane="np2_nt2_0" departPos="48.20" departSpeed="0.00" departDelay="0.27" arrival="413.00" arrivalLane="nt15_np10_0" arrivalPos="75.00" arrivalSpeed="8.57" duration="290.00" routeLength="902.88" waitingTime="108.00" waitingCount="9" stopTime="0.00" timeLoss="214.42" rerouteNo="0" devices="tripinfo_f_0_2.15" vType="type1" speedFactor="1.00" vaporized=""/>
    <tripinfo id="f_0_0.12" depart="164.00" departLane="np13_nt13_0" departPos="34.68" departSpeed="0.00" departDelay="0.37" arrival="419.00" arrivalLane="nt4_np5_0" arrivalPos="75.00" arrivalSpeed="13.87" duration="255.00" routeLength="1313.21" waitingTime="76.00" waitingCount="9" stopTime="0.00" timeLoss="138.67" rerouteNo="0" devices="tripinfo_f_0_0.12" vType="type1" speedFactor="0.79" vaporized=""/>
    <tripinfo id="f_0_0.13" depart="178.00" departLane="np13_nt13_0" departPos="6.73" departSpeed="0.00" departDelay="0.73" arrival="421.00" arrivalLane="nt4_np5_0" arrivalPos="75.00" arrivalSpeed="16.52" duration="243.00" routeLength="1341.16" waitingTime="55.00" waitingCount="9" stopTime="0.00" timeLoss="142.93" rerouteNo="0" devices="tripinfo_f_0_0.13" vType="type1" speedFactor="0.93" vaporized=""/>
    <tripinfo id="f_0_1.8" depart="110.00" departLane="np16_nt1_0" departPos="8.96" departSpeed="0.00" departDelay="0.91" arrival="428.00" arrivalLane="nt16_np8_0" arrivalPos="75.00" arrivalSpeed="17.68" duration="318.00" routeLength="1338.92" waitingTime="113.00" waitingCount="10" stopTime="0.00" timeLoss="215.61" rerouteNo="0" devices="tripinfo_f_0_1.8" vType="type1" speedFactor="0.91" vaporized=""/>
    <tripinfo id="f_0_0.14" depart="191.00" departLane="np13_nt13_0" departPos="56.17" departSpeed="0.00" departDelay="0.10" arrival="428.00" arrivalLane="nt4_np5_0" arrivalPos="75.00" arrivalSpeed="20.49" duration="237.00" routeLength="1291.72" waitingTime="65.00" waitingCount="9" stopTime="0.00" timeLoss="157.31" rerouteNo="0" devices="tripinfo_f_0_0.14" vType="type1" speedFactor="1.14" vaporized=""/>
    <tripinfo id="f_0_2.16" depart="131.00" departLane="np2_nt2_0" departPos="15.44" departSpeed="0.00" departDelay="0.09" arrival="437.00" arrivalLane="nt15_np10_0" arrivalPos="75.00" arrivalSpeed="9.88" duration="306.00" routeLength="935.64" waitingTime="122.00" waitingCount="10" stopTime="0.00" timeLoss="225.82" rerouteNo="0" devices="tripinfo_f_0_2.16" vType="type1" speedFactor="0.99" vaporized=""/>
    <tripinfo id="f_0_2.17" depart="140.00" departLane="np2_nt2_0" departPos="34.33" departSpeed="0.00" departDelay="0.91" arrival="439.00" arrivalLane="nt15_np10_0" arrivalPos="75.00" arrivalSpeed="9.17" duration="299.00" routeLength="916.75" waitingTime="131.00" waitingCount="9" stopTime="0.00" timeLoss="218.72" rerouteNo="0" devices="tripinfo_f_0_2.17" vType="type1" speedFactor="0.96" vaporized=""/>
    <tripinfo id="f_0_3.17" depart="149.00" departLane="np3_nt3_0" departPos="0.00" departSpeed="0.00" departDelay="9.91" arrival="444.00" arrivalLane="nt14_np11_0" arrivalPos="75.00" arrivalSpeed="7.89" duration="295.00" routeLength="951.09" waitingTime="153.00" waitingCount="9" stopTime="0.00" timeLoss="208.76" rerouteNo="0" devices="tripinfo_f_0_3.17" vType="type1" speedFactor="0.93" vaporized=""/>
    <tripinfo id="f_0_3.18" depart="177.00" departLane="np3_nt3_0" departPos="0.00" departSpeed="0.00" departDelay="29.72" arrival="445.00" arrivalLane="nt14_np11_0" arrivalPos="75.00" arrivalSpeed="9.01" duration="268.00" routeLength="951.09" waitingTime="126.00" waitingCount="9" stopTime="0.00" timeLoss="186.38" rerouteNo="0" devices="tripinfo_f_0_3.18" vType="type1" speedFactor="0.97" vaporized=""/>
    <tripinfo id="f_0_0.15" depart="205.00" departLane="np13_nt13_0" departPos="50.10" departSpeed="0.00" departDelay="0.46" arrival="449.00" arrivalLane="nt4_np5_0" arrivalPos="75.00" arrivalSpeed="20.45" duration="244.00" routeLength="1297.79" waitingTime="88.00" waitingCount="9" stopTime="0.00" timeLoss="162.51" rerouteNo="0" devices="tripinfo_f_0_0.15" vType="type1" speedFactor="1.11" vaporized=""/>
    <tripinfo id="f_0_1.9" depart="123.00" departLane="np16_nt1_0" departPos="45.14" departSpeed="0.00" departDelay="0.28" arrival="463.00" arrivalLane="nt16_np8_0" arrivalPos="75.00" arrivalSpeed="20.32" duration="340.00" routeLength="1302.74" waitingTime="160.00" waitingCount="12" stopTime="0.00" timeLoss="254.06" rerouteNo="0" devices="tripinfo_f_0_1.9" vType="type1" speedFactor="1.06" vaporized=""/>
    <tripinfo id="f_0_2.18" depart="148.00" departLane="np2_nt2_0" departPos="3.42" departSpeed="0.00" departDelay="0.72" arrival="463.00" arrivalLane="nt15_np10_0" arrivalPos="75.00" arrivalSpeed="9.13" duration="315.00" routeLength="947.66" waitingTime="139.00" waitingCount="12" stopTime="0.00" timeLoss="225.39" rerouteNo="0" devices="tripinfo_f_0_2.18" vType="type1" speedFactor="0.89" vaporized=""/>
    <tripinfo id="f_0_2.19" depart="156.00" departLane="np2_nt2_0" departPos="47.98" departSpeed="0.00" departDelay="0.54" arrival="474.00" arrivalLane="nt15_np10_0" arrivalPos="75.00" arrivalSpeed="8.75" duration="318.00" routeLength="903.10" waitingTime="133.00" waitingCount="11" stopTime="0.00" timeLoss="227.98" rerouteNo="0" devices="tripinfo_f_0_2.19" vType="type1" speedFactor="0.84" vaporized=""/>
    <tripinfo id="f_0_3.19" depart="181.00" departLane="np3_nt3_0" departPos="0.00" departSpeed="0.00" departDelay="25.54" arrival="474.00" arrivalLane="nt14_np11_0" arrivalPos="75.00" arrivalSpeed="8.21" duration="293.00" routeLength="951.09" waitingTime="136.00" waitingCount="12" stopTime="0.00" timeLoss="197.49" rerouteNo="0" devices="tripinfo_f_0_3.19" vType="type1" speedFactor="0.84" vaporized=""/>
    <tripinfo id="f_0_2.20" depart="164.00" departLane="np2_nt2_0" departPos="23.52" departSpeed="0.00" departDelay="0.36" arrival="476.00" arrivalLane="nt15_np10_0" arrivalPos="75.00" arrivalSpeed="8.95" duration="312.00" routeLength="927.56" waitingTime="128.00" waitingCount="12" stopTime="0.00" timeLoss="227.39" rerouteNo="0" devices="tripinfo_f_0_2.20" vType="type1" speedFactor="0.93" vaporized=""/>
    <tripinfo id="f_0_3.20" depart="207.00" departLane="np3_nt3_0" departPos="0.00" departSpeed="0.00" departDelay="43.36" arrival="476.00" arrivalLane="nt14_np11_0" arrivalPos="75.00" arrivalSpeed="10.46" duration="269.00" routeLength="951.09" waitingTime="120.00" waitingCount="12" stopTime="0.00" timeLoss="199.20" rerouteNo="0" devices="tripinfo_f_0_3.20" vType="type1" speedFactor="1.15" vaporized=""/>
    <tripinfo id="f_0_0.16" depart="219.00" departLane="np13_nt13_0" departPos="33.99" departSpeed="0.00" departDelay="0.82" arrival="483.00" arrivalLane="nt4_np5_0" arrivalPos="75.00" arrivalSpeed="23.66" duration="264.00" routeLength="1313.90" waitingTime="92.00" waitingCount="11" stopTime="0.00" timeLoss="187.61" rerouteNo="0" devices="tripinfo_f_0_0.16" vType="type1" speedFactor="1.20" vaporized=""/>
    <tripinfo id="f_0_0.17" depart="232.00" departLane="np13_nt13_0" departPos="29.37" departSpeed="0.00" departDelay="0.19" arrival="485.00" arrivalLane="nt4_np5_0" arrivalPos="75.00" arrivalSpeed="18.65" duration="253.00" routeLength="1318.52" waitingTime="79.00" waitingCount="10" stopTime="0.00" timeLoss="157.60" rerouteNo="0" devices="tripinfo_f_0_0.17" vType="type1" speedFactor="0.96" vaporized=""/>
    <tripinfo id="f_0_0.18" depart="246.00" departLane="np13_nt13_0" departPos="13.90" departSpeed="0.00" departDelay="0.55" arrival="487.00" arrivalLane="nt4_np5_0" arrivalPos="75.00" arrivalSpeed="19.52" duration="241.00" routeLength="1333.99" waitingTime="69.00" waitingCount="10" stopTime="0.00" timeLoss="145.37" rerouteNo="0" devices="tripinfo_f_0_0.18" vType="type1" speedFactor="0.98" vaporized=""/>