<?xml version="1.0" encoding="UTF-8"?>

<!-- generated on 2023-08-30 12:42:51 by Eclipse SUMO libsumo Version 1.18.0
<configuration xmlns:xsi="http://www.w3.org/2001/XMLSchema-instance" xsi:noNamespaceSchemaLocation="http://sumo.dlr.de/xsd/libsumoConfiguration.xsd">

    <input>
        <net-file value="/home/stefan/RESCO/./environments/arterial4x4/arterial4x4.net.xml"/>
        <route-files value="/home/stefan/RESCO/./environments/arterial4x4/arterial4x4_66.rou.xml"/>
    </input>

    <output>
        <tripinfo-output value="/home/stefan/results/ITRPO-tr0-arterial4x4-0-drq_norm-wait_norm/tripinfo_66.xml"/>
        <tripinfo-output.write-unfinished value="true"/>
    </output>

    <processing>
        <time-to-teleport value="-1"/>
    </processing>

    <report>
        <no-warnings value="True"/>
        <no-step-log value="True"/>
    </report>

    <random_number>
        <random value="true"/>
    </random_number>

</configuration>
-->

<tripinfos xmlns:xsi="http://www.w3.org/2001/XMLSchema-instance" xsi:noNamespaceSchemaLocation="http://sumo.dlr.de/xsd/tripinfo_file.xsd">
    <tripinfo id="f_0_0.0" depart="0.00" departLane="np13_nt13_0" departPos="41.81" departSpeed="0.00" departDelay="0.00" arrival="128.00" arrivalLane="nt4_np5_0" arrivalPos="75.00" arrivalSpeed="23.86" duration="128.00" routeLength="1306.08" waitingTime="24.00" waitingCount="4" stopTime="0.00" timeLoss="53.83" rerouteNo="0" devices="tripinfo_f_0_0.0" vType="type1" speedFactor="1.24" vaporized=""/>
    <tripinfo id="f_0_2.0" depart="0.00" departLane="np2_nt2_0" departPos="19.30" departSpeed="0.00" departDelay="0.00" arrival="142.00" arrivalLane="nt15_np10_0" arrivalPos="75.00" arrivalSpeed="10.04" duration="142.00" routeLength="931.78" waitingTime="36.00" waitingCount="3" stopTime="0.00" timeLoss="58.14" rerouteNo="0" devices="tripinfo_f_0_2.0" vType="type1" speedFactor="0.93" vaporized=""/>
    <tripinfo id="f_0_3.0" depart="0.00" departLane="np3_nt3_0" departPos="24.57" departSpeed="0.00" departDelay="0.00" arrival="153.00" arrivalLane="nt14_np11_0" arrivalPos="75.00" arrivalSpeed="9.92" duration="153.00" routeLength="926.52" waitingTime="45.00" waitingCount="3" stopTime="0.00" timeLoss="68.26" rerouteNo="0" devices="tripinfo_f_0_3.0" vType="type1" speedFactor="0.92" vaporized=""/>
    <tripinfo id="f_0_3.1" depart="9.00" departLane="np3_nt3_0" departPos="15.08" departSpeed="0.00" departDelay="0.82" arrival="155.00" arrivalLane="nt14_np11_0" arrivalPos="75.00" arrivalSpeed="8.38" duration="146.00" routeLength="936.01" waitingTime="41.00" waitingCount="3" stopTime="0.00" timeLoss="65.22" rerouteNo="0" devices="tripinfo_f_0_3.1" vType="type1" speedFactor="0.97" vaporized=""/>
    <tripinfo id="f_0_1.0" depart="0.00" departLane="np16_nt1_0" departPos="33.36" departSpeed="0.00" departDelay="0.00" arrival="163.00" arrivalLane="nt16_np8_0" arrivalPos="75.00" arrivalSpeed="16.42" duration="163.00" routeLength="1314.52" waitingTime="31.00" waitingCount="2" stopTime="0.00" timeLoss="55.25" rerouteNo="0" devices="tripinfo_f_0_1.0" vType="type1" speedFactor="0.85" vaporized=""/>
    <tripinfo id="f_0_0.1" depart="14.00" departLane="np13_nt13_0" departPos="30.05" departSpeed="0.00" departDelay="0.36" arrival="173.00" arrivalLane="nt4_np5_0" arrivalPos="75.00" arrivalSpeed="17.58" duration="159.00" routeLength="1317.84" waitingTime="35.00" waitingCount="4" stopTime="0.00" timeLoss="63.80" rerouteNo="0" devices="tripinfo_f_0_0.1" vType="type1" speedFactor="0.96" vaporized=""/>
    <tripinfo id="f_0_2.1" depart="9.00" departLane="np2_nt2_0" departPos="13.30" departSpeed="0.00" departDelay="0.82" arrival="176.00" arrivalLane="nt15_np10_0" arrivalPos="75.00" arrivalSpeed="10.95" duration="167.00" routeLength="937.78" waitingTime="68.00" waitingCount="7" stopTime="0.00" timeLoss="100.65" rerouteNo="0" devices="tripinfo_f_0_2.1" vType="type1" speedFactor="1.18" vaporized=""/>
    <tripinfo id="f_0_0.2" depart="28.00" departLane="np13_nt13_0" departPos="17.84" departSpeed="0.00" departDelay="0.73" arrival="184.00" arrivalLane="nt4_np5_0" arrivalPos="75.00" arrivalSpeed="20.16" duration="156.00" routeLength="1330.05" waitingTime="34.00" waitingCount="4" stopTime="0.00" timeLoss="71.71" rerouteNo="0" devices="tripinfo_f_0_0.2" vType="type1" speedFactor="1.11" vaporized=""/>
    <tripinfo id="f_0_2.2" depart="17.00" departLane="np2_nt2_0" departPos="45.83" departSpeed="0.00" departDelay="0.64" arrival="187.00" arrivalLane="nt15_np10_0" arrivalPos="75.00" arrivalSpeed="9.27" duration="170.00" routeLength="905.25" waitingTime="58.00" waitingCount="7" stopTime="0.00" timeLoss="96.76" rerouteNo="0" devices="tripinfo_f_0_2.2" vType="type1" speedFactor="1.05" vaporized=""/>
    <tripinfo id="f_0_2.3" depart="25.00" departLane="np2_nt2_0" departPos="0.98" departSpeed="0.00" departDelay="0.45" arrival="189.00" arrivalLane="nt15_np10_0" arrivalPos="75.00" arrivalSpeed="9.49" duration="164.00" routeLength="950.10" waitingTime="48.00" waitingCount="6" stopTime="0.00" timeLoss="85.88" rerouteNo="0" devices="tripinfo_f_0_2.3" vType="type1" speedFactor="1.02" vaporized=""/>
    <tripinfo id="f_0_3.2" depart="17.00" departLane="np3_nt3_0" departPos="30.58" departSpeed="0.00" departDelay="0.64" arrival="199.00" arrivalLane="nt14_np11_0" arrivalPos="75.00" arrivalSpeed="8.60" duration="182.00" routeLength="920.51" waitingTime="65.00" waitingCount="5" stopTime="0.00" timeLoss="91.76" rerouteNo="0" devices="tripinfo_f_0_3.2" vType="type1" speedFactor="0.85" vaporized=""/>
    <tripinfo id="f_0_2.4" depart="33.00" departLane="np2_nt2_0" departPos="18.68" departSpeed="0.00" departDelay="0.27" arrival="213.00" arrivalLane="nt15_np10_0" arrivalPos="75.00" arrivalSpeed="9.79" duration="180.00" routeLength="932.40" waitingTime="46.00" waitingCount="8" stopTime="0.00" timeLoss="97.45" rerouteNo="0" devices="tripinfo_f_0_2.4" vType="type1" speedFactor="0.96" vaporized=""/>
    <tripinfo id="f_0_0.3" depart="41.00" departLane="np13_nt13_0" departPos="67.63" departSpeed="0.00" departDelay="0.09" arrival="213.00" arrivalLane="nt4_np5_0" arrivalPos="75.00" arrivalSpeed="17.83" duration="172.00" routeLength="1280.26" waitingTime="41.00" waitingCount="7" stopTime="0.00" timeLoss="83.06" rerouteNo="0" devices="tripinfo_f_0_0.3" vType="type1" speedFactor="1.01" vaporized=""/>
    <tripinfo id="f_0_2.5" depart="41.00" departLane="np2_nt2_0" departPos="26.90" departSpeed="0.00" departDelay="0.09" arrival="216.00" arrivalLane="nt15_np10_0" arrivalPos="75.00" arrivalSpeed="7.24" duration="175.00" routeLength="924.18" waitingTime="37.00" waitingCount="5" stopTime="0.00" timeLoss="80.96" rerouteNo="0" devices="tripinfo_f_0_2.5" vType="type1" speedFactor="0.83" vaporized=""/>
    <tripinfo id="f_0_0.4" depart="55.00" departLane="np13_nt13_0" departPos="37.87" departSpeed="0.00" departDelay="0.46" arrival="216.00" arrivalLane="nt4_np5_0" arrivalPos="75.00" arrivalSpeed="18.28" duration="161.00" routeLength="1310.02" waitingTime="35.00" waitingCount="6" stopTime="0.00" timeLoss="68.29" rerouteNo="0" devices="tripinfo_f_0_0.4" vType="type1" speedFactor="0.99" vaporized=""/>
    <tripinfo id="f_0_0.5" depart="69.00" departLane="np13_nt13_0" departPos="61.60" departSpeed="0.00" departDelay="0.82" arrival="217.00" arrivalLane="nt4_np5_0" arrivalPos="75.00" arrivalSpeed="18.44" duration="148.00" routeLength="1286.29" waitingTime="31.00" waitingCount="4" stopTime="0.00" timeLoss="60.60" rerouteNo="0" devices="tripinfo_f_0_0.5" vType="type1" speedFactor="1.03" vaporized=""/>
    <tripinfo id="f_0_2.6" depart="50.00" departLane="np2_nt2_0" departPos="40.75" departSpeed="0.00" departDelay="0.91" arrival="218.00" arrivalLane="nt15_np10_0" arrivalPos="75.00" arrivalSpeed="9.18" duration="168.00" routeLength="910.33" waitingTime="49.00" waitingCount="8" stopTime="0.00" timeLoss="93.51" rerouteNo="0" devices="tripinfo_f_0_2.6" vType="type1" speedFactor="1.03" vaporized=""/>
    <tripinfo id="f_0_0.6" depart="82.00" departLane="np13_nt13_0" departPos="41.02" departSpeed="0.00" departDelay="0.18" arrival="222.00" arrivalLane="nt4_np5_0" arrivalPos="75.00" arrivalSpeed="19.35" duration="140.00" routeLength="1306.87" waitingTime="15.00" waitingCount="3" stopTime="0.00" timeLoss="46.75" rerouteNo="0" devices="tripinfo_f_0_0.6" vType="type1" speedFactor="0.98" vaporized=""/>
    <tripinfo id="f_0_1.1" depart="14.00" departLane="np16_nt1_0" departPos="43.42" departSpeed="0.00" departDelay="0.36" arrival="229.00" arrivalLane="nt16_np8_0" arrivalPos="75.00" arrivalSpeed="16.65" duration="215.00" routeLength="1304.46" waitingTime="63.00" waitingCount="8" stopTime="0.00" timeLoss="110.28" rerouteNo="0" devices="tripinfo_f_0_1.1" vType="type1" speedFactor="0.87" vaporized=""/>
    <tripinfo id="f_0_3.3" depart="25.00" departLane="np3_nt3_0" departPos="4.64" departSpeed="0.00" departDelay="0.45" arrival="238.00" arrivalLane="nt14_np11_0" arrivalPos="75.00" arrivalSpeed="8.68" duration="213.00" routeLength="946.45" waitingTime="93.00" waitingCount="7" stopTime="0.00" timeLoss="128.26" rerouteNo="0" devices="tripinfo_f_0_3.3" vType="type1" speedFactor="0.94" vaporized=""/>
    <tripinfo id="f_0_3.4" depart="33.00" departLane="np3_nt3_0" departPos="8.66" departSpeed="0.00" departDelay="0.27" arrival="240.00" arrivalLane="nt14_np11_0" arrivalPos="75.00" arrivalSpeed="10.51" duration="207.00" routeLength="942.43" waitingTime="82.00" waitingCount="5" stopTime="0.00" timeLoss="131.33" rerouteNo="0" devices="tripinfo_f_0_3.4" vType="type1" speedFactor="1.04" vaporized=""/>
    <tripinfo id="f_0_0.7" depart="96.00" departLane="np13_nt13_0" departPos="12.03" departSpeed="0.00" departDelay="0.55" arrival="244.00" arrivalLane="nt4_np5_0" arrivalPos="75.00" arrivalSpeed="20.02" duration="148.00" routeLength="1335.86" waitingTime="28.00" waitingCount="4" stopTime="0.00" timeLoss="64.17" rerouteNo="0" devices="tripinfo_f_0_0.7" vType="type1" speedFactor="1.11" vaporized=""/>
    <tripinfo id="f_0_3.5" depart="41.00" departLane="np3_nt3_0" departPos="20.70" departSpeed="0.00" departDelay="0.09" arrival="253.00" arrivalLane="nt14_np11_0" arrivalPos="75.00" arrivalSpeed="8.60" duration="212.00" routeLength="930.39" waitingTime="85.00" waitingCount="4" stopTime="0.00" timeLoss="127.73" rerouteNo="0" devices="tripinfo_f_0_3.5" vType="type1" speedFactor="0.93" vaporized=""/>
    <tripinfo id="f_0_3.6" depart="50.00" departLane="np3_nt3_0" departPos="8.04" departSpeed="0.00" departDelay="0.91" arrival="255.00" arrivalLane="nt14_np11_0" arrivalPos="75.00" arrivalSpeed="10.02" duration="205.00" routeLength="943.05" waitingTime="90.00" waitingCount="5" stopTime="0.00" timeLoss="119.63" rerouteNo="0" devices="tripinfo_f_0_3.6" vType="type1" speedFactor="0.92" vaporized=""/>
    <tripinfo id="f_0_3.7" depart="58.00" departLane="np3_nt3_0" departPos="3.05" departSpeed="0.00" departDelay="0.73" arrival="257.00" arrivalLane="nt14_np11_0" arrivalPos="75.00" arrivalSpeed="11.87" duration="199.00" routeLength="948.04" waitingTime="80.00" waitingCount="6" stopTime="0.00" timeLoss="124.99" rerouteNo="0" devices="tripinfo_f_0_3.7" vType="type1" speedFactor="1.08" vaporized=""/>
    <tripinfo id="f_0_2.7" depart="58.00" departLane="np2_nt2_0" departPos="0.38" departSpeed="0.00" departDelay="0.73" arrival="267.00" arrivalLane="nt15_np10_0" arrivalPos="75.00" arrivalSpeed="10.32" duration="209.00" routeLength="950.70" waitingTime="79.00" waitingCount="10" stopTime="0.00" timeLoss="128.09" rerouteNo="0" devices="tripinfo_f_0_2.7" vType="type1" speedFactor="0.98" vaporized=""/>
    <tripinfo id="f_0_3.8" depart="66.00" departLane="np3_nt3_0" departPos="12.46" departSpeed="0.00" departDelay="0.54" arrival="273.00" arrivalLane="nt14_np11_0" arrivalPos="75.00" arrivalSpeed="9.86" duration="207.00" routeLength="938.63" waitingTime="83.00" waitingCount="6" stopTime="0.00" timeLoss="121.55" rerouteNo="0" devices="tripinfo_f_0_3.8" vType="type1" speedFactor="0.92" vaporized=""/>
    <tripinfo id="f_0_0.8" depart="110.00" departLane="np13_nt13_0" departPos="28.10" departSpeed="0.00" departDelay="0.91" arrival="273.00" arrivalLane="nt4_np5_0" arrivalPos="75.00" arrivalSpeed="16.12" duration="163.00" routeLength="1319.79" waitingTime="26.00" waitingCount="5" stopTime="0.00" timeLoss="64.52" rerouteNo="0" devices="tripinfo_f_0_0.8" vType="type1" speedFactor="0.93" vaporized=""/>
    <tripinfo id="f_0_2.8" depart="66.00" departLane="np2_nt2_0" departPos="28.23" departSpeed="0.00" departDelay="0.54" arrival="274.00" arrivalLane="nt15_np10_0" arrivalPos="75.00" arrivalSpeed="11.63" duration="208.00" routeLength="922.85" waitingTime="67.00" waitingCount="8" stopTime="0.00" timeLoss="135.79" rerouteNo="0" devices="tripinfo_f_0_2.8" vType="type1" speedFactor="1.07" vaporized=""/>
    <tripinfo id="f_0_3.9" depart="74.00" departLane="np3_nt3_0" departPos="2.13" departSpeed="0.00" departDelay="0.36" arrival="275.00" arrivalLane="nt14_np11_0" arrivalPos="75.00" arrivalSpeed="8.71" duration="201.00" routeLength="948.96" waitingTime="69.00" waitingCount="6" stopTime="0.00" timeLoss="114.90" rerouteNo="0" devices="tripinfo_f_0_3.9" vType="type1" speedFactor="0.93" vaporized=""/>
    <tripinfo id="f_0_0.9" depart="123.00" departLane="np13_nt13_0" departPos="63.18" departSpeed="0.00" departDelay="0.28" arrival="275.00" arrivalLane="nt4_np5_0" arrivalPos="75.00" arrivalSpeed="20.74" duration="152.00" routeLength="1284.71" waitingTime="21.00" waitingCount="4" stopTime="0.00" timeLoss="70.22" rerouteNo="0" devices="tripinfo_f_0_0.9" vType="type1" speedFactor="1.10" vaporized=""/>
    <tripinfo id="f_0_2.9" depart="74.00" departLane="np2_nt2_0" departPos="35.48" departSpeed="0.00" departDelay="0.36" arrival="277.00" arrivalLane="nt15_np10_0" arrivalPos="75.00" arrivalSpeed="11.76" duration="203.00" routeLength="915.60" waitingTime="68.00" waitingCount="8" stopTime="0.00" timeLoss="131.15" rerouteNo="0" devices="tripinfo_f_0_2.9" vType="type1" speedFactor="1.08" vaporized=""/>
    <tripinfo id="f_0_3.10" depart="82.00" departLane="np3_nt3_0" departPos="2.74" departSpeed="0.00" departDelay="0.18" arrival="277.00" arrivalLane="nt14_np11_0" arrivalPos="75.00" arrivalSpeed="10.91" duration="195.00" routeLength="948.35" waitingTime="59.00" waitingCount="5" stopTime="0.00" timeLoss="119.22" rerouteNo="0" devices="tripinfo_f_0_3.10" vType="type1" speedFactor="1.06" vaporized=""/>
    <tripinfo id="f_0_3.11" depart="90.00" departLane="np3_nt3_0" departPos="6.56" departSpeed="0.00" departDelay="0.00" arrival="279.00" arrivalLane="nt14_np11_0" arrivalPos="75.00" arrivalSpeed="11.35" duration="189.00" routeLength="944.53" waitingTime="58.00" waitingCount="5" stopTime="0.00" timeLoss="115.00" rerouteNo="0" devices="tripinfo_f_0_3.11" vType="type1" speedFactor="1.08" vaporized=""/>
    <tripinfo id="f_0_2.10" depart="82.00" departLane="np2_nt2_0" departPos="28.99" departSpeed="0.00" departDelay="0.18" arrival="280.00" arrivalLane="nt15_np10_0" arrivalPos="75.00" arrivalSpeed="8.96" duration="198.00" routeLength="922.09" waitingTime="58.00" waitingCount="8" stopTime="0.00" timeLoss="116.34" rerouteNo="0" devices="tripinfo_f_0_2.10" vType="type1" speedFactor="0.95" vaporized=""/>
    <tripinfo id="f_0_1.2" depart="28.00" departLane="np16_nt1_0" departPos="60.57" departSpeed="0.00" departDelay="0.73" arrival="282.00" arrivalLane="nt16_np8_0" arrivalPos="75.00" arrivalSpeed="14.51" duration="254.00" routeLength="1287.31" waitingTime="81.00" waitingCount="9" stopTime="0.00" timeLoss="137.78" rerouteNo="0" devices="tripinfo_f_0_1.2" vType="type1" speedFactor="0.77" vaporized=""/>
    <tripinfo id="f_0_1.3" depart="41.00" departLane="np16_nt1_0" departPos="55.44" departSpeed="0.00" departDelay="0.09" arrival="284.00" arrivalLane="nt16_np8_0" arrivalPos="75.00" arrivalSpeed="20.23" duration="243.00" routeLength="1292.44" waitingTime="80.00" waitingCount="7" stopTime="0.00" timeLoss="154.23" rerouteNo="0" devices="tripinfo_f_0_1.3" vType="type1" speedFactor="1.03" vaporized=""/>
    <tripinfo id="f_0_1.4" depart="55.00" departLane="np16_nt1_0" departPos="56.39" departSpeed="0.00" departDelay="0.46" arrival="313.00" arrivalLane="nt16_np8_0" arrivalPos="75.00" arrivalSpeed="18.30" duration="258.00" routeLength="1291.49" waitingTime="93.00" waitingCount="12" stopTime="0.00" timeLoss="166.97" rerouteNo="0" devices="tripinfo_f_0_1.4" vType="type1" speedFactor="0.99" vaporized=""/>
    <tripinfo id="f_0_1.5" depart="69.00" departLane="np16_nt1_0" departPos="9.13" departSpeed="0.00" departDelay="0.82" arrival="315.00" arrivalLane="nt16_np8_0" arrivalPos="75.00" arrivalSpeed="20.83" duration="246.00" routeLength="1338.75" waitingTime="69.00" waitingCount="11" stopTime="0.00" timeLoss="157.52" rerouteNo="0" devices="tripinfo_f_0_1.5" vType="type1" speedFactor="1.05" vaporized=""/>
    <tripinfo id="f_0_1.6" depart="82.00" departLane="np16_nt1_0" departPos="8.87" departSpeed="0.00" departDelay="0.18" arrival="317.00" arrivalLane="nt16_np8_0" arrivalPos="75.00" arrivalSpeed="20.41" duration="235.00" routeLength="1339.01" waitingTime="66.00" waitingCount="8" stopTime="0.00" timeLoss="146.76" rerouteNo="0" devices="tripinfo_f_0_1.6" vType="type1" speedFactor="1.06" vaporized=""/>
    <tripinfo id="f_0_3.12" depart="99.00" departLane="np3_nt3_0" departPos="3.22" departSpeed="0.00" departDelay="0.82" arrival="326.00" arrivalLane="nt14_np11_0" arrivalPos="75.00" arrivalSpeed="12.00" duration="227.00" routeLength="947.87" waitingTime="100.00" waitingCount="8" stopTime="0.00" timeLoss="153.74" rerouteNo="0" devices="tripinfo_f_0_3.12" vType="type1" speedFactor="1.09" vaporized=""/>
    <tripinfo id="f_0_3.13" depart="107.00" departLane="np3_nt3_0" departPos="0.69" departSpeed="0.00" departDelay="0.63" arrival="330.00" arrivalLane="nt14_np11_0" arrivalPos="75.00" arrivalSpeed="9.04" duration="223.00" routeLength="950.40" waitingTime="85.00" waitingCount="8" stopTime="0.00" timeLoss="136.29" rerouteNo="0" devices="tripinfo_f_0_3.13" vType="type1" speedFactor="0.92" vaporized=""/>
    <tripinfo id="f_0_0.10" depart="137.00" departLane="np13_nt13_0" departPos="4.09" departSpeed="0.00" departDelay="0.64" arrival="333.00" arrivalLane="nt4_np5_0" arrivalPos="75.00" arrivalSpeed="17.16" duration="196.00" routeLength="1343.80" waitingTime="58.00" waitingCount="6" stopTime="0.00" timeLoss="95.85" rerouteNo="0" devices="tripinfo_f_0_0.10" vType="type1" speedFactor="0.93" vaporized=""/>
    <tripinfo id="f_0_0.11" depart="150.00" departLane="np13_nt13_0" departPos="51.18" departSpeed="0.00" departDelay="0.00" arrival="335.00" arrivalLane="nt4_np5_0" arrivalPos="75.00" arrivalSpeed="20.63" duration="185.00" routeLength="1296.71" waitingTime="46.00" waitingCount="5" stopTime="0.00" timeLoss="97.07" rerouteNo="0" devices="tripinfo_f_0_0.11" vType="type1" speedFactor="1.04" vaporized=""/>
    <tripinfo id="f_0_2.11" depart="90.00" departLane="np2_nt2_0" departPos="6.39" departSpeed="0.00" departDelay="0.00" arrival="337.00" arrivalLane="nt15_np10_0" arrivalPos="75.00" arrivalSpeed="11.68" duration="247.00" routeLength="944.69" waitingTime="101.00" waitingCount="8" stopTime="0.00" timeLoss="171.92" rerouteNo="0" devices="tripinfo_f_0_2.11" vType="type1" speedFactor="1.07" vaporized=""/>
    <tripinfo id="f_0_2.12" depart="99.00" departLane="np2_nt2_0" departPos="19.10" departSpeed="0.00" departDelay="0.82" arrival="339.00" arrivalLane="nt15_np10_0" arrivalPos="75.00" arrivalSpeed="9.29" duration="240.00" routeLength="931.98" waitingTime="88.00" waitingCount="8" stopTime="0.00" timeLoss="157.61" rerouteNo="0" devices="tripinfo_f_0_2.12" vType="type1" speedFactor="0.95" vaporized=""/>
    <tripinfo id="f_0_0.12" depart="164.00" departLane="np13_nt13_0" departPos="42.01" departSpeed="0.00" departDelay="0.37" arrival="343.00" arrivalLane="nt4_np5_0" arrivalPos="75.00" arrivalSpeed="19.37" duration="179.00" routeLength="1305.88" waitingTime="40.00" waitingCount="6" stopTime="0.00" timeLoss="85.35" rerouteNo="0" devices="tripinfo_f_0_0.12" vType="type1" speedFactor="0.98" vaporized=""/>
    <tripinfo id="f_0_0.13" depart="178.00" departLane="np13_nt13_0" departPos="61.00" departSpeed="0.00" departDelay="0.73" arrival="345.00" arrivalLane="nt4_np5_0" arrivalPos="75.00" arrivalSpeed="17.73" duration="167.00" routeLength="1286.89" waitingTime="28.00" waitingCount="6" stopTime="0.00" timeLoss="69.72" rerouteNo="0" devices="tripinfo_f_0_0.13" vType="type1" speedFactor="0.93" vaporized=""/>
    <tripinfo id="f_0_2.13" depart="107.00" departLane="np2_nt2_0" departPos="28.99" departSpeed="0.00" departDelay="0.63" arrival="356.00" arrivalLane="nt15_np10_0" arrivalPos="75.00" arrivalSpeed="12.28" duration="249.00" routeLength="922.09" waitingTime="92.00" waitingCount="10" stopTime="0.00" timeLoss="182.03" rerouteNo="0" devices="tripinfo_f_0_2.13" vType="type1" speedFactor="1.15" vaporized=""/>
    <tripinfo id="f_0_3.14" depart="115.00" departLane="np3_nt3_0" departPos="0.00" departSpeed="0.00" departDelay="0.45" arrival="357.00" arrivalLane="nt14_np11_0" arrivalPos="75.00" arrivalSpeed="9.16" duration="242.00" routeLength="951.09" waitingTime="98.00" waitingCount="10" stopTime="0.00" timeLoss="164.41" rerouteNo="0" devices="tripinfo_f_0_3.14" vType="type1" speedFactor="1.03" vaporized=""/>
    <tripinfo id="f_0_0.14" depart="191.00" departLane="np13_nt13_0" departPos="3.39" departSpeed="0.00" departDelay="0.10" arrival="358.00" arrivalLane="nt4_np5_0" arrivalPos="75.00" arrivalSpeed="21.92" duration="167.00" routeLength="1344.50" waitingTime="33.00" waitingCount="6" stopTime="0.00" timeLoss="83.99" rerouteNo="0" devices="tripinfo_f_0_0.14" vType="type1" speedFactor="1.12" vaporized=""/>
    <tripinfo id="f_0_2.14" depart="115.00" departLane="np2_nt2_0" departPos="9.42" departSpeed="0.00" departDelay="0.45" arrival="359.00" arrivalLane="nt15_np10_0" arrivalPos="75.00" arrivalSpeed="11.58" duration="244.00" routeLength="941.66" waitingTime="100.00" waitingCount="10" stopTime="0.00" timeLoss="169.48" rerouteNo="0" devices="tripinfo_f_0_2.14" vType="type1" speedFactor="1.07" vaporized=""/>
    <tripinfo id="f_0_2.15" depart="123.00" departLane="np2_nt2_0" departPos="16.73" departSpeed="0.00" departDelay="0.27" arrival="366.00" arrivalLane="nt15_np10_0" arrivalPos="75.00" arrivalSpeed="7.54" duration="243.00" routeLength="934.35" waitingTime="77.00" waitingCount="9" stopTime="0.00" timeLoss="151.49" rerouteNo="0" devices="tripinfo_f_0_2.15" vType="type1" speedFactor="0.86" vaporized=""/>
    <tripinfo id="f_0_2.16" depart="131.00" departLane="np2_nt2_0" departPos="17.25" departSpeed="0.00" departDelay="0.09" arrival="370.00" arrivalLane="nt15_np10_0" arrivalPos="75.00" arrivalSpeed="11.23" duration="239.00" routeLength="933.83" waitingTime="76.00" waitingCount="10" stopTime="0.00" timeLoss="174.02" rerouteNo="0" devices="tripinfo_f_0_2.16" vType="type1" speedFactor="1.20" vaporized=""/>
    <tripinfo id="f_0_1.7" depart="96.00" departLane="np16_nt1_0" departPos="49.64" departSpeed="0.00" departDelay="0.55" arrival="383.00" arrivalLane="nt16_np8_0" arrivalPos="75.00" arrivalSpeed="20.37" duration="287.00" routeLength="1298.24" waitingTime="122.00" waitingCount="11" stopTime="0.00" timeLoss="201.01" rerouteNo="0" devices="tripinfo_f_0_1.7" vType="type1" speedFactor="1.05" vaporized=""/>
    <tripinfo id="f_0_1.8" depart="110.00" departLane="np16_nt1_0" departPos="59.98" departSpeed="0.00" departDelay="0.91" arrival="385.00" arrivalLane="nt16_np8_0" arrivalPos="75.00" arrivalSpeed="20.24" duration="275.00" routeLength="1287.90" waitingTime="109.00" waitingCount="12" stopTime="0.00" timeLoss="193.86" rerouteNo="0" devices="tripinfo_f_0_1.8" vType="type1" speedFactor="1.12" vaporized=""/>
    <tripinfo id="f_0_3.15" depart="123.00" departLane="np3_nt3_0" departPos="0.00" departSpeed="0.00" departDelay="0.27" arrival="387.00" arrivalLane="nt14_np11_0" arrivalPos="75.00" arrivalSpeed="11.21" duration="264.00" routeLength="951.09" waitingTime="122.00" waitingCount="11" stopTime="0.00" timeLoss="190.49" rerouteNo="0" devices="tripinfo_f_0_3.15" vType="type1" speedFactor="1.09" vaporized=""/>
    <tripinfo id="f_0_3.16" depart="131.00" departLane="np3_nt3_0" departPos="2.18" departSpeed="0.00" departDelay="0.09" arrival="389.00" arrivalLane="nt14_np11_0" arrivalPos="75.00" arrivalSpeed="10.31" duration="258.00" routeLength="948.91" waitingTime="117.00" waitingCount="10" stopTime="0.00" timeLoss="182.89" rerouteNo="0" devices="tripinfo_f_0_3.16" vType="type1" speedFactor="1.07" vaporized=""/>
    <tripinfo id="f_0_3.17" depart="140.00" departLane="np3_nt3_0" departPos="20.44" departSpeed="0.00" departDelay="0.91" arrival="391.00" arrivalLane="nt14_np11_0" arrivalPos="75.00" arrivalSpeed="9.72" duration="251.00" routeLength="930.65" waitingTime="113.00" waitingCount="9" stopTime="0.00" timeLoss="174.44" rerouteNo="0" devices="tripinfo_f_0_3.17" vType="type1" speedFactor="1.02" vaporized=""/>
    <tripinfo id="f_0_3.18" depart="148.00" departLane="np3_nt3_0" departPos="16.05" departSpeed="0.00" departDelay="0.72" arrival="393.00" arrivalLane="nt14_np11_0" arrivalPos="75.00" arrivalSpeed="11.20" duration="245.00" routeLength="935.04" waitingTime="108.00" waitingCount="9" stopTime="0.00" timeLoss="174.80" rerouteNo="0" devices="tripinfo_f_0_3.18" vType="type1" speedFactor="1.12" vaporized=""/>
    <tripinfo id="f_0_3.19" depart="156.00" departLane="np3_nt3_0" departPos="5.21" departSpeed="0.00" departDelay="0.54" arrival="418.00" arrivalLane="nt14_np11_0" arrivalPos="75.00" arrivalSpeed="10.07" duration="262.00" routeLength="945.88" waitingTime="112.00" waitingCount="11" stopTime="0.00" timeLoss="178.15" rerouteNo="0" devices="tripinfo_f_0_3.19" vType="type1" speedFactor="0.95" vaporized=""/>
    <tripinfo id="f_0_3.20" depart="164.00" departLane="np3_nt3_0" departPos="13.32" departSpeed="0.00" departDelay="0.36" arrival="420.00" arrivalLane="nt14_np11_0" arrivalPos="75.00" arrivalSpeed="11.76" duration="256.00" routeLength="937.77" waitingTime="120.00" waitingCount="11" stopTime="0.00" timeLoss="188.46" rerouteNo="0" devices="tripinfo_f_0_3.20" vType="type1" speedFactor="1.17" vaporized=""/>
    <tripinfo id="f_0_2.17" depart="140.00" departLane="np2_nt2_0" departPos="39.26" departSpeed="0.00" departDelay="0.91" arrival="421.00" arrivalLane="nt15_np10_0" arrivalPos="75.00" arrivalSpeed="10.83" duration="281.00" routeLength="911.82" waitingTime="122.00" waitingCount="11" stopTime="0.00" timeLoss="212.28" rerouteNo="0" devices="tripinfo_f_0_2.17" vType="type1" speedFactor="1.10" vaporized=""/>
    <tripinfo id="f_0_3.21" depart="172.00" departLane="np3_nt3_0" departPos="18.90" departSpeed="0.00" departDelay="0.18" arrival="422.00" arrivalLane="nt14_np11_0" arrivalPos="75.00" arrivalSpeed="9.58" duration="250.00" routeLength="932.19" waitingTime="113.00" waitingCount="11" stopTime="0.00" timeLoss="175.12" rerouteNo="0" devices="tripinfo_f_0_3.21" vType="type1" speedFactor="1.05" vaporized=""/>
    <tripinfo id="f_0_3.22" depart="180.00" departLane="np3_nt3_0" departPos="16.77" departSpeed="0.00" departDelay="0.00" arrival="424.00" arrivalLane="nt14_np11_0" arrivalPos="75.00" arrivalSpeed="9.96" duration="244.00" routeLength="934.32" waitingTime="97.00" waitingCount="9" stopTime="0.00" timeLoss="163.29" rerouteNo="0" devices="tripinfo_f_0_3.22" vType="type1" speedFactor="0.98" vaporized=""/>
    <tripinfo id="f_0_2.18" depart="148.00" departLane="np2_nt2_0" departPos="50.11" departSpeed="0.00" departDelay="0.72" arrival="425.00" arrivalLane="nt15_np10_0" arrivalPos="75.00" arrivalSpeed="7.80" duration="277.00" routeLength="900.97" waitingTime="105.00" waitingCount="11" stopTime="0.00" timeLoss="195.48" rerouteNo="0" devices="tripinfo_f_0_2.18" vType="type1" speedFactor="0.93" vaporized=""/>
    <tripinfo id="f_0_3.23" depart="189.00" departLane="np3_nt3_0" departPos="0.00" departSpeed="0.00" departDelay="0.81" arrival="425.00" arrivalLane="nt14_np11_0" arrivalPos="75.00" arrivalSpeed="12.59" duration="236.00" routeLength="951.09" waitingTime="99.00" waitingCount="10" stopTime="0.00" timeLoss="166.67" rerouteNo="0" devices="tripinfo_f_0_3.23" vType="type1" speedFactor="1.15" vaporized=""/>
    <tripinfo id="f_0_3.24" depart="197.00" departLane="np3_nt3_0" departPos="10.33" departSpeed="0.00" departDelay="0.63" arrival="428.00" arrivalLane="nt14_np11_0" arrivalPos="75.00" arrivalSpeed="7.95" duration="231.00" routeLength="940.76" waitingTime="96.00" waitingCount="9" stopTime="0.00" timeLoss="147.63" rerouteNo="0" devices="tripinfo_f_0_3.24" vType="type1" speedFactor="0.95" vaporized=""/>
    <tripinfo id="f_0_3.25" depart="205.00" departLane="np3_nt3_0" departPos="2.09" departSpeed="0.00" departDelay="0.45" arrival="430.00" arrivalLane="nt14_np11_0" arrivalPos="75.00" arrivalSpeed="10.31" duration="225.00" routeLength="949.00" waitingTime="95.00" waitingCount="7" stopTime="0.00" timeLoss="142.17" rerouteNo="0" devices="tripinfo_f_0_3.25" vType="type1" speedFactor="0.97" vaporized=""/>
    <tripinfo id="f_0_3.26" depart="213.00" departLane="np3_nt3_0" departPos="12.81" departSpeed="0.00" departDelay="0.27" arrival="432.00" arrivalLane="nt14_np11_0" arrivalPos="75.00" arrivalSpeed="12.22" duration="219.00" routeLength="938.28" waitingTime="99.00" waitingCount="9" stopTime="0.00" timeLoss="155.71" rerouteNo="0" devices="tripinfo_f_0_3.26" vType="type1" speedFactor="1.25" vaporized=""/>
    <tripinfo id="f_0_2.19" depart="156.00" departLane="np2_nt2_0" departPos="3.55" departSpeed="0.00" departDelay="0.54" arrival="447.00" arrivalLane="nt15_np10_0" arrivalPos="75.00" arrivalSpeed="9.91" duration="291.00" routeLength="947.53" waitingTime="114.00" waitingCount="13" stopTime="0.00" timeLoss="216.05" rerouteNo="0" devices="tripinfo_f_0_2.19" vType="type1" speedFactor="1.06" vaporized=""/>