<?xml version="1.0" encoding="UTF-8"?>

<!-- generated on 2023-08-30 12:21:23 by Eclipse SUMO libsumo Version 1.18.0
<configuration xmlns:xsi="http://www.w3.org/2001/XMLSchema-instance" xsi:noNamespaceSchemaLocation="http://sumo.dlr.de/xsd/libsumoConfiguration.xsd">

    <input>
        <net-file value="/home/stefan/RESCO/./environments/arterial4x4/arterial4x4.net.xml"/>
        <route-files value="/home/stefan/RESCO/./environments/arterial4x4/arterial4x4_9.rou.xml"/>
    </input>

    <output>
        <tripinfo-output value="/home/stefan/results/ITRPO-tr0-arterial4x4-0-drq_norm-wait_norm/tripinfo_9.xml"/>
        <tripinfo-output.write-unfinished value="true"/>
    </output>

    <processing>
        <time-to-teleport value="-1"/>
    </processing>

    <report>
        <no-warnings value="True"/>
        <no-step-log value="True"/>
    </report>

    <random_number>
        <random value="true"/>
    </random_number>

</configuration>
-->

<tripinfos xmlns:xsi="http://www.w3.org/2001/XMLSchema-instance" xsi:noNamespaceSchemaLocation="http://sumo.dlr.de/xsd/tripinfo_file.xsd">
    <tripinfo id="f_0_3.0" depart="0.00" departLane="np3_nt3_0" departPos="20.65" departSpeed="0.00" departDelay="0.00" arrival="142.00" arrivalLane="nt14_np11_0" arrivalPos="75.00" arrivalSpeed="9.50" duration="142.00" routeLength="930.44" waitingTime="45.00" waitingCount="4" stopTime="0.00" timeLoss="68.92" rerouteNo="0" devices="tripinfo_f_0_3.0" vType="type1" speedFactor="1.07" vaporized=""/>
    <tripinfo id="f_0_2.0" depart="0.00" departLane="np2_nt2_0" departPos="21.15" departSpeed="0.00" departDelay="0.00" arrival="157.00" arrivalLane="nt15_np10_0" arrivalPos="75.00" arrivalSpeed="10.31" duration="157.00" routeLength="929.93" waitingTime="63.00" waitingCount="3" stopTime="0.00" timeLoss="85.12" rerouteNo="0" devices="tripinfo_f_0_2.0" vType="type1" speedFactor="1.09" vaporized=""/>
    <tripinfo id="f_0_2.1" depart="9.00" departLane="np2_nt2_0" departPos="50.48" departSpeed="0.00" departDelay="0.82" arrival="207.00" arrivalLane="nt15_np10_0" arrivalPos="75.00" arrivalSpeed="10.98" duration="198.00" routeLength="900.60" waitingTime="102.00" waitingCount="4" stopTime="0.00" timeLoss="123.44" rerouteNo="0" devices="tripinfo_f_0_2.1" vType="type1" speedFactor="1.01" vaporized=""/>
    <tripinfo id="f_0_2.2" depart="17.00" departLane="np2_nt2_0" departPos="32.93" departSpeed="0.00" departDelay="0.64" arrival="234.00" arrivalLane="nt15_np10_0" arrivalPos="75.00" arrivalSpeed="7.91" duration="217.00" routeLength="918.15" waitingTime="82.00" waitingCount="6" stopTime="0.00" timeLoss="122.79" rerouteNo="0" devices="tripinfo_f_0_2.2" vType="type1" speedFactor="0.81" vaporized=""/>
    <tripinfo id="f_0_0.0" depart="0.00" departLane="np13_nt13_0" departPos="28.56" departSpeed="0.00" departDelay="0.00" arrival="253.00" arrivalLane="nt4_np5_0" arrivalPos="75.00" arrivalSpeed="17.00" duration="253.00" routeLength="1319.33" waitingTime="118.00" waitingCount="4" stopTime="0.00" timeLoss="150.49" rerouteNo="0" devices="tripinfo_f_0_0.0" vType="type1" speedFactor="0.89" vaporized=""/>
    <tripinfo id="f_0_2.3" depart="25.00" departLane="np2_nt2_0" departPos="55.55" departSpeed="0.00" departDelay="0.45" arrival="269.00" arrivalLane="nt15_np10_0" arrivalPos="75.00" arrivalSpeed="8.29" duration="244.00" routeLength="895.53" waitingTime="112.00" waitingCount="9" stopTime="0.00" timeLoss="158.07" rerouteNo="0" devices="tripinfo_f_0_2.3" vType="type1" speedFactor="0.88" vaporized=""/>
    <tripinfo id="f_0_1.0" depart="0.00" departLane="np16_nt1_0" departPos="42.96" departSpeed="0.00" departDelay="0.00" arrival="284.00" arrivalLane="nt16_np8_0" arrivalPos="75.00" arrivalSpeed="16.95" duration="284.00" routeLength="1304.92" waitingTime="122.00" waitingCount="9" stopTime="0.00" timeLoss="180.45" rerouteNo="0" devices="tripinfo_f_0_1.0" vType="type1" speedFactor="0.88" vaporized=""/>
    <tripinfo id="f_0_1.1" depart="14.00" departLane="np16_nt1_0" departPos="26.22" departSpeed="0.00" departDelay="0.36" arrival="289.00" arrivalLane="nt16_np8_0" arrivalPos="75.00" arrivalSpeed="16.88" duration="275.00" routeLength="1321.66" waitingTime="121.00" waitingCount="8" stopTime="0.00" timeLoss="176.04" rerouteNo="0" devices="tripinfo_f_0_1.1" vType="type1" speedFactor="0.94" vaporized=""/>
    <tripinfo id="f_0_0.1" depart="14.00" departLane="np13_nt13_0" departPos="62.34" departSpeed="0.00" departDelay="0.36" arrival="293.00" arrivalLane="nt4_np5_0" arrivalPos="75.00" arrivalSpeed="19.40" duration="279.00" routeLength="1285.55" waitingTime="144.00" waitingCount="6" stopTime="0.00" timeLoss="190.46" rerouteNo="0" devices="tripinfo_f_0_0.1" vType="type1" speedFactor="1.02" vaporized=""/>
    <tripinfo id="f_0_2.4" depart="33.00" departLane="np2_nt2_0" departPos="19.38" departSpeed="0.00" departDelay="0.27" arrival="297.00" arrivalLane="nt15_np10_0" arrivalPos="75.00" arrivalSpeed="9.14" duration="264.00" routeLength="931.70" waitingTime="130.00" waitingCount="8" stopTime="0.00" timeLoss="188.42" rerouteNo="0" devices="tripinfo_f_0_2.4" vType="type1" speedFactor="1.04" vaporized=""/>
    <tripinfo id="f_0_2.5" depart="41.00" departLane="np2_nt2_0" departPos="2.36" departSpeed="0.00" departDelay="0.09" arrival="299.00" arrivalLane="nt15_np10_0" arrivalPos="75.00" arrivalSpeed="10.75" duration="258.00" routeLength="948.72" waitingTime="121.00" waitingCount="9" stopTime="0.00" timeLoss="179.35" rerouteNo="0" devices="tripinfo_f_0_2.5" vType="type1" speedFactor="1.02" vaporized=""/>
    <tripinfo id="f_0_2.6" depart="50.00" departLane="np2_nt2_0" departPos="27.89" departSpeed="0.00" departDelay="0.91" arrival="302.00" arrivalLane="nt15_np10_0" arrivalPos="75.00" arrivalSpeed="9.79" duration="252.00" routeLength="923.19" waitingTime="116.00" waitingCount="9" stopTime="0.00" timeLoss="173.60" rerouteNo="0" devices="tripinfo_f_0_2.6" vType="type1" speedFactor="0.99" vaporized=""/>
    <tripinfo id="f_0_1.2" depart="28.00" departLane="np16_nt1_0" departPos="43.72" departSpeed="0.00" departDelay="0.73" arrival="323.00" arrivalLane="nt16_np8_0" arrivalPos="75.00" arrivalSpeed="21.61" duration="295.00" routeLength="1304.16" waitingTime="140.00" waitingCount="11" stopTime="0.00" timeLoss="218.16" rerouteNo="0" devices="tripinfo_f_0_1.2" vType="type1" speedFactor="1.19" vaporized=""/>
    <tripinfo id="f_0_3.1" depart="9.00" departLane="np3_nt3_0" departPos="17.56" departSpeed="0.00" departDelay="0.82" arrival="372.00" arrivalLane="nt14_np11_0" arrivalPos="75.00" arrivalSpeed="11.44" duration="363.00" routeLength="933.53" waitingTime="262.00" waitingCount="5" stopTime="0.00" timeLoss="291.16" rerouteNo="0" devices="tripinfo_f_0_3.1" vType="type1" speedFactor="1.10" vaporized=""/>
    <tripinfo id="f_0_0.2" depart="28.00" departLane="np13_nt13_0" departPos="17.54" departSpeed="0.00" departDelay="0.73" arrival="408.00" arrivalLane="nt4_np5_0" arrivalPos="75.00" arrivalSpeed="17.20" duration="380.00" routeLength="1330.35" waitingTime="234.00" waitingCount="5" stopTime="0.00" timeLoss="273.49" rerouteNo="0" devices="tripinfo_f_0_0.2" vType="type1" speedFactor="0.87" vaporized=""/>
    <tripinfo id="f_0_3.2" depart="17.00" departLane="np3_nt3_0" departPos="42.81" departSpeed="0.00" departDelay="0.64" arrival="417.00" arrivalLane="nt14_np11_0" arrivalPos="75.00" arrivalSpeed="10.87" duration="400.00" routeLength="908.28" waitingTime="292.00" waitingCount="6" stopTime="0.00" timeLoss="323.63" rerouteNo="0" devices="tripinfo_f_0_3.2" vType="type1" speedFactor="1.00" vaporized=""/>
    <tripinfo id="f_0_0.3" depart="41.00" departLane="np13_nt13_0" departPos="23.84" departSpeed="0.00" departDelay="0.09" arrival="453.00" arrivalLane="nt4_np5_0" arrivalPos="75.00" arrivalSpeed="20.39" duration="412.00" routeLength="1324.05" waitingTime="273.00" waitingCount="8" stopTime="0.00" timeLoss="322.32" rerouteNo="0" devices="tripinfo_f_0_0.3" vType="type1" speedFactor="1.03" vaporized=""/>
    <tripinfo id="f_0_0.4" depart="55.00" departLane="np13_nt13_0" departPos="28.52" departSpeed="0.00" departDelay="0.46" arrival="455.00" arrivalLane="nt4_np5_0" arrivalPos="75.00" arrivalSpeed="23.76" duration="400.00" routeLength="1319.37" waitingTime="257.00" waitingCount="11" stopTime="0.00" timeLoss="322.46" rerouteNo="0" devices="tripinfo_f_0_0.4" vType="type1" speedFactor="1.19" vaporized=""/>
    <tripinfo id="f_0_3.3" depart="25.00" departLane="np3_nt3_0" departPos="3.77" departSpeed="0.00" departDelay="0.45" arrival="593.00" arrivalLane="nt14_np11_0" arrivalPos="75.00" arrivalSpeed="7.98" duration="568.00" routeLength="947.32" waitingTime="448.00" waitingCount="7" stopTime="0.00" timeLoss="482.13" rerouteNo="0" devices="tripinfo_f_0_3.3" vType="type1" speedFactor="0.92" vaporized=""/>
    <tripinfo id="f_0_3.4" depart="33.00" departLane="np3_nt3_0" departPos="4.18" departSpeed="0.00" departDelay="0.27" arrival="595.00" arrivalLane="nt14_np11_0" arrivalPos="75.00" arrivalSpeed="11.06" duration="562.00" routeLength="946.91" waitingTime="454.00" waitingCount="7" stopTime="0.00" timeLoss="491.28" rerouteNo="0" devices="tripinfo_f_0_3.4" vType="type1" speedFactor="1.13" vaporized=""/>
    <tripinfo id="f_0_3.5" depart="41.00" departLane="np3_nt3_0" departPos="21.16" departSpeed="0.00" departDelay="0.09" arrival="641.00" arrivalLane="nt14_np11_0" arrivalPos="75.00" arrivalSpeed="11.10" duration="600.00" routeLength="929.93" waitingTime="487.00" waitingCount="10" stopTime="0.00" timeLoss="530.28" rerouteNo="0" devices="tripinfo_f_0_3.5" vType="type1" speedFactor="1.11" vaporized=""/>
    <tripinfo id="f_0_3.6" depart="50.00" departLane="np3_nt3_0" departPos="21.65" departSpeed="0.00" departDelay="0.91" arrival="645.00" arrivalLane="nt14_np11_0" arrivalPos="75.00" arrivalSpeed="8.85" duration="595.00" routeLength="929.44" waitingTime="458.00" waitingCount="11" stopTime="0.00" timeLoss="510.14" rerouteNo="0" devices="tripinfo_f_0_3.6" vType="type1" speedFactor="0.92" vaporized=""/>
    <tripinfo id="f_0_3.7" depart="58.00" departLane="np3_nt3_0" departPos="7.41" departSpeed="0.00" departDelay="0.73" arrival="657.00" arrivalLane="nt14_np11_0" arrivalPos="75.00" arrivalSpeed="11.26" duration="599.00" routeLength="943.68" waitingTime="448.00" waitingCount="13" stopTime="0.00" timeLoss="521.45" rerouteNo="0" devices="tripinfo_f_0_3.7" vType="type1" speedFactor="1.02" vaporized=""/>
    <tripinfo id="f_0_3.8" depart="66.00" departLane="np3_nt3_0" departPos="5.50" departSpeed="0.00" departDelay="0.54" arrival="659.00" arrivalLane="nt14_np11_0" arrivalPos="75.00" arrivalSpeed="9.72" duration="593.00" routeLength="945.59" waitingTime="441.00" waitingCount="13" stopTime="0.00" timeLoss="515.11" rerouteNo="0" devices="tripinfo_f_0_3.8" vType="type1" speedFactor="1.02" vaporized=""/>
    <tripinfo id="f_0_3.9" depart="74.00" departLane="np3_nt3_0" departPos="0.00" departSpeed="0.00" departDelay="0.36" arrival="676.00" arrivalLane="nt14_np11_0" arrivalPos="75.00" arrivalSpeed="13.10" duration="602.00" routeLength="951.09" waitingTime="451.00" waitingCount="14" stopTime="0.00" timeLoss="536.38" rerouteNo="0" devices="tripinfo_f_0_3.9" vType="type1" speedFactor="1.23" vaporized=""/>
    <tripinfo id="f_0_3.10" depart="237.00" departLane="np3_nt3_0" departPos="0.00" departSpeed="0.00" departDelay="155.18" arrival="679.00" arrivalLane="nt14_np11_0" arrivalPos="75.00" arrivalSpeed="10.10" duration="442.00" routeLength="951.09" waitingTime="279.00" waitingCount="13" stopTime="0.00" timeLoss="363.71" rerouteNo="0" devices="tripinfo_f_0_3.10" vType="type1" speedFactor="1.03" vaporized=""/>
    <tripinfo id="f_0_3.11" depart="278.00" departLane="np3_nt3_0" departPos="0.00" departSpeed="0.00" departDelay="188.00" arrival="692.00" arrivalLane="nt14_np11_0" arrivalPos="75.00" arrivalSpeed="10.69" duration="414.00" routeLength="951.09" waitingTime="255.00" waitingCount="13" stopTime="0.00" timeLoss="335.23" rerouteNo="0" devices="tripinfo_f_0_3.11" vType="type1" speedFactor="1.01" vaporized=""/>
    <tripinfo id="f_0_3.12" depart="398.00" departLane="np3_nt3_0" departPos="0.11" departSpeed="0.00" departDelay="299.82" arrival="694.00" arrivalLane="nt14_np11_0" arrivalPos="75.00" arrivalSpeed="10.47" duration="296.00" routeLength="950.98" waitingTime="129.00" waitingCount="12" stopTime="0.00" timeLoss="216.05" rerouteNo="0" devices="tripinfo_f_0_3.12" vType="type1" speedFactor="1.00" vaporized=""/>
    <tripinfo id="f_0_3.13" depart="422.00" departLane="np3_nt3_0" departPos="0.03" departSpeed="0.00" departDelay="315.63" arrival="767.00" arrivalLane="nt14_np11_0" arrivalPos="75.00" arrivalSpeed="10.57" duration="345.00" routeLength="951.06" waitingTime="171.00" waitingCount="12" stopTime="0.00" timeLoss="268.84" rerouteNo="0" devices="tripinfo_f_0_3.13" vType="type1" speedFactor="1.05" vaporized=""/>
    <tripinfo id="f_0_3.15" depart="438.00" departLane="np3_nt3_0" departPos="9.15" departSpeed="0.00" departDelay="315.27" arrival="768.00" arrivalLane="nt14_np11_0" arrivalPos="75.00" arrivalSpeed="11.33" duration="330.00" routeLength="941.94" waitingTime="160.00" waitingCount="9" stopTime="0.00" timeLoss="258.90" rerouteNo="0" devices="tripinfo_f_0_3.15" vType="type1" speedFactor="1.12" vaporized=""/>
    <tripinfo id="f_0_3.14" depart="437.00" departLane="np3_nt3_0" departPos="0.83" departSpeed="0.00" departDelay="322.45" arrival="776.00" arrivalLane="nt14_np11_0" arrivalPos="75.00" arrivalSpeed="10.37" duration="339.00" routeLength="950.26" waitingTime="167.00" waitingCount="13" stopTime="0.00" timeLoss="266.66" rerouteNo="0" devices="tripinfo_f_0_3.14" vType="type1" speedFactor="1.09" vaporized=""/>
    <tripinfo id="f_0_3.16" depart="442.00" departLane="np3_nt3_0" departPos="0.00" departSpeed="0.00" departDelay="311.09" arrival="779.00" arrivalLane="nt14_np11_0" arrivalPos="75.00" arrivalSpeed="11.44" duration="337.00" routeLength="951.09" waitingTime="164.00" waitingCount="14" stopTime="0.00" timeLoss="262.57" rerouteNo="0" devices="tripinfo_f_0_3.16" vType="type1" speedFactor="1.08" vaporized=""/>
    <tripinfo id="f_0_3.17" depart="445.00" departLane="np3_nt3_0" departPos="0.00" departSpeed="0.00" departDelay="305.91" arrival="982.00" arrivalLane="nt14_np11_0" arrivalPos="75.00" arrivalSpeed="10.49" duration="537.00" routeLength="951.09" waitingTime="345.00" waitingCount="13" stopTime="0.00" timeLoss="458.65" rerouteNo="0" devices="tripinfo_f_0_3.17" vType="type1" speedFactor="1.02" vaporized=""/>
    <tripinfo id="f_0_3.18" depart="448.00" departLane="np3_nt3_0" departPos="4.49" departSpeed="0.00" departDelay="300.72" arrival="991.00" arrivalLane="nt14_np11_0" arrivalPos="75.00" arrivalSpeed="9.69" duration="543.00" routeLength="946.60" waitingTime="343.00" waitingCount="13" stopTime="0.00" timeLoss="467.65" rerouteNo="0" devices="tripinfo_f_0_3.18" vType="type1" speedFactor="1.05" vaporized=""/>
    <tripinfo id="f_0_3.19" depart="452.00" departLane="np3_nt3_0" departPos="0.00" departSpeed="0.00" departDelay="296.54" arrival="994.00" arrivalLane="nt14_np11_0" arrivalPos="75.00" arrivalSpeed="10.96" duration="542.00" routeLength="951.09" waitingTime="329.00" waitingCount="15" stopTime="0.00" timeLoss="462.06" rerouteNo="0" devices="tripinfo_f_0_3.19" vType="type1" speedFactor="1.01" vaporized=""/>
    <tripinfo id="f_0_3.20" depart="459.00" departLane="np3_nt3_0" departPos="0.00" departSpeed="0.00" departDelay="295.36" arrival="1009.00" arrivalLane="nt14_np11_0" arrivalPos="75.00" arrivalSpeed="7.88" duration="550.00" routeLength="951.09" waitingTime="325.00" waitingCount="15" stopTime="0.00" timeLoss="454.62" rerouteNo="0" devices="tripinfo_f_0_3.20" vType="type1" speedFactor="0.84" vaporized=""/>
    <tripinfo id="f_0_3.21" depart="467.00" departLane="np3_nt3_0" departPos="0.00" departSpeed="0.00" departDelay="295.18" arrival="1011.00" arrivalLane="nt14_np11_0" arrivalPos="75.00" arrivalSpeed="7.38" duration="544.00" routeLength="951.09" waitingTime="326.00" waitingCount="15" stopTime="0.00" timeLoss="452.11" rerouteNo="0" devices="tripinfo_f_0_3.21" vType="type1" speedFactor="0.87" vaporized=""/>
    <tripinfo id="f_3_6.0" depart="900.00" departLane="np10_nt15_0" departPos="60.45" departSpeed="0.00" departDelay="0.00" arrival="1011.00" arrivalLane="nt2_np2_0" arrivalPos="64.60" arrivalSpeed="11.80" duration="111.00" routeLength="890.63" waitingTime="27.00" waitingCount="2" stopTime="0.00" timeLoss="44.95" rerouteNo="0" devices="tripinfo_f_3_6.0" vType="type1" speedFactor="1.13" vaporized=""/>
    <tripinfo id="f_0_3.22" depart="470.00" departLane="np3_nt3_0" departPos="2.75" departSpeed="0.00" departDelay="290.00" arrival="1014.00" arrivalLane="nt14_np11_0" arrivalPos="75.00" arrivalSpeed="8.56" duration="544.00" routeLength="948.34" waitingTime="310.00" waitingCount="15" stopTime="0.00" timeLoss="445.05" rerouteNo="0" devices="tripinfo_f_0_3.22" vType="type1" speedFactor="0.81" vaporized=""/>
    <tripinfo id="f_0_3.23" depart="472.00" departLane="np3_nt3_0" departPos="0.00" departSpeed="0.00" departDelay="283.81" arrival="1016.00" arrivalLane="nt14_np11_0" arrivalPos="75.00" arrivalSpeed="8.70" duration="544.00" routeLength="951.09" waitingTime="325.00" waitingCount="13" stopTime="0.00" timeLoss="450.34" rerouteNo="0" devices="tripinfo_f_0_3.23" vType="type1" speedFactor="0.86" vaporized=""/>
    <tripinfo id="f_0_3.24" depart="475.00" departLane="np3_nt3_0" departPos="0.00" departSpeed="0.00" departDelay="278.63" arrival="1018.00" arrivalLane="nt14_np11_0" arrivalPos="75.00" arrivalSpeed="10.38" duration="543.00" routeLength="951.09" waitingTime="320.00" waitingCount="14" stopTime="0.00" timeLoss="460.48" rerouteNo="0" devices="tripinfo_f_0_3.24" vType="type1" speedFactor="0.97" vaporized=""/>
    <tripinfo id="f_0_3.25" depart="482.00" departLane="np3_nt3_0" departPos="1.60" departSpeed="0.00" departDelay="277.45" arrival="1020.00" arrivalLane="nt14_np11_0" arrivalPos="75.00" arrivalSpeed="10.08" duration="538.00" routeLength="949.49" waitingTime="327.00" waitingCount="15" stopTime="0.00" timeLoss="457.44" rerouteNo="0" devices="tripinfo_f_0_3.25" vType="type1" speedFactor="0.99" vaporized=""/>
    <tripinfo id="f_0_3.26" depart="485.00" departLane="np3_nt3_0" departPos="2.05" departSpeed="0.00" departDelay="272.27" arrival="1022.00" arrivalLane="nt14_np11_0" arrivalPos="75.00" arrivalSpeed="11.49" duration="537.00" routeLength="949.04" waitingTime="318.00" waitingCount="13" stopTime="0.00" timeLoss="461.76" rerouteNo="0" devices="tripinfo_f_0_3.26" vType="type1" speedFactor="1.07" vaporized=""/>
    <tripinfo id="f_0_3.27" depart="487.00" departLane="np3_nt3_0" departPos="0.00" departSpeed="0.00" departDelay="266.09" arrival="1024.00" arrivalLane="nt14_np11_0" arrivalPos="75.00" arrivalSpeed="11.25" duration="537.00" routeLength="951.09" waitingTime="312.00" waitingCount="13" stopTime="0.00" timeLoss="463.41" rerouteNo="0" devices="tripinfo_f_0_3.27" vType="type1" speedFactor="1.09" vaporized=""/>
    <tripinfo id="f_0_3.28" depart="490.00" departLane="np3_nt3_0" departPos="0.72" departSpeed="0.00" departDelay="260.90" arrival="1026.00" arrivalLane="nt14_np11_0" arrivalPos="75.00" arrivalSpeed="7.74" duration="536.00" routeLength="950.37" waitingTime="302.00" waitingCount="13" stopTime="0.00" timeLoss="449.12" rerouteNo="0" devices="tripinfo_f_0_3.28" vType="type1" speedFactor="0.92" vaporized=""/>
    <tripinfo id="f_0_3.29" depart="492.00" departLane="np3_nt3_0" departPos="1.74" departSpeed="0.00" departDelay="254.72" arrival="1028.00" arrivalLane="nt14_np11_0" arrivalPos="75.00" arrivalSpeed="10.00" duration="536.00" routeLength="949.35" waitingTime="295.00" waitingCount="13" stopTime="0.00" timeLoss="450.80" rerouteNo="0" devices="tripinfo_f_0_3.29" vType="type1" speedFactor="0.94" vaporized=""/>
    <tripinfo id="f_0_3.30" depart="495.00" departLane="np3_nt3_0" departPos="1.62" departSpeed="0.00" departDelay="249.54" arrival="1030.00" arrivalLane="nt14_np11_0" arrivalPos="75.00" arrivalSpeed="7.79" duration="535.00" routeLength="949.47" waitingTime="286.00" waitingCount="14" stopTime="0.00" timeLoss="448.25" rerouteNo="0" devices="tripinfo_f_0_3.30" vType="type1" speedFactor="0.92" vaporized=""/>
    <tripinfo id="f_0_3.31" depart="497.00" departLane="np3_nt3_0" departPos="0.00" departSpeed="0.00" departDelay="243.36" arrival="1032.00" arrivalLane="nt14_np11_0" arrivalPos="75.00" arrivalSpeed="10.42" duration="535.00" routeLength="951.09" waitingTime="276.00" waitingCount="14" stopTime="0.00" timeLoss="451.58" rerouteNo="0" devices="tripinfo_f_0_3.31" vType="type1" speedFactor="0.96" vaporized=""/>
    <tripinfo id="f_0_3.32" depart="499.00" departLane="np3_nt3_0" departPos="0.00" departSpeed="0.00" departDelay="237.18" arrival="1034.00" arrivalLane="nt14_np11_0" arrivalPos="75.00" arrivalSpeed="10.19" duration="535.00" routeLength="951.09" waitingTime="280.00" waitingCount="14" stopTime="0.00" timeLoss="450.48" rerouteNo="0" devices="tripinfo_f_0_3.32" vType="type1" speedFactor="0.94" vaporized=""/>
    <tripinfo id="f_0_3.33" depart="503.00" departLane="np3_nt3_0" departPos="3.55" departSpeed="0.00" departDelay="232.99" arrival="1036.00" arrivalLane="nt14_np11_0" arrivalPos="75.00" arrivalSpeed="9.69" duration="533.00" routeLength="947.54" waitingTime="270.00" waitingCount="13" stopTime="0.00" timeLoss="452.42" rerouteNo="0" devices="tripinfo_f_0_3.33" vType="type1" speedFactor="0.98" vaporized=""/>
    <tripinfo id="f_1_3.11" depart="547.00" departLane="np3_nt3_0" departPos="0.00" departSpeed="0.00" departDelay="195.57" arrival="1038.00" arrivalLane="nt14_np11_0" arrivalPos="75.00" arrivalSpeed="13.14" duration="491.00" routeLength="951.09" waitingTime="269.00" waitingCount="13" stopTime="0.00" timeLoss="426.93" rerouteNo="0" devices="tripinfo_f_1_3.11" vType="type1" speedFactor="1.26" vaporized=""/>
    <tripinfo id="f_0_3.34" depart="505.00" departLane="np3_nt3_0" departPos="0.07" departSpeed="0.00" departDelay="226.81" arrival="1051.00" arrivalLane="nt14_np11_0" arrivalPos="75.00" arrivalSpeed="7.89" duration="546.00" routeLength="951.02" waitingTime="272.00" waitingCount="13" stopTime="0.00" timeLoss="441.90" rerouteNo="0" devices="tripinfo_f_0_3.34" vType="type1" speedFactor="0.77" vaporized=""/>
    <tripinfo id="f_0_3.35" depart="507.00" departLane="np3_nt3_0" departPos="0.00" departSpeed="0.00" departDelay="220.63" arrival="1053.00" arrivalLane="nt14_np11_0" arrivalPos="75.00" arrivalSpeed="7.96" duration="546.00" routeLength="951.09" waitingTime="273.00" waitingCount="14" stopTime="0.00" timeLoss="439.96" rerouteNo="0" devices="tripinfo_f_0_3.35" vType="type1" speedFactor="0.75" vaporized=""/>
    <tripinfo id="f_1_3.17" depart="559.00" departLane="np3_nt3_0" departPos="36.14" departSpeed="0.00" departDelay="179.52" arrival="1055.00" arrivalLane="nt14_np11_0" arrivalPos="75.00" arrivalSpeed="10.51" duration="496.00" routeLength="914.95" waitingTime="281.00" waitingCount="16" stopTime="0.00" timeLoss="424.23" rerouteNo="0" devices="tripinfo_f_1_3.17" vType="type1" speedFactor="1.08" vaporized=""/>
    <tripinfo id="f_0_3.36" depart="510.00" departLane="np3_nt3_0" departPos="0.00" departSpeed="0.00" departDelay="215.45" arrival="1057.00" arrivalLane="nt14_np11_0" arrivalPos="75.00" arrivalSpeed="10.40" duration="547.00" routeLength="951.09" waitingTime="274.00" waitingCount="15" stopTime="0.00" timeLoss="472.62" rerouteNo="0" devices="tripinfo_f_0_3.36" vType="type1" speedFactor="1.08" vaporized=""/>
    <tripinfo id="f_1_3.16" depart="559.00" departLane="np3_nt3_0" departPos="0.00" departSpeed="0.00" departDelay="184.20" arrival="1066.00" arrivalLane="nt14_np11_0" arrivalPos="75.00" arrivalSpeed="7.62" duration="507.00" routeLength="951.09" waitingTime="295.00" waitingCount="14" stopTime="0.00" timeLoss="418.04" rerouteNo="0" devices="tripinfo_f_1_3.16" vType="type1" speedFactor="0.90" vaporized=""/>
    <tripinfo id="f_1_3.0" depart="513.00" departLane="np3_nt3_0" departPos="0.85" departSpeed="0.00" departDelay="213.00" arrival="1068.00" arrivalLane="nt14_np11_0" arrivalPos="75.00" arrivalSpeed="10.02" duration="555.00" routeLength="950.24" waitingTime="297.00" waitingCount="19" stopTime="0.00" timeLoss="478.45" rerouteNo="0" devices="tripinfo_f_1_3.0" vType="type1" speedFactor="1.05" vaporized=""/>
    <tripinfo id="f_1_3.20" depart="570.00" departLane="np3_nt3_0" departPos="0.00" departSpeed="0.00" departDelay="176.50" arrival="1071.00" arrivalLane="nt14_np11_0" arrivalPos="75.00" arrivalSpeed="12.19" duration="501.00" routeLength="951.09" waitingTime="300.00" waitingCount="16" stopTime="0.00" timeLoss="435.90" rerouteNo="0" devices="tripinfo_f_1_3.20" vType="type1" speedFactor="1.22" vaporized=""/>
    <tripinfo id="f_1_3.1" depart="515.00" departLane="np3_nt3_0" departPos="0.00" departSpeed="0.00" departDelay="210.32" arrival="1122.00" arrivalLane="nt14_np11_0" arrivalPos="75.00" arrivalSpeed="10.97" duration="607.00" routeLength="951.09" waitingTime="340.00" waitingCount="18" stopTime="0.00" timeLoss="528.64" rerouteNo="0" devices="tripinfo_f_1_3.1" vType="type1" speedFactor="1.01" vaporized=""/>
    <tripinfo id="f_3_6.1" depart="913.00" departLane="np10_nt15_0" departPos="29.61" departSpeed="0.00" departDelay="0.00" arrival="1122.00" arrivalLane="nt2_np2_0" arrivalPos="64.60" arrivalSpeed="8.30" duration="209.00" routeLength="921.47" waitingTime="97.00" waitingCount="4" stopTime="0.00" timeLoss="124.12" rerouteNo="0" devices="tripinfo_f_3_6.1" vType="type1" speedFactor="0.91" vaporized=""/>
    <tripinfo id="f_1_3.22" depart="576.00" departLane="np3_nt3_0" departPos="5.57" departSpeed="0.00" departDelay="173.15" arrival="1124.00" arrivalLane="nt14_np11_0" arrivalPos="75.00" arrivalSpeed="10.45" duration="548.00" routeLength="945.52" waitingTime="322.00" waitingCount="15" stopTime="0.00" timeLoss="473.17" rerouteNo="0" devices="tripinfo_f_1_3.22" vType="type1" speedFactor="1.07" vaporized=""/>
    <tripinfo id="f_3_6.2" depart="926.00" departLane="np10_nt15_0" departPos="63.50" departSpeed="0.00" departDelay="0.01" arrival="1125.00" arrivalLane="nt2_np2_0" arrivalPos="64.60" arrivalSpeed="9.14" duration="199.00" routeLength="887.58" waitingTime="82.00" waitingCount="5" stopTime="0.00" timeLoss="110.05" rerouteNo="0" devices="tripinfo_f_3_6.2" vType="type1" speedFactor="0.84" vaporized=""/>
    <tripinfo id="f_1_3.2" depart="518.00" departLane="np3_nt3_0" departPos="2.79" departSpeed="0.00" departDelay="208.65" arrival="1126.00" arrivalLane="nt14_np11_0" arrivalPos="75.00" arrivalSpeed="11.21" duration="608.00" routeLength="948.30" waitingTime="325.00" waitingCount="21" stopTime="0.00" timeLoss="533.04" rerouteNo="0" devices="tripinfo_f_1_3.2" vType="type1" speedFactor="1.07" vaporized=""/>
    <tripinfo id="f_1_3.23" depart="578.00" departLane="np3_nt3_0" departPos="1.60" departSpeed="0.00" departDelay="170.47" arrival="1128.00" arrivalLane="nt14_np11_0" arrivalPos="75.00" arrivalSpeed="10.33" duration="550.00" routeLength="949.49" waitingTime="319.00" waitingCount="15" stopTime="0.00" timeLoss="480.06" rerouteNo="0" devices="tripinfo_f_1_3.23" vType="type1" speedFactor="1.14" vaporized=""/>
    <tripinfo id="f_3_5.0" depart="900.00" departLane="np8_nt16_0" departPos="4.92" departSpeed="0.00" departDelay="0.00" arrival="1135.00" arrivalLane="nt1_np16_0" arrivalPos="67.80" arrivalSpeed="16.39" duration="235.00" routeLength="1342.96" waitingTime="96.00" waitingCount="6" stopTime="0.00" timeLoss="134.64" rerouteNo="0" devices="tripinfo_f_3_5.0" vType="type1" speedFactor="0.93" vaporized=""/>
    <tripinfo id="f_3_5.1" depart="922.00" departLane="np8_nt16_0" departPos="55.55" departSpeed="0.00" departDelay="0.31" arrival="1138.00" arrivalLane="nt1_np16_0" arrivalPos="67.80" arrivalSpeed="20.39" duration="216.00" routeLength="1292.33" waitingTime="77.00" waitingCount="6" stopTime="0.00" timeLoss="130.56" rerouteNo="0" devices="tripinfo_f_3_5.1" vType="type1" speedFactor="1.07" vaporized=""/>
    <tripinfo id="f_1_3.3" depart="520.00" departLane="np3_nt3_0" departPos="0.00" departSpeed="0.00" departDelay="205.97" arrival="1142.00" arrivalLane="nt14_np11_0" arrivalPos="75.00" arrivalSpeed="10.57" duration="622.00" routeLength="951.09" waitingTime="338.00" waitingCount="20" stopTime="0.00" timeLoss="544.00" rerouteNo="0" devices="tripinfo_f_1_3.3" vType="type1" speedFactor="1.03" vaporized=""/>
    <tripinfo id="f_1_3.26" depart="584.00" departLane="np3_nt3_0" departPos="11.05" departSpeed="0.00" departDelay="162.45" arrival="1144.00" arrivalLane="nt14_np11_0" arrivalPos="75.00" arrivalSpeed="11.17" duration="560.00" routeLength="940.04" waitingTime="321.00" waitingCount="16" stopTime="0.00" timeLoss="487.45" rerouteNo="0" devices="tripinfo_f_1_3.26" vType="type1" speedFactor="1.09" vaporized=""/>
    <tripinfo id="f_1_3.27" depart="585.00" departLane="np3_nt3_0" departPos="19.06" departSpeed="0.00" departDelay="158.77" arrival="1188.00" arrivalLane="nt14_np11_0" arrivalPos="75.00" arrivalSpeed="9.48" duration="603.00" routeLength="932.03" waitingTime="368.00" waitingCount="16" stopTime="0.00" timeLoss="524.92" rerouteNo="0" devices="tripinfo_f_1_3.27" vType="type1" speedFactor="1.00" vaporized=""/>
    <tripinfo id="f_1_3.25" depart="583.00" departLane="np3_nt3_0" departPos="0.00" departSpeed="0.00" departDelay="166.12" arrival="1211.00" arrivalLane="nt14_np11_0" arrivalPos="75.00" arrivalSpeed="10.72" duration="628.00" routeLength="951.09" waitingTime="391.00" waitingCount="17" stopTime="0.00" timeLoss="552.78" rerouteNo="0" devices="tripinfo_f_1_3.25" vType="type1" speedFactor="1.06" vaporized=""/>
    <tripinfo id="f_1_3.31" depart="596.00" departLane="np3_nt3_0" departPos="0.00" departSpeed="0.00" departDelay="151.07" arrival="1218.00" arrivalLane="nt14_np11_0" arrivalPos="75.00" arrivalSpeed="8.68" duration="622.00" routeLength="951.09" waitingTime="390.00" waitingCount="18" stopTime="0.00" timeLoss="536.19" rerouteNo="0" devices="tripinfo_f_1_3.31" vType="type1" speedFactor="0.93" vaporized=""/>