<?xml version="1.0" encoding="UTF-8"?>

<!-- generated on 2023-08-30 12:22:58 by Eclipse SUMO libsumo Version 1.18.0
<configuration xmlns:xsi="http://www.w3.org/2001/XMLSchema-instance" xsi:noNamespaceSchemaLocation="http://sumo.dlr.de/xsd/libsumoConfiguration.xsd">

    <input>
        <net-file value="/home/stefan/RESCO/./environments/arterial4x4/arterial4x4.net.xml"/>
        <route-files value="/home/stefan/RESCO/./environments/arterial4x4/arterial4x4_13.rou.xml"/>
    </input>

    <output>
        <tripinfo-output value="/home/stefan/results/ITRPO-tr0-arterial4x4-0-drq_norm-wait_norm/tripinfo_13.xml"/>
        <tripinfo-output.write-unfinished value="true"/>
    </output>

    <processing>
        <time-to-teleport value="-1"/>
    </processing>

    <report>
        <no-warnings value="True"/>
        <no-step-log value="True"/>
    </report>

    <random_number>
        <random value="true"/>
    </random_number>

</configuration>
-->

<tripinfos xmlns:xsi="http://www.w3.org/2001/XMLSchema-instance" xsi:noNamespaceSchemaLocation="http://sumo.dlr.de/xsd/tripinfo_file.xsd">
    <tripinfo id="f_0_2.0" depart="0.00" departLane="np2_nt2_0" departPos="16.06" departSpeed="0.00" departDelay="0.00" arrival="133.00" arrivalLane="nt15_np10_0" arrivalPos="75.00" arrivalSpeed="8.38" duration="133.00" routeLength="935.02" waitingTime="18.00" waitingCount="3" stopTime="0.00" timeLoss="45.11" rerouteNo="0" devices="tripinfo_f_0_2.0" vType="type1" speedFactor="0.89" vaporized=""/>
    <tripinfo id="f_0_3.0" depart="0.00" departLane="np3_nt3_0" departPos="19.97" departSpeed="0.00" departDelay="0.00" arrival="137.00" arrivalLane="nt14_np11_0" arrivalPos="75.00" arrivalSpeed="13.84" duration="137.00" routeLength="931.12" waitingTime="55.00" waitingCount="4" stopTime="0.00" timeLoss="74.90" rerouteNo="0" devices="tripinfo_f_0_3.0" vType="type1" speedFactor="1.26" vaporized=""/>
    <tripinfo id="f_0_2.1" depart="9.00" departLane="np2_nt2_0" departPos="1.40" departSpeed="0.00" departDelay="0.82" arrival="229.00" arrivalLane="nt15_np10_0" arrivalPos="75.00" arrivalSpeed="7.52" duration="220.00" routeLength="949.68" waitingTime="96.00" waitingCount="5" stopTime="0.00" timeLoss="124.32" rerouteNo="0" devices="tripinfo_f_0_2.1" vType="type1" speedFactor="0.83" vaporized=""/>
    <tripinfo id="f_0_3.1" depart="9.00" departLane="np3_nt3_0" departPos="22.30" departSpeed="0.00" departDelay="0.82" arrival="237.00" arrivalLane="nt14_np11_0" arrivalPos="75.00" arrivalSpeed="9.76" duration="228.00" routeLength="928.79" waitingTime="126.00" waitingCount="4" stopTime="0.00" timeLoss="150.23" rerouteNo="0" devices="tripinfo_f_0_3.1" vType="type1" speedFactor="1.00" vaporized=""/>
    <tripinfo id="f_0_3.2" depart="17.00" departLane="np3_nt3_0" departPos="36.42" departSpeed="0.00" departDelay="0.64" arrival="239.00" arrivalLane="nt14_np11_0" arrivalPos="75.00" arrivalSpeed="9.74" duration="222.00" routeLength="914.67" waitingTime="113.00" waitingCount="5" stopTime="0.00" timeLoss="148.12" rerouteNo="0" devices="tripinfo_f_0_3.2" vType="type1" speedFactor="1.03" vaporized=""/>
    <tripinfo id="f_0_1.0" depart="0.00" departLane="np16_nt1_0" departPos="61.05" departSpeed="0.00" departDelay="0.00" arrival="264.00" arrivalLane="nt16_np8_0" arrivalPos="75.00" arrivalSpeed="15.92" duration="264.00" routeLength="1286.83" waitingTime="116.00" waitingCount="7" stopTime="0.00" timeLoss="159.93" rerouteNo="0" devices="tripinfo_f_0_1.0" vType="type1" speedFactor="0.87" vaporized=""/>
    <tripinfo id="f_0_0.0" depart="0.00" departLane="np13_nt13_0" departPos="63.82" departSpeed="0.00" departDelay="0.00" arrival="288.00" arrivalLane="nt4_np5_0" arrivalPos="75.00" arrivalSpeed="17.07" duration="288.00" routeLength="1284.07" waitingTime="147.00" waitingCount="6" stopTime="0.00" timeLoss="187.35" rerouteNo="0" devices="tripinfo_f_0_0.0" vType="type1" speedFactor="0.89" vaporized=""/>
    <tripinfo id="f_0_3.3" depart="25.00" departLane="np3_nt3_0" departPos="17.12" departSpeed="0.00" departDelay="0.45" arrival="298.00" arrivalLane="nt14_np11_0" arrivalPos="75.00" arrivalSpeed="9.18" duration="273.00" routeLength="933.97" waitingTime="146.00" waitingCount="8" stopTime="0.00" timeLoss="184.48" rerouteNo="0" devices="tripinfo_f_0_3.3" vType="type1" speedFactor="0.88" vaporized=""/>
    <tripinfo id="f_0_3.4" depart="33.00" departLane="np3_nt3_0" departPos="1.44" departSpeed="0.00" departDelay="0.27" arrival="309.00" arrivalLane="nt14_np11_0" arrivalPos="75.00" arrivalSpeed="7.40" duration="276.00" routeLength="949.65" waitingTime="142.00" waitingCount="8" stopTime="0.00" timeLoss="183.74" rerouteNo="0" devices="tripinfo_f_0_3.4" vType="type1" speedFactor="0.87" vaporized=""/>
    <tripinfo id="f_0_2.2" depart="17.00" departLane="np2_nt2_0" departPos="44.64" departSpeed="0.00" departDelay="0.64" arrival="342.00" arrivalLane="nt15_np10_0" arrivalPos="75.00" arrivalSpeed="10.62" duration="325.00" routeLength="906.44" waitingTime="190.00" waitingCount="6" stopTime="0.00" timeLoss="251.21" rerouteNo="0" devices="tripinfo_f_0_2.2" vType="type1" speedFactor="1.04" vaporized=""/>
    <tripinfo id="f_0_2.3" depart="25.00" departLane="np2_nt2_0" departPos="30.69" departSpeed="0.00" departDelay="0.45" arrival="344.00" arrivalLane="nt15_np10_0" arrivalPos="75.00" arrivalSpeed="10.19" duration="319.00" routeLength="920.39" waitingTime="207.00" waitingCount="7" stopTime="0.00" timeLoss="251.47" rerouteNo="0" devices="tripinfo_f_0_2.3" vType="type1" speedFactor="1.14" vaporized=""/>
    <tripinfo id="f_0_2.4" depart="33.00" departLane="np2_nt2_0" departPos="31.91" departSpeed="0.00" departDelay="0.27" arrival="357.00" arrivalLane="nt15_np10_0" arrivalPos="75.00" arrivalSpeed="10.13" duration="324.00" routeLength="919.17" waitingTime="208.00" waitingCount="8" stopTime="0.00" timeLoss="250.82" rerouteNo="0" devices="tripinfo_f_0_2.4" vType="type1" speedFactor="1.06" vaporized=""/>
    <tripinfo id="f_0_3.5" depart="41.00" departLane="np3_nt3_0" departPos="20.55" departSpeed="0.00" departDelay="0.09" arrival="365.00" arrivalLane="nt14_np11_0" arrivalPos="75.00" arrivalSpeed="7.30" duration="324.00" routeLength="930.54" waitingTime="187.00" waitingCount="8" stopTime="0.00" timeLoss="225.73" rerouteNo="0" devices="tripinfo_f_0_3.5" vType="type1" speedFactor="0.80" vaporized=""/>
    <tripinfo id="f_0_1.1" depart="14.00" departLane="np16_nt1_0" departPos="21.93" departSpeed="0.00" departDelay="0.36" arrival="373.00" arrivalLane="nt16_np8_0" arrivalPos="75.00" arrivalSpeed="19.93" duration="359.00" routeLength="1325.95" waitingTime="214.00" waitingCount="11" stopTime="0.00" timeLoss="276.68" rerouteNo="0" devices="tripinfo_f_0_1.1" vType="type1" speedFactor="1.12" vaporized=""/>
    <tripinfo id="f_0_1.2" depart="28.00" departLane="np16_nt1_0" departPos="30.88" departSpeed="0.00" departDelay="0.73" arrival="375.00" arrivalLane="nt16_np8_0" arrivalPos="75.00" arrivalSpeed="18.65" duration="347.00" routeLength="1317.00" waitingTime="183.00" waitingCount="10" stopTime="0.00" timeLoss="250.68" rerouteNo="0" devices="tripinfo_f_0_1.2" vType="type1" speedFactor="0.96" vaporized=""/>
    <tripinfo id="f_0_3.6" depart="50.00" departLane="np3_nt3_0" departPos="7.21" departSpeed="0.00" departDelay="0.91" arrival="377.00" arrivalLane="nt14_np11_0" arrivalPos="75.00" arrivalSpeed="11.78" duration="327.00" routeLength="943.88" waitingTime="204.00" waitingCount="9" stopTime="0.00" timeLoss="253.70" rerouteNo="0" devices="tripinfo_f_0_3.6" vType="type1" speedFactor="1.09" vaporized=""/>
    <tripinfo id="f_0_2.5" depart="41.00" departLane="np2_nt2_0" departPos="44.87" departSpeed="0.00" departDelay="0.09" arrival="382.00" arrivalLane="nt15_np10_0" arrivalPos="75.00" arrivalSpeed="10.16" duration="341.00" routeLength="906.21" waitingTime="204.00" waitingCount="11" stopTime="0.00" timeLoss="264.16" rerouteNo="0" devices="tripinfo_f_0_2.5" vType="type1" speedFactor="0.98" vaporized=""/>
    <tripinfo id="f_0_0.1" depart="14.00" departLane="np13_nt13_0" departPos="43.90" departSpeed="0.00" departDelay="0.36" arrival="394.00" arrivalLane="nt4_np5_0" arrivalPos="75.00" arrivalSpeed="16.65" duration="380.00" routeLength="1303.99" waitingTime="234.00" waitingCount="8" stopTime="0.00" timeLoss="278.59" rerouteNo="0" devices="tripinfo_f_0_0.1" vType="type1" speedFactor="0.90" vaporized=""/>
    <tripinfo id="f_0_0.2" depart="28.00" departLane="np13_nt13_0" departPos="17.58" departSpeed="0.00" departDelay="0.73" arrival="395.00" arrivalLane="nt4_np5_0" arrivalPos="75.00" arrivalSpeed="20.13" duration="367.00" routeLength="1330.31" waitingTime="212.00" waitingCount="7" stopTime="0.00" timeLoss="278.20" rerouteNo="0" devices="tripinfo_f_0_0.2" vType="type1" speedFactor="1.04" vaporized=""/>
    <tripinfo id="f_0_2.6" depart="50.00" departLane="np2_nt2_0" departPos="42.60" departSpeed="0.00" departDelay="0.91" arrival="397.00" arrivalLane="nt15_np10_0" arrivalPos="75.00" arrivalSpeed="10.02" duration="347.00" routeLength="908.48" waitingTime="201.00" waitingCount="14" stopTime="0.00" timeLoss="273.07" rerouteNo="0" devices="tripinfo_f_0_2.6" vType="type1" speedFactor="1.03" vaporized=""/>
    <tripinfo id="f_0_2.7" depart="58.00" departLane="np2_nt2_0" departPos="50.68" departSpeed="0.00" departDelay="0.73" arrival="399.00" arrivalLane="nt15_np10_0" arrivalPos="75.00" arrivalSpeed="11.42" duration="341.00" routeLength="900.40" waitingTime="198.00" waitingCount="13" stopTime="0.00" timeLoss="274.26" rerouteNo="0" devices="tripinfo_f_0_2.7" vType="type1" speedFactor="1.13" vaporized=""/>
    <tripinfo id="f_0_0.3" depart="41.00" departLane="np13_nt13_0" departPos="9.39" departSpeed="0.00" departDelay="0.09" arrival="409.00" arrivalLane="nt4_np5_0" arrivalPos="75.00" arrivalSpeed="20.64" duration="368.00" routeLength="1338.50" waitingTime="219.00" waitingCount="10" stopTime="0.00" timeLoss="282.70" rerouteNo="0" devices="tripinfo_f_0_0.3" vType="type1" speedFactor="1.09" vaporized=""/>
    <tripinfo id="f_0_2.8" depart="66.00" departLane="np2_nt2_0" departPos="26.48" departSpeed="0.00" departDelay="0.54" arrival="412.00" arrivalLane="nt15_np10_0" arrivalPos="75.00" arrivalSpeed="10.55" duration="346.00" routeLength="924.60" waitingTime="190.00" waitingCount="14" stopTime="0.00" timeLoss="271.15" rerouteNo="0" devices="tripinfo_f_0_2.8" vType="type1" speedFactor="1.04" vaporized=""/>
    <tripinfo id="f_0_2.9" depart="74.00" departLane="np2_nt2_0" departPos="16.90" departSpeed="0.00" departDelay="0.36" arrival="424.00" arrivalLane="nt15_np10_0" arrivalPos="75.00" arrivalSpeed="9.32" duration="350.00" routeLength="934.18" waitingTime="175.00" waitingCount="11" stopTime="0.00" timeLoss="259.57" rerouteNo="0" devices="tripinfo_f_0_2.9" vType="type1" speedFactor="0.87" vaporized=""/>
    <tripinfo id="f_0_3.7" depart="58.00" departLane="np3_nt3_0" departPos="10.70" departSpeed="0.00" departDelay="0.73" arrival="441.00" arrivalLane="nt14_np11_0" arrivalPos="75.00" arrivalSpeed="10.79" duration="383.00" routeLength="940.39" waitingTime="267.00" waitingCount="8" stopTime="0.00" timeLoss="307.18" rerouteNo="0" devices="tripinfo_f_0_3.7" vType="type1" speedFactor="1.04" vaporized=""/>
    <tripinfo id="f_0_3.8" depart="66.00" departLane="np3_nt3_0" departPos="8.50" departSpeed="0.00" departDelay="0.54" arrival="446.00" arrivalLane="nt14_np11_0" arrivalPos="75.00" arrivalSpeed="7.43" duration="380.00" routeLength="942.59" waitingTime="241.00" waitingCount="8" stopTime="0.00" timeLoss="284.21" rerouteNo="0" devices="tripinfo_f_0_3.8" vType="type1" speedFactor="0.82" vaporized=""/>
    <tripinfo id="f_0_2.10" depart="82.00" departLane="np2_nt2_0" departPos="21.79" departSpeed="0.00" departDelay="0.18" arrival="452.00" arrivalLane="nt15_np10_0" arrivalPos="75.00" arrivalSpeed="10.17" duration="370.00" routeLength="929.29" waitingTime="193.00" waitingCount="12" stopTime="0.00" timeLoss="295.60" rerouteNo="0" devices="tripinfo_f_0_2.10" vType="type1" speedFactor="1.05" vaporized=""/>
    <tripinfo id="f_0_1.3" depart="41.00" departLane="np16_nt1_0" departPos="42.61" departSpeed="0.00" departDelay="0.09" arrival="453.00" arrivalLane="nt16_np8_0" arrivalPos="75.00" arrivalSpeed="19.07" duration="412.00" routeLength="1305.27" waitingTime="243.00" waitingCount="14" stopTime="0.00" timeLoss="321.56" rerouteNo="0" devices="tripinfo_f_0_1.3" vType="type1" speedFactor="1.01" vaporized=""/>
    <tripinfo id="f_0_3.9" depart="74.00" departLane="np3_nt3_0" departPos="3.71" departSpeed="0.00" departDelay="0.36" arrival="521.00" arrivalLane="nt14_np11_0" arrivalPos="75.00" arrivalSpeed="11.06" duration="447.00" routeLength="947.38" waitingTime="325.00" waitingCount="12" stopTime="0.00" timeLoss="377.33" rerouteNo="0" devices="tripinfo_f_0_3.9" vType="type1" speedFactor="1.14" vaporized=""/>
    <tripinfo id="f_0_3.10" depart="82.00" departLane="np3_nt3_0" departPos="0.00" departSpeed="0.00" departDelay="0.18" arrival="524.00" arrivalLane="nt14_np11_0" arrivalPos="75.00" arrivalSpeed="10.10" duration="442.00" routeLength="951.09" waitingTime="298.00" waitingCount="12" stopTime="0.00" timeLoss="361.93" rerouteNo="0" devices="tripinfo_f_0_3.10" vType="type1" speedFactor="1.00" vaporized=""/>
    <tripinfo id="f_0_3.11" depart="90.00" departLane="np3_nt3_0" departPos="2.26" departSpeed="0.00" departDelay="0.00" arrival="543.00" arrivalLane="nt14_np11_0" arrivalPos="75.00" arrivalSpeed="9.60" duration="453.00" routeLength="948.83" waitingTime="286.00" waitingCount="17" stopTime="0.00" timeLoss="364.06" rerouteNo="0" devices="tripinfo_f_0_3.11" vType="type1" speedFactor="0.89" vaporized=""/>
    <tripinfo id="f_0_3.12" depart="117.00" departLane="np3_nt3_0" departPos="0.00" departSpeed="0.00" departDelay="18.82" arrival="545.00" arrivalLane="nt14_np11_0" arrivalPos="75.00" arrivalSpeed="9.38" duration="428.00" routeLength="951.09" waitingTime="266.00" waitingCount="14" stopTime="0.00" timeLoss="350.41" rerouteNo="0" devices="tripinfo_f_0_3.12" vType="type1" speedFactor="1.03" vaporized=""/>
    <tripinfo id="f_0_3.13" depart="120.00" departLane="np3_nt3_0" departPos="0.00" departSpeed="0.00" departDelay="13.63" arrival="547.00" arrivalLane="nt14_np11_0" arrivalPos="75.00" arrivalSpeed="9.89" duration="427.00" routeLength="951.09" waitingTime="271.00" waitingCount="13" stopTime="0.00" timeLoss="353.80" rerouteNo="0" devices="tripinfo_f_0_3.13" vType="type1" speedFactor="1.09" vaporized=""/>
    <tripinfo id="f_0_3.14" depart="168.00" departLane="np3_nt3_0" departPos="0.00" departSpeed="0.00" departDelay="53.45" arrival="552.00" arrivalLane="nt14_np11_0" arrivalPos="75.00" arrivalSpeed="7.97" duration="384.00" routeLength="951.09" waitingTime="239.00" waitingCount="9" stopTime="0.00" timeLoss="299.80" rerouteNo="0" devices="tripinfo_f_0_3.14" vType="type1" speedFactor="0.95" vaporized=""/>
    <tripinfo id="f_0_3.15" depart="208.00" departLane="np3_nt3_0" departPos="0.00" departSpeed="0.00" departDelay="85.27" arrival="602.00" arrivalLane="nt14_np11_0" arrivalPos="75.00" arrivalSpeed="10.62" duration="394.00" routeLength="951.09" waitingTime="251.00" waitingCount="10" stopTime="0.00" timeLoss="313.89" rerouteNo="0" devices="tripinfo_f_0_3.15" vType="type1" speedFactor="1.00" vaporized=""/>
    <tripinfo id="f_0_3.16" depart="228.00" departLane="np3_nt3_0" departPos="0.00" departSpeed="0.00" departDelay="97.09" arrival="606.00" arrivalLane="nt14_np11_0" arrivalPos="75.00" arrivalSpeed="8.15" duration="378.00" routeLength="951.09" waitingTime="219.00" waitingCount="11" stopTime="0.00" timeLoss="284.14" rerouteNo="0" devices="tripinfo_f_0_3.16" vType="type1" speedFactor="0.85" vaporized=""/>
    <tripinfo id="f_0_3.17" depart="273.00" departLane="np3_nt3_0" departPos="0.00" departSpeed="0.00" departDelay="133.91" arrival="608.00" arrivalLane="nt14_np11_0" arrivalPos="75.00" arrivalSpeed="11.61" duration="335.00" routeLength="951.09" waitingTime="179.00" waitingCount="9" stopTime="0.00" timeLoss="262.28" rerouteNo="0" devices="tripinfo_f_0_3.17" vType="type1" speedFactor="1.11" vaporized=""/>
    <tripinfo id="f_0_3.18" depart="302.00" departLane="np3_nt3_0" departPos="0.00" departSpeed="0.00" departDelay="154.72" arrival="627.00" arrivalLane="nt14_np11_0" arrivalPos="75.00" arrivalSpeed="9.01" duration="325.00" routeLength="951.09" waitingTime="175.00" waitingCount="10" stopTime="0.00" timeLoss="244.98" rerouteNo="0" devices="tripinfo_f_0_3.18" vType="type1" speedFactor="1.00" vaporized=""/>
    <tripinfo id="f_0_3.19" depart="305.00" departLane="np3_nt3_0" departPos="0.00" departSpeed="0.00" departDelay="149.54" arrival="642.00" arrivalLane="nt14_np11_0" arrivalPos="75.00" arrivalSpeed="11.97" duration="337.00" routeLength="951.09" waitingTime="187.00" waitingCount="13" stopTime="0.00" timeLoss="263.11" rerouteNo="0" devices="tripinfo_f_0_3.19" vType="type1" speedFactor="1.09" vaporized=""/>
    <tripinfo id="f_0_3.20" depart="312.00" departLane="np3_nt3_0" departPos="0.00" departSpeed="0.00" departDelay="148.36" arrival="643.00" arrivalLane="nt14_np11_0" arrivalPos="75.00" arrivalSpeed="11.84" duration="331.00" routeLength="951.09" waitingTime="182.00" waitingCount="15" stopTime="0.00" timeLoss="262.29" rerouteNo="0" devices="tripinfo_f_0_3.20" vType="type1" speedFactor="1.16" vaporized=""/>
    <tripinfo id="f_0_3.21" depart="368.00" departLane="np3_nt3_0" departPos="0.00" departSpeed="0.00" departDelay="196.18" arrival="682.00" arrivalLane="nt14_np11_0" arrivalPos="75.00" arrivalSpeed="10.50" duration="314.00" routeLength="951.09" waitingTime="149.00" waitingCount="13" stopTime="0.00" timeLoss="234.83" rerouteNo="0" devices="tripinfo_f_0_3.21" vType="type1" speedFactor="1.02" vaporized=""/>
    <tripinfo id="f_0_3.22" depart="389.00" departLane="np3_nt3_0" departPos="0.00" departSpeed="0.00" departDelay="209.00" arrival="713.00" arrivalLane="nt14_np11_0" arrivalPos="75.00" arrivalSpeed="9.63" duration="324.00" routeLength="951.09" waitingTime="158.00" waitingCount="14" stopTime="0.00" timeLoss="239.03" rerouteNo="0" devices="tripinfo_f_0_3.22" vType="type1" speedFactor="0.95" vaporized=""/>
    <tripinfo id="f_0_3.23" depart="402.00" departLane="np3_nt3_0" departPos="0.00" departSpeed="0.00" departDelay="213.81" arrival="714.00" arrivalLane="nt14_np11_0" arrivalPos="75.00" arrivalSpeed="11.88" duration="312.00" routeLength="951.09" waitingTime="145.00" waitingCount="12" stopTime="0.00" timeLoss="239.31" rerouteNo="0" devices="tripinfo_f_0_3.23" vType="type1" speedFactor="1.09" vaporized=""/>
    <tripinfo id="f_0_3.24" depart="405.00" departLane="np3_nt3_0" departPos="0.00" departSpeed="0.00" departDelay="208.63" arrival="727.00" arrivalLane="nt14_np11_0" arrivalPos="75.00" arrivalSpeed="10.89" duration="322.00" routeLength="951.09" waitingTime="148.00" waitingCount="14" stopTime="0.00" timeLoss="244.48" rerouteNo="0" devices="tripinfo_f_0_3.24" vType="type1" speedFactor="1.03" vaporized=""/>
    <tripinfo id="f_0_3.25" depart="417.00" departLane="np3_nt3_0" departPos="0.14" departSpeed="0.00" departDelay="212.45" arrival="762.00" arrivalLane="nt14_np11_0" arrivalPos="75.00" arrivalSpeed="9.76" duration="345.00" routeLength="950.95" waitingTime="168.00" waitingCount="12" stopTime="0.00" timeLoss="262.56" rerouteNo="0" devices="tripinfo_f_0_3.25" vType="type1" speedFactor="0.97" vaporized=""/>
    <tripinfo id="f_0_3.33" depart="450.00" departLane="np3_nt3_0" departPos="63.92" departSpeed="0.00" departDelay="179.99" arrival="764.00" arrivalLane="nt14_np11_0" arrivalPos="75.00" arrivalSpeed="8.73" duration="314.00" routeLength="887.17" waitingTime="155.00" waitingCount="12" stopTime="0.00" timeLoss="238.99" rerouteNo="0" devices="tripinfo_f_0_3.33" vType="type1" speedFactor="0.99" vaporized=""/>
    <tripinfo id="f_3_5.0" depart="900.00" departLane="np8_nt16_0" departPos="70.98" departSpeed="0.00" departDelay="0.00" arrival="1023.00" arrivalLane="nt1_np16_0" arrivalPos="67.80" arrivalSpeed="22.54" duration="123.00" routeLength="1276.90" waitingTime="23.00" waitingCount="3" stopTime="0.00" timeLoss="44.03" rerouteNo="0" devices="tripinfo_f_3_5.0" vType="type1" speedFactor="1.13" vaporized=""/>
    <tripinfo id="f_3_5.1" depart="922.00" departLane="np8_nt16_0" departPos="15.82" departSpeed="0.00" departDelay="0.31" arrival="1166.00" arrivalLane="nt1_np16_0" arrivalPos="67.80" arrivalSpeed="17.28" duration="244.00" routeLength="1332.06" waitingTime="114.00" waitingCount="4" stopTime="0.00" timeLoss="141.13" rerouteNo="0" devices="tripinfo_f_3_5.1" vType="type1" speedFactor="0.90" vaporized=""/>
    <tripinfo id="f_3_5.2" depart="944.00" departLane="np8_nt16_0" departPos="52.60" departSpeed="0.00" departDelay="0.63" arrival="1171.00" arrivalLane="nt1_np16_0" arrivalPos="67.80" arrivalSpeed="18.25" duration="227.00" routeLength="1295.28" waitingTime="95.00" waitingCount="4" stopTime="0.00" timeLoss="132.71" rerouteNo="0" devices="tripinfo_f_3_5.2" vType="type1" speedFactor="0.96" vaporized=""/>
    <tripinfo id="f_3_5.3" depart="966.00" departLane="np8_nt16_0" departPos="12.16" departSpeed="0.00" departDelay="0.94" arrival="1216.00" arrivalLane="nt1_np16_0" arrivalPos="67.80" arrivalSpeed="16.21" duration="250.00" routeLength="1335.72" waitingTime="106.00" waitingCount="7" stopTime="0.00" timeLoss="146.84" rerouteNo="0" devices="tripinfo_f_3_5.3" vType="type1" speedFactor="0.90" vaporized=""/>
    <tripinfo id="f_3_5.4" depart="987.00" departLane="np8_nt16_0" departPos="2.87" departSpeed="0.00" departDelay="0.25" arrival="1240.00" arrivalLane="nt1_np16_0" arrivalPos="67.80" arrivalSpeed="18.69" duration="253.00" routeLength="1345.01" waitingTime="121.00" waitingCount="7" stopTime="0.00" timeLoss="162.05" rerouteNo="0" devices="tripinfo_f_3_5.4" vType="type1" speedFactor="1.02" vaporized=""/>
    <tripinfo id="f_3_5.5" depart="1009.00" departLane="np8_nt16_0" departPos="35.48" departSpeed="0.00" departDelay="0.56" arrival="2035.00" arrivalLane="nt1_np16_0" arrivalPos="67.80" arrivalSpeed="20.67" duration="1026.00" routeLength="1312.40" waitingTime="910.00" waitingCount="6" stopTime="0.00" timeLoss="945.10" rerouteNo="0" devices="tripinfo_f_3_5.5" vType="type1" speedFactor="1.13" vaporized=""/>
    <tripinfo id="f_3_5.6" depart="1031.00" departLane="np8_nt16_0" departPos="46.06" departSpeed="0.00" departDelay="0.88" arrival="2042.00" arrivalLane="nt1_np16_0" arrivalPos="67.80" arrivalSpeed="19.85" duration="1011.00" routeLength="1301.82" waitingTime="889.00" waitingCount="5" stopTime="0.00" timeLoss="925.22" rerouteNo="0" devices="tripinfo_f_3_5.6" vType="type1" speedFactor="1.06" vaporized=""/>
    <tripinfo id="f_3_5.7" depart="1052.00" departLane="np8_nt16_0" departPos="35.24" departSpeed="0.00" departDelay="0.19" arrival="2999.00" arrivalLane="nt1_np16_0" arrivalPos="67.80" arrivalSpeed="19.08" duration="1947.00" routeLength="1312.64" waitingTime="1814.00" waitingCount="7" stopTime="0.00" timeLoss="1854.66" rerouteNo="0" devices="tripinfo_f_3_5.7" vType="type1" speedFactor="0.99" vaporized=""/>
    <tripinfo id="f_3_5.8" depart="1074.00" departLane="np8_nt16_0" departPos="61.09" departSpeed="0.00" departDelay="0.50" arrival="3017.00" arrivalLane="nt1_np16_0" arrivalPos="67.80" arrivalSpeed="20.32" duration="1943.00" routeLength="1286.79" waitingTime="1812.00" waitingCount="7" stopTime="0.00" timeLoss="1860.24" rerouteNo="0" devices="tripinfo_f_3_5.8" vType="type1" speedFactor="1.10" vaporized=""/>
    <tripinfo id="f_0_0.4" depart="55.00" departLane="np13_nt13_0" departPos="37.64" departSpeed="0.00" departDelay="0.46" arrival="-1.00" arrivalLane="" arrivalPos="-1.00" arrivalSpeed="-1.00" duration="3545.00" routeLength="818.15" waitingTime="3425.00" waitingCount="7" stopTime="0.00" timeLoss="3468.91" rerouteNo="0" devices="tripinfo_f_0_0.4" vType="type1" speedFactor="0.77" vaporized="end"/>
    <tripinfo id="f_0_1.4" depart="55.00" departLane="np16_nt1_0" departPos="14.59" departSpeed="0.00" departDelay="0.46" arrival="-1.00" arrivalLane="" arrivalPos="-1.00" arrivalSpeed="-1.00" duration="3545.00" routeLength="648.26" waitingTime="3440.00" waitingCount="10" stopTime="0.00" timeLoss="3500.55" rerouteNo="0" devices="tripinfo_f_0_1.4" vType="type1" speedFactor="0.94" vaporized="end"/>
    <tripinfo id="f_0_0.5" depart="69.00" departLane="np13_nt13_0" departPos="7.87" departSpeed="0.00" departDelay="0.82" arrival="-1.00" arrivalLane="" arrivalPos="-1.00" arrivalSpeed="-1.00" duration="3531.00" routeLength="840.42" waitingTime="3412.00" waitingCount="7" stopTime="0.00" timeLoss="3464.66" rerouteNo="0" devices="tripinfo_f_0_0.5" vType="type1" speedFactor="0.89" vaporized="end"/>
    <tripinfo id="f_0_1.5" depart="69.00" departLane="np16_nt1_0" departPos="58.48" departSpeed="0.00" departDelay="0.82" arrival="-1.00" arrivalLane="" arrivalPos="-1.00" arrivalSpeed="-1.00" duration="3531.00" routeLength="589.37" waitingTime="3422.00" waitingCount="9" stopTime="0.00" timeLoss="3479.51" rerouteNo="0" devices="tripinfo_f_0_1.5" vType="type1" speedFactor="0.74" vaporized="end"/>
    <tripinfo id="f_0_0.6" depart="82.00" departLane="np13_nt13_0" departPos="23.39" departSpeed="0.00" departDelay="0.18" arrival="-1.00" arrivalLane="" arrivalPos="-1.00" arrivalSpeed="-1.00" duration="3518.00" routeLength="817.40" waitingTime="3407.00" waitingCount="9" stopTime="0.00" timeLoss="3460.23" rerouteNo="0" devices="tripinfo_f_0_0.6" vType="type1" speedFactor="0.99" vaporized="end"/>
    <tripinfo id="f_0_1.6" depart="82.00" departLane="np16_nt1_0" departPos="9.82" departSpeed="0.00" departDelay="0.18" arrival="-1.00" arrivalLane="" arrivalPos="-1.00" arrivalSpeed="-1.00" duration="3518.00" routeLength="615.53" waitingTime="3405.00" waitingCount="9" stopTime="0.00" timeLoss="3478.84" rerouteNo="0" devices="tripinfo_f_0_1.6" vType="type1" speedFactor="0.98" vaporized="end"/>
    <tripinfo id="f_0_2.11" depart="90.00" departLane="np2_nt2_0" departPos="20.34" departSpeed="0.00" departDelay="0.00" arrival="-1.00" arrivalLane="" arrivalPos="-1.00" arrivalSpeed="-1.00" duration="3510.00" routeLength="426.44" waitingTime="3418.00" waitingCount="9" stopTime="0.00" timeLoss="3478.07" rerouteNo="0" devices="tripinfo_f_0_2.11" vType="type1" speedFactor="1.03" vaporized="end"/>
    <tripinfo id="f_0_0.7" depart="96.00" departLane="np13_nt13_0" departPos="21.19" departSpeed="0.00" departDelay="0.55" arrival="-1.00" arrivalLane="" arrivalPos="-1.00" arrivalSpeed="-1.00" duration="3504.00" routeLength="812.10" waitingTime="3404.00" waitingCount="7" stopTime="0.00" timeLoss="3444.66" rerouteNo="0" devices="tripinfo_f_0_0.7" vType="type1" speedFactor="0.96" vaporized="end"/>
    <tripinfo id="f_0_1.7" depart="96.00" departLane="np16_nt1_0" departPos="3.19" departSpeed="0.00" departDelay="0.55" arrival="-1.00" arrivalLane="" arrivalPos="-1.00" arrivalSpeed="-1.00" duration="3504.00" routeLength="614.66" waitingTime="3387.00" waitingCount="9" stopTime="0.00" timeLoss="3466.49" rerouteNo="0" devices="tripinfo_f_0_1.7" vType="type1" speedFactor="1.03" vaporized="end"/>
    <tripinfo id="f_0_2.12" depart="99.00" departLane="np2_nt2_0" departPos="15.82" departSpeed="0.00" departDelay="0.82" arrival="-1.00" arrivalLane="" arrivalPos="-1.00" arrivalSpeed="-1.00" duration="3501.00" routeLength="415.95" waitingTime="3401.00" waitingCount="9" stopTime="0.00" timeLoss="3470.23" rerouteNo="0" devices="tripinfo_f_0_2.12" vType="type1" speedFactor="1.04" vaporized="end"/>
    <tripinfo id="f_0_2.13" depart="107.00" departLane="np2_nt2_0" departPos="9.13" departSpeed="0.00" departDelay="0.63" arrival="-1.00" arrivalLane="" arrivalPos="-1.00" arrivalSpeed="-1.00" duration="3493.00" routeLength="415.15" waitingTime="3396.00" waitingCount="7" stopTime="0.00" timeLoss="3464.97" rerouteNo="0" devices="tripinfo_f_0_2.13" vType="type1" speedFactor="1.15" vaporized="end"/>
    <tripinfo id="f_0_0.8" depart="110.00" departLane="np13_nt13_0" departPos="21.90" departSpeed="0.00" departDelay="0.91" arrival="-1.00" arrivalLane="" arrivalPos="-1.00" arrivalSpeed="-1.00" duration="3490.00" routeLength="803.89" waitingTime="3397.00" waitingCount="6" stopTime="0.00" timeLoss="3434.75" rerouteNo="0" devices="tripinfo_f_0_0.8" vType="type1" speedFactor="1.02" vaporized="end"/>
    <tripinfo id="f_0_1.8" depart="110.00" departLane="np16_nt1_0" departPos="42.69" departSpeed="0.00" departDelay="0.91" arrival="-1.00" arrivalLane="" arrivalPos="-1.00" arrivalSpeed="-1.00" duration="3490.00" routeLength="567.65" waitingTime="3383.00" waitingCount="10" stopTime="0.00" timeLoss="3454.62" rerouteNo="0" devices="tripinfo_f_0_1.8" vType="type1" speedFactor="1.01" vaporized="end"/>
    <tripinfo id="f_0_2.14" depart="115.00" departLane="np2_nt2_0" departPos="3.79" departSpeed="0.00" departDelay="0.45" arrival="-1.00" arrivalLane="" arrivalPos="-1.00" arrivalSpeed="-1.00" duration="3485.00" routeLength="390.48" waitingTime="3378.00" waitingCount="9" stopTime="0.00" timeLoss="3457.76" rerouteNo="0" devices="tripinfo_f_0_2.14" vType="type1" speedFactor="1.09" vaporized="end"/>
    <tripinfo id="f_0_0.9" depart="123.00" departLane="np13_nt13_0" departPos="41.83" departSpeed="0.00" departDelay="0.28" arrival="-1.00" arrivalLane="" arrivalPos="-1.00" arrivalSpeed="-1.00" duration="3477.00" routeLength="776.46" waitingTime="3377.00" waitingCount="9" stopTime="0.00" timeLoss="3418.84" rerouteNo="0" devices="tripinfo_f_0_0.9" vType="type1" speedFactor="0.93" vaporized="end"/>
    <tripinfo id="f_0_1.9" depart="123.00" departLane="np16_nt1_0" departPos="18.44" departSpeed="0.00" departDelay="0.28" arrival="-1.00" arrivalLane="" arrivalPos="-1.00" arrivalSpeed="-1.00" duration="3477.00" routeLength="561.90" waitingTime="3354.00" waitingCount="9" stopTime="0.00" timeLoss="3442.63" rerouteNo="0" devices="tripinfo_f_0_1.9" vType="type1" speedFactor="0.99" vaporized="end"/>