<?xml version="1.0" encoding="UTF-8"?>

<!-- generated on 2023-08-30 12:53:46 by Eclipse SUMO libsumo Version 1.18.0
<configuration xmlns:xsi="http://www.w3.org/2001/XMLSchema-instance" xsi:noNamespaceSchemaLocation="http://sumo.dlr.de/xsd/libsumoConfiguration.xsd">

    <input>
        <net-file value="/home/stefan/RESCO/./environments/arterial4x4/arterial4x4.net.xml"/>
        <route-files value="/home/stefan/RESCO/./environments/arterial4x4/arterial4x4_99.rou.xml"/>
    </input>

    <output>
        <tripinfo-output value="/home/stefan/results/ITRPO-tr0-arterial4x4-0-drq_norm-wait_norm/tripinfo_99.xml"/>
        <tripinfo-output.write-unfinished value="true"/>
    </output>

    <processing>
        <time-to-teleport value="-1"/>
    </processing>

    <report>
        <no-warnings value="True"/>
        <no-step-log value="True"/>
    </report>

    <random_number>
        <random value="true"/>
    </random_number>

</configuration>
-->

<tripinfos xmlns:xsi="http://www.w3.org/2001/XMLSchema-instance" xsi:noNamespaceSchemaLocation="http://sumo.dlr.de/xsd/tripinfo_file.xsd">
    <tripinfo id="f_0_3.0" depart="0.00" departLane="np3_nt3_0" departPos="17.23" departSpeed="0.00" departDelay="0.00" arrival="123.00" arrivalLane="nt14_np11_0" arrivalPos="75.00" arrivalSpeed="8.44" duration="123.00" routeLength="933.86" waitingTime="9.00" waitingCount="3" stopTime="0.00" timeLoss="33.04" rerouteNo="0" devices="tripinfo_f_0_3.0" vType="type1" speedFactor="0.87" vaporized=""/>
    <tripinfo id="f_0_3.1" depart="9.00" departLane="np3_nt3_0" departPos="39.57" departSpeed="0.00" departDelay="0.82" arrival="125.00" arrivalLane="nt14_np11_0" arrivalPos="75.00" arrivalSpeed="9.06" duration="116.00" routeLength="911.52" waitingTime="4.00" waitingCount="2" stopTime="0.00" timeLoss="37.44" rerouteNo="0" devices="tripinfo_f_0_3.1" vType="type1" speedFactor="0.97" vaporized=""/>
    <tripinfo id="f_0_2.0" depart="0.00" departLane="np2_nt2_0" departPos="55.91" departSpeed="0.00" departDelay="0.00" arrival="134.00" arrivalLane="nt15_np10_0" arrivalPos="75.00" arrivalSpeed="9.51" duration="134.00" routeLength="895.17" waitingTime="24.00" waitingCount="4" stopTime="0.00" timeLoss="51.58" rerouteNo="0" devices="tripinfo_f_0_2.0" vType="type1" speedFactor="0.91" vaporized=""/>
    <tripinfo id="f_0_0.0" depart="0.00" departLane="np13_nt13_0" departPos="63.36" departSpeed="0.00" departDelay="0.00" arrival="140.00" arrivalLane="nt4_np5_0" arrivalPos="75.00" arrivalSpeed="20.49" duration="140.00" routeLength="1284.53" waitingTime="23.00" waitingCount="5" stopTime="0.00" timeLoss="55.13" rerouteNo="0" devices="tripinfo_f_0_0.0" vType="type1" speedFactor="1.06" vaporized=""/>
    <tripinfo id="f_0_0.1" depart="14.00" departLane="np13_nt13_0" departPos="6.48" departSpeed="0.00" departDelay="0.36" arrival="142.00" arrivalLane="nt4_np5_0" arrivalPos="75.00" arrivalSpeed="18.70" duration="128.00" routeLength="1341.41" waitingTime="6.00" waitingCount="3" stopTime="0.00" timeLoss="34.34" rerouteNo="0" devices="tripinfo_f_0_0.1" vType="type1" speedFactor="0.99" vaporized=""/>
    <tripinfo id="f_0_3.2" depart="17.00" departLane="np3_nt3_0" departPos="41.61" departSpeed="0.00" departDelay="0.64" arrival="142.00" arrivalLane="nt14_np11_0" arrivalPos="75.00" arrivalSpeed="10.22" duration="125.00" routeLength="909.48" waitingTime="18.00" waitingCount="3" stopTime="0.00" timeLoss="50.86" rerouteNo="0" devices="tripinfo_f_0_3.2" vType="type1" speedFactor="1.03" vaporized=""/>
    <tripinfo id="f_0_0.2" depart="28.00" departLane="np13_nt13_0" departPos="14.06" departSpeed="0.00" departDelay="0.73" arrival="144.00" arrivalLane="nt4_np5_0" arrivalPos="75.00" arrivalSpeed="19.13" duration="116.00" routeLength="1333.83" waitingTime="1.00" waitingCount="1" stopTime="0.00" timeLoss="26.32" rerouteNo="0" devices="tripinfo_f_0_0.2" vType="type1" speedFactor="1.02" vaporized=""/>
    <tripinfo id="f_0_2.1" depart="9.00" departLane="np2_nt2_0" departPos="20.27" departSpeed="0.00" departDelay="0.82" arrival="157.00" arrivalLane="nt15_np10_0" arrivalPos="75.00" arrivalSpeed="9.49" duration="148.00" routeLength="930.81" waitingTime="40.00" waitingCount="4" stopTime="0.00" timeLoss="71.18" rerouteNo="0" devices="tripinfo_f_0_2.1" vType="type1" speedFactor="1.01" vaporized=""/>
    <tripinfo id="f_0_2.2" depart="17.00" departLane="np2_nt2_0" departPos="17.58" departSpeed="0.00" departDelay="0.64" arrival="159.00" arrivalLane="nt15_np10_0" arrivalPos="75.00" arrivalSpeed="9.40" duration="142.00" routeLength="933.50" waitingTime="30.00" waitingCount="3" stopTime="0.00" timeLoss="61.57" rerouteNo="0" devices="tripinfo_f_0_2.2" vType="type1" speedFactor="0.97" vaporized=""/>
    <tripinfo id="f_0_3.3" depart="25.00" departLane="np3_nt3_0" departPos="28.41" departSpeed="0.00" departDelay="0.45" arrival="178.00" arrivalLane="nt14_np11_0" arrivalPos="75.00" arrivalSpeed="9.03" duration="153.00" routeLength="922.68" waitingTime="48.00" waitingCount="3" stopTime="0.00" timeLoss="68.75" rerouteNo="0" devices="tripinfo_f_0_3.3" vType="type1" speedFactor="0.93" vaporized=""/>
    <tripinfo id="f_0_3.4" depart="33.00" departLane="np3_nt3_0" departPos="9.10" departSpeed="0.00" departDelay="0.27" arrival="180.00" arrivalLane="nt14_np11_0" arrivalPos="75.00" arrivalSpeed="8.30" duration="147.00" routeLength="941.99" waitingTime="39.00" waitingCount="4" stopTime="0.00" timeLoss="66.28" rerouteNo="0" devices="tripinfo_f_0_3.4" vType="type1" speedFactor="0.98" vaporized=""/>
    <tripinfo id="f_0_2.3" depart="25.00" departLane="np2_nt2_0" departPos="35.36" departSpeed="0.00" departDelay="0.45" arrival="186.00" arrivalLane="nt15_np10_0" arrivalPos="75.00" arrivalSpeed="11.52" duration="161.00" routeLength="915.72" waitingTime="52.00" waitingCount="5" stopTime="0.00" timeLoss="90.68" rerouteNo="0" devices="tripinfo_f_0_2.3" vType="type1" speedFactor="1.10" vaporized=""/>
    <tripinfo id="f_0_0.3" depart="41.00" departLane="np13_nt13_0" departPos="3.82" departSpeed="0.00" departDelay="0.09" arrival="189.00" arrivalLane="nt4_np5_0" arrivalPos="75.00" arrivalSpeed="17.44" duration="148.00" routeLength="1344.07" waitingTime="14.00" waitingCount="3" stopTime="0.00" timeLoss="44.11" rerouteNo="0" devices="tripinfo_f_0_0.3" vType="type1" speedFactor="0.90" vaporized=""/>
    <tripinfo id="f_0_2.4" depart="33.00" departLane="np2_nt2_0" departPos="41.87" departSpeed="0.00" departDelay="0.27" arrival="195.00" arrivalLane="nt15_np10_0" arrivalPos="75.00" arrivalSpeed="8.88" duration="162.00" routeLength="909.21" waitingTime="36.00" waitingCount="5" stopTime="0.00" timeLoss="71.91" rerouteNo="0" devices="tripinfo_f_0_2.4" vType="type1" speedFactor="0.84" vaporized=""/>
    <tripinfo id="f_0_1.0" depart="0.00" departLane="np16_nt1_0" departPos="15.66" departSpeed="0.00" departDelay="0.00" arrival="201.00" arrivalLane="nt16_np8_0" arrivalPos="75.00" arrivalSpeed="15.26" duration="201.00" routeLength="1332.22" waitingTime="56.00" waitingCount="5" stopTime="0.00" timeLoss="90.99" rerouteNo="0" devices="tripinfo_f_0_1.0" vType="type1" speedFactor="0.84" vaporized=""/>
    <tripinfo id="f_0_1.1" depart="14.00" departLane="np16_nt1_0" departPos="29.71" departSpeed="0.00" departDelay="0.36" arrival="208.00" arrivalLane="nt16_np8_0" arrivalPos="75.00" arrivalSpeed="19.53" duration="194.00" routeLength="1318.17" waitingTime="47.00" waitingCount="8" stopTime="0.00" timeLoss="102.30" rerouteNo="0" devices="tripinfo_f_0_1.1" vType="type1" speedFactor="1.01" vaporized=""/>
    <tripinfo id="f_0_3.5" depart="41.00" departLane="np3_nt3_0" departPos="28.94" departSpeed="0.00" departDelay="0.09" arrival="211.00" arrivalLane="nt14_np11_0" arrivalPos="75.00" arrivalSpeed="10.12" duration="170.00" routeLength="922.15" waitingTime="66.00" waitingCount="5" stopTime="0.00" timeLoss="101.54" rerouteNo="0" devices="tripinfo_f_0_3.5" vType="type1" speedFactor="1.14" vaporized=""/>
    <tripinfo id="f_0_2.5" depart="41.00" departLane="np2_nt2_0" departPos="39.95" departSpeed="0.00" departDelay="0.09" arrival="218.00" arrivalLane="nt15_np10_0" arrivalPos="75.00" arrivalSpeed="9.47" duration="177.00" routeLength="911.13" waitingTime="43.00" waitingCount="8" stopTime="0.00" timeLoss="99.33" rerouteNo="0" devices="tripinfo_f_0_2.5" vType="type1" speedFactor="0.99" vaporized=""/>
    <tripinfo id="f_0_2.6" depart="50.00" departLane="np2_nt2_0" departPos="14.19" departSpeed="0.00" departDelay="0.91" arrival="221.00" arrivalLane="nt15_np10_0" arrivalPos="75.00" arrivalSpeed="11.78" duration="171.00" routeLength="936.89" waitingTime="37.00" waitingCount="8" stopTime="0.00" timeLoss="100.52" rerouteNo="0" devices="tripinfo_f_0_2.6" vType="type1" speedFactor="1.11" vaporized=""/>
    <tripinfo id="f_0_1.2" depart="28.00" departLane="np16_nt1_0" departPos="0.43" departSpeed="0.00" departDelay="0.73" arrival="229.00" arrivalLane="nt16_np8_0" arrivalPos="75.00" arrivalSpeed="14.72" duration="201.00" routeLength="1347.45" waitingTime="33.00" waitingCount="8" stopTime="0.00" timeLoss="86.13" rerouteNo="0" devices="tripinfo_f_0_1.2" vType="type1" speedFactor="0.81" vaporized=""/>
    <tripinfo id="f_0_0.4" depart="55.00" departLane="np13_nt13_0" departPos="4.86" departSpeed="0.00" departDelay="0.46" arrival="236.00" arrivalLane="nt4_np5_0" arrivalPos="75.00" arrivalSpeed="19.25" duration="181.00" routeLength="1343.03" waitingTime="60.00" waitingCount="4" stopTime="0.00" timeLoss="86.20" rerouteNo="0" devices="tripinfo_f_0_0.4" vType="type1" speedFactor="0.98" vaporized=""/>
    <tripinfo id="f_0_3.6" depart="50.00" departLane="np3_nt3_0" departPos="17.90" departSpeed="0.00" departDelay="0.91" arrival="239.00" arrivalLane="nt14_np11_0" arrivalPos="75.00" arrivalSpeed="6.94" duration="189.00" routeLength="933.19" waitingTime="65.00" waitingCount="6" stopTime="0.00" timeLoss="97.81" rerouteNo="0" devices="tripinfo_f_0_3.6" vType="type1" speedFactor="0.85" vaporized=""/>
    <tripinfo id="f_0_3.7" depart="58.00" departLane="np3_nt3_0" departPos="19.59" departSpeed="0.00" departDelay="0.73" arrival="253.00" arrivalLane="nt14_np11_0" arrivalPos="75.00" arrivalSpeed="9.38" duration="195.00" routeLength="931.50" waitingTime="76.00" waitingCount="8" stopTime="0.00" timeLoss="114.24" rerouteNo="0" devices="tripinfo_f_0_3.7" vType="type1" speedFactor="0.97" vaporized=""/>
    <tripinfo id="f_0_2.7" depart="58.00" departLane="np2_nt2_0" departPos="42.78" departSpeed="0.00" departDelay="0.73" arrival="264.00" arrivalLane="nt15_np10_0" arrivalPos="75.00" arrivalSpeed="8.14" duration="206.00" routeLength="908.30" waitingTime="60.00" waitingCount="8" stopTime="0.00" timeLoss="114.76" rerouteNo="0" devices="tripinfo_f_0_2.7" vType="type1" speedFactor="0.83" vaporized=""/>
    <tripinfo id="f_0_2.8" depart="66.00" departLane="np2_nt2_0" departPos="33.69" departSpeed="0.00" departDelay="0.54" arrival="266.00" arrivalLane="nt15_np10_0" arrivalPos="75.00" arrivalSpeed="10.46" duration="200.00" routeLength="917.39" waitingTime="64.00" waitingCount="8" stopTime="0.00" timeLoss="130.82" rerouteNo="0" devices="tripinfo_f_0_2.8" vType="type1" speedFactor="1.11" vaporized=""/>
    <tripinfo id="f_0_1.3" depart="41.00" departLane="np16_nt1_0" departPos="18.52" departSpeed="0.00" departDelay="0.09" arrival="274.00" arrivalLane="nt16_np8_0" arrivalPos="75.00" arrivalSpeed="16.78" duration="233.00" routeLength="1329.36" waitingTime="78.00" waitingCount="9" stopTime="0.00" timeLoss="133.03" rerouteNo="0" devices="tripinfo_f_0_1.3" vType="type1" speedFactor="0.93" vaporized=""/>
    <tripinfo id="f_0_2.9" depart="74.00" departLane="np2_nt2_0" departPos="15.98" departSpeed="0.00" departDelay="0.36" arrival="275.00" arrivalLane="nt15_np10_0" arrivalPos="75.00" arrivalSpeed="7.75" duration="201.00" routeLength="935.10" waitingTime="59.00" waitingCount="7" stopTime="0.00" timeLoss="113.70" rerouteNo="0" devices="tripinfo_f_0_2.9" vType="type1" speedFactor="0.91" vaporized=""/>
    <tripinfo id="f_0_2.10" depart="82.00" departLane="np2_nt2_0" departPos="13.69" departSpeed="0.00" departDelay="0.18" arrival="277.00" arrivalLane="nt15_np10_0" arrivalPos="75.00" arrivalSpeed="8.14" duration="195.00" routeLength="937.39" waitingTime="49.00" waitingCount="7" stopTime="0.00" timeLoss="106.86" rerouteNo="0" devices="tripinfo_f_0_2.10" vType="type1" speedFactor="0.89" vaporized=""/>
    <tripinfo id="f_0_2.11" depart="90.00" departLane="np2_nt2_0" departPos="2.77" departSpeed="0.00" departDelay="0.00" arrival="279.00" arrivalLane="nt15_np10_0" arrivalPos="75.00" arrivalSpeed="8.15" duration="189.00" routeLength="948.31" waitingTime="45.00" waitingCount="7" stopTime="0.00" timeLoss="101.73" rerouteNo="0" devices="tripinfo_f_0_2.11" vType="type1" speedFactor="0.91" vaporized=""/>
    <tripinfo id="f_0_3.8" depart="66.00" departLane="np3_nt3_0" departPos="24.91" departSpeed="0.00" departDelay="0.54" arrival="282.00" arrivalLane="nt14_np11_0" arrivalPos="75.00" arrivalSpeed="9.18" duration="216.00" routeLength="926.18" waitingTime="96.00" waitingCount="9" stopTime="0.00" timeLoss="141.07" rerouteNo="0" devices="tripinfo_f_0_3.8" vType="type1" speedFactor="1.03" vaporized=""/>
    <tripinfo id="f_0_1.4" depart="55.00" departLane="np16_nt1_0" departPos="39.28" departSpeed="0.00" departDelay="0.46" arrival="288.00" arrivalLane="nt16_np8_0" arrivalPos="75.00" arrivalSpeed="20.53" duration="233.00" routeLength="1308.60" waitingTime="72.00" waitingCount="9" stopTime="0.00" timeLoss="150.26" rerouteNo="0" devices="tripinfo_f_0_1.4" vType="type1" speedFactor="1.10" vaporized=""/>
    <tripinfo id="f_0_1.5" depart="69.00" departLane="np16_nt1_0" departPos="31.77" departSpeed="0.00" departDelay="0.82" arrival="290.00" arrivalLane="nt16_np8_0" arrivalPos="75.00" arrivalSpeed="21.40" duration="221.00" routeLength="1316.11" waitingTime="67.00" waitingCount="7" stopTime="0.00" timeLoss="139.05" rerouteNo="0" devices="tripinfo_f_0_1.5" vType="type1" speedFactor="1.12" vaporized=""/>
    <tripinfo id="f_0_0.5" depart="69.00" departLane="np13_nt13_0" departPos="26.61" departSpeed="0.00" departDelay="0.82" arrival="293.00" arrivalLane="nt4_np5_0" arrivalPos="75.00" arrivalSpeed="17.67" duration="224.00" routeLength="1321.28" waitingTime="93.00" waitingCount="5" stopTime="0.00" timeLoss="126.77" rerouteNo="0" devices="tripinfo_f_0_0.5" vType="type1" speedFactor="0.94" vaporized=""/>
    <tripinfo id="f_0_0.6" depart="82.00" departLane="np13_nt13_0" departPos="40.77" departSpeed="0.00" departDelay="0.18" arrival="295.00" arrivalLane="nt4_np5_0" arrivalPos="75.00" arrivalSpeed="23.13" duration="213.00" routeLength="1307.12" waitingTime="90.00" waitingCount="5" stopTime="0.00" timeLoss="140.57" rerouteNo="0" devices="tripinfo_f_0_0.6" vType="type1" speedFactor="1.27" vaporized=""/>
    <tripinfo id="f_0_3.9" depart="74.00" departLane="np3_nt3_0" departPos="8.83" departSpeed="0.00" departDelay="0.36" arrival="303.00" arrivalLane="nt14_np11_0" arrivalPos="75.00" arrivalSpeed="10.25" duration="229.00" routeLength="942.26" waitingTime="96.00" waitingCount="7" stopTime="0.00" timeLoss="147.20" rerouteNo="0" devices="tripinfo_f_0_3.9" vType="type1" speedFactor="0.97" vaporized=""/>
    <tripinfo id="f_0_1.6" depart="82.00" departLane="np16_nt1_0" departPos="20.72" departSpeed="0.00" departDelay="0.18" arrival="303.00" arrivalLane="nt16_np8_0" arrivalPos="75.00" arrivalSpeed="18.41" duration="221.00" routeLength="1327.16" waitingTime="74.00" waitingCount="8" stopTime="0.00" timeLoss="131.26" rerouteNo="0" devices="tripinfo_f_0_1.6" vType="type1" speedFactor="1.02" vaporized=""/>
    <tripinfo id="f_0_3.10" depart="82.00" departLane="np3_nt3_0" departPos="23.46" departSpeed="0.00" departDelay="0.18" arrival="313.00" arrivalLane="nt14_np11_0" arrivalPos="75.00" arrivalSpeed="10.16" duration="231.00" routeLength="927.63" waitingTime="105.00" waitingCount="9" stopTime="0.00" timeLoss="152.66" rerouteNo="0" devices="tripinfo_f_0_3.10" vType="type1" speedFactor="1.00" vaporized=""/>
    <tripinfo id="f_0_0.7" depart="96.00" departLane="np13_nt13_0" departPos="41.26" departSpeed="0.00" departDelay="0.55" arrival="314.00" arrivalLane="nt4_np5_0" arrivalPos="75.00" arrivalSpeed="19.29" duration="218.00" routeLength="1306.63" waitingTime="84.00" waitingCount="8" stopTime="0.00" timeLoss="126.71" rerouteNo="0" devices="tripinfo_f_0_0.7" vType="type1" speedFactor="1.00" vaporized=""/>
    <tripinfo id="f_0_2.12" depart="99.00" departLane="np2_nt2_0" departPos="28.16" departSpeed="0.00" departDelay="0.82" arrival="314.00" arrivalLane="nt15_np10_0" arrivalPos="75.00" arrivalSpeed="9.35" duration="215.00" routeLength="922.92" waitingTime="76.00" waitingCount="5" stopTime="0.00" timeLoss="129.73" rerouteNo="0" devices="tripinfo_f_0_2.12" vType="type1" speedFactor="0.91" vaporized=""/>
    <tripinfo id="f_0_3.11" depart="90.00" departLane="np3_nt3_0" departPos="26.30" departSpeed="0.00" departDelay="0.00" arrival="315.00" arrivalLane="nt14_np11_0" arrivalPos="75.00" arrivalSpeed="10.11" duration="225.00" routeLength="924.79" waitingTime="93.00" waitingCount="10" stopTime="0.00" timeLoss="149.66" rerouteNo="0" devices="tripinfo_f_0_3.11" vType="type1" speedFactor="1.04" vaporized=""/>
    <tripinfo id="f_0_0.8" depart="110.00" departLane="np13_nt13_0" departPos="59.67" departSpeed="0.00" departDelay="0.91" arrival="315.00" arrivalLane="nt4_np5_0" arrivalPos="75.00" arrivalSpeed="20.92" duration="205.00" routeLength="1288.22" waitingTime="70.00" waitingCount="7" stopTime="0.00" timeLoss="123.20" rerouteNo="0" devices="tripinfo_f_0_0.8" vType="type1" speedFactor="1.09" vaporized=""/>
    <tripinfo id="f_0_0.9" depart="123.00" departLane="np13_nt13_0" departPos="66.71" departSpeed="0.00" departDelay="0.28" arrival="317.00" arrivalLane="nt4_np5_0" arrivalPos="75.00" arrivalSpeed="17.68" duration="194.00" routeLength="1281.18" waitingTime="67.00" waitingCount="7" stopTime="0.00" timeLoss="105.18" rerouteNo="0" devices="tripinfo_f_0_0.9" vType="type1" speedFactor="1.01" vaporized=""/>
    <tripinfo id="f_0_0.10" depart="137.00" departLane="np13_nt13_0" departPos="34.90" departSpeed="0.00" departDelay="0.64" arrival="319.00" arrivalLane="nt4_np5_0" arrivalPos="75.00" arrivalSpeed="23.41" duration="182.00" routeLength="1312.99" waitingTime="57.00" waitingCount="5" stopTime="0.00" timeLoss="106.08" rerouteNo="0" devices="tripinfo_f_0_0.10" vType="type1" speedFactor="1.21" vaporized=""/>
    <tripinfo id="f_0_0.11" depart="150.00" departLane="np13_nt13_0" departPos="32.94" departSpeed="0.00" departDelay="0.00" arrival="344.00" arrivalLane="nt4_np5_0" arrivalPos="75.00" arrivalSpeed="17.10" duration="194.00" routeLength="1314.95" waitingTime="65.00" waitingCount="3" stopTime="0.00" timeLoss="97.21" rerouteNo="0" devices="tripinfo_f_0_0.11" vType="type1" speedFactor="0.95" vaporized=""/>
    <tripinfo id="f_0_2.13" depart="107.00" departLane="np2_nt2_0" departPos="54.06" departSpeed="0.00" departDelay="0.63" arrival="349.00" arrivalLane="nt15_np10_0" arrivalPos="75.00" arrivalSpeed="9.50" duration="242.00" routeLength="897.02" waitingTime="106.00" waitingCount="8" stopTime="0.00" timeLoss="155.75" rerouteNo="0" devices="tripinfo_f_0_2.13" vType="type1" speedFactor="0.87" vaporized=""/>
    <tripinfo id="f_0_3.12" depart="99.00" departLane="np3_nt3_0" departPos="12.04" departSpeed="0.00" departDelay="0.82" arrival="350.00" arrivalLane="nt14_np11_0" arrivalPos="75.00" arrivalSpeed="8.24" duration="251.00" routeLength="939.05" waitingTime="97.00" waitingCount="10" stopTime="0.00" timeLoss="152.80" rerouteNo="0" devices="tripinfo_f_0_3.12" vType="type1" speedFactor="0.80" vaporized=""/>
    <tripinfo id="f_0_3.13" depart="107.00" departLane="np3_nt3_0" departPos="0.00" departSpeed="0.00" departDelay="0.63" arrival="356.00" arrivalLane="nt14_np11_0" arrivalPos="75.00" arrivalSpeed="11.89" duration="249.00" routeLength="951.09" waitingTime="120.00" waitingCount="10" stopTime="0.00" timeLoss="175.56" rerouteNo="0" devices="tripinfo_f_0_3.13" vType="type1" speedFactor="1.08" vaporized=""/>
    <tripinfo id="f_0_1.7" depart="96.00" departLane="np16_nt1_0" departPos="10.84" departSpeed="0.00" departDelay="0.55" arrival="359.00" arrivalLane="nt16_np8_0" arrivalPos="75.00" arrivalSpeed="17.22" duration="263.00" routeLength="1337.04" waitingTime="109.00" waitingCount="7" stopTime="0.00" timeLoss="162.75" rerouteNo="0" devices="tripinfo_f_0_1.7" vType="type1" speedFactor="0.93" vaporized=""/>
    <tripinfo id="f_0_3.14" depart="115.00" departLane="np3_nt3_0" departPos="0.00" departSpeed="0.00" departDelay="0.45" arrival="359.00" arrivalLane="nt14_np11_0" arrivalPos="75.00" arrivalSpeed="8.45" duration="244.00" routeLength="951.09" waitingTime="111.00" waitingCount="8" stopTime="0.00" timeLoss="161.44" rerouteNo="0" devices="tripinfo_f_0_3.14" vType="type1" speedFactor="0.97" vaporized=""/>
    <tripinfo id="f_0_0.12" depart="164.00" departLane="np13_nt13_0" departPos="45.54" departSpeed="0.00" departDelay="0.37" arrival="359.00" arrivalLane="nt4_np5_0" arrivalPos="75.00" arrivalSpeed="16.62" duration="195.00" routeLength="1302.35" waitingTime="53.00" waitingCount="5" stopTime="0.00" timeLoss="91.29" rerouteNo="0" devices="tripinfo_f_0_0.12" vType="type1" speedFactor="0.88" vaporized=""/>
    <tripinfo id="f_0_2.14" depart="115.00" departLane="np2_nt2_0" departPos="49.31" departSpeed="0.00" departDelay="0.45" arrival="362.00" arrivalLane="nt15_np10_0" arrivalPos="75.00" arrivalSpeed="9.47" duration="247.00" routeLength="901.77" waitingTime="114.00" waitingCount="10" stopTime="0.00" timeLoss="170.57" rerouteNo="0" devices="tripinfo_f_0_2.14" vType="type1" speedFactor="1.00" vaporized=""/>
    <tripinfo id="f_0_2.15" depart="123.00" departLane="np2_nt2_0" departPos="9.36" departSpeed="0.00" departDelay="0.27" arrival="364.00" arrivalLane="nt15_np10_0" arrivalPos="75.00" arrivalSpeed="11.33" duration="241.00" routeLength="941.72" waitingTime="105.00" waitingCount="8" stopTime="0.00" timeLoss="168.10" rerouteNo="0" devices="tripinfo_f_0_2.15" vType="type1" speedFactor="1.09" vaporized=""/>
    <tripinfo id="f_0_0.13" depart="178.00" departLane="np13_nt13_0" departPos="15.59" departSpeed="0.00" departDelay="0.73" arrival="369.00" arrivalLane="nt4_np5_0" arrivalPos="75.00" arrivalSpeed="15.51" duration="191.00" routeLength="1332.30" waitingTime="42.00" waitingCount="7" stopTime="0.00" timeLoss="87.54" rerouteNo="0" devices="tripinfo_f_0_0.13" vType="type1" speedFactor="0.89" vaporized=""/>
    <tripinfo id="f_0_0.14" depart="191.00" departLane="np13_nt13_0" departPos="30.97" departSpeed="0.00" departDelay="0.10" arrival="370.00" arrivalLane="nt4_np5_0" arrivalPos="75.00" arrivalSpeed="18.47" duration="179.00" routeLength="1316.92" waitingTime="33.00" waitingCount="6" stopTime="0.00" timeLoss="101.09" rerouteNo="0" devices="tripinfo_f_0_0.14" vType="type1" speedFactor="1.18" vaporized=""/>
    <tripinfo id="f_0_2.16" depart="131.00" departLane="np2_nt2_0" departPos="4.12" departSpeed="0.00" departDelay="0.09" arrival="371.00" arrivalLane="nt15_np10_0" arrivalPos="75.00" arrivalSpeed="11.55" duration="240.00" routeLength="946.96" waitingTime="105.00" waitingCount="9" stopTime="0.00" timeLoss="168.15" rerouteNo="0" devices="tripinfo_f_0_2.16" vType="type1" speedFactor="1.11" vaporized=""/>
    <tripinfo id="f_0_3.15" depart="123.00" departLane="np3_nt3_0" departPos="0.00" departSpeed="0.00" departDelay="0.27" arrival="376.00" arrivalLane="nt14_np11_0" arrivalPos="75.00" arrivalSpeed="9.53" duration="253.00" routeLength="951.09" waitingTime="129.00" waitingCount="10" stopTime="0.00" timeLoss="179.84" rerouteNo="0" devices="tripinfo_f_0_3.15" vType="type1" speedFactor="1.09" vaporized=""/>
    <tripinfo id="f_0_3.16" depart="132.00" departLane="np3_nt3_0" departPos="0.37" departSpeed="0.00" departDelay="1.09" arrival="379.00" arrivalLane="nt14_np11_0" arrivalPos="75.00" arrivalSpeed="9.09" duration="247.00" routeLength="950.72" waitingTime="119.00" waitingCount="7" stopTime="0.00" timeLoss="168.59" rerouteNo="0" devices="tripinfo_f_0_3.16" vType="type1" speedFactor="1.02" vaporized=""/>
    <tripinfo id="f_0_1.8" depart="110.00" departLane="np16_nt1_0" departPos="10.60" departSpeed="0.00" departDelay="0.91" arrival="382.00" arrivalLane="nt16_np8_0" arrivalPos="75.00" arrivalSpeed="17.75" duration="272.00" routeLength="1337.28" waitingTime="121.00" waitingCount="9" stopTime="0.00" timeLoss="177.58" rerouteNo="0" devices="tripinfo_f_0_1.8" vType="type1" speedFactor="0.98" vaporized=""/>
    <tripinfo id="f_0_0.15" depart="205.00" departLane="np13_nt13_0" departPos="63.96" departSpeed="0.00" departDelay="0.46" arrival="383.00" arrivalLane="nt4_np5_0" arrivalPos="75.00" arrivalSpeed="19.97" duration="178.00" routeLength="1283.93" waitingTime="36.00" waitingCount="6" stopTime="0.00" timeLoss="92.33" rerouteNo="0" devices="tripinfo_f_0_0.15" vType="type1" speedFactor="1.05" vaporized=""/>
    <tripinfo id="f_0_0.16" depart="219.00" departLane="np13_nt13_0" departPos="9.11" departSpeed="0.00" departDelay="0.82" arrival="385.00" arrivalLane="nt4_np5_0" arrivalPos="75.00" arrivalSpeed="23.19" duration="166.00" routeLength="1338.78" waitingTime="44.00" waitingCount="5" stopTime="0.00" timeLoss="89.10" rerouteNo="0" devices="tripinfo_f_0_0.16" vType="type1" speedFactor="1.21" vaporized=""/>
    <tripinfo id="f_0_0.17" depart="232.00" departLane="np13_nt13_0" departPos="17.35" departSpeed="0.00" departDelay="0.19" arrival="414.00" arrivalLane="nt4_np5_0" arrivalPos="75.00" arrivalSpeed="17.80" duration="182.00" routeLength="1330.54" waitingTime="48.00" waitingCount="5" stopTime="0.00" timeLoss="79.78" rerouteNo="0" devices="tripinfo_f_0_0.17" vType="type1" speedFactor="0.91" vaporized=""/>
    <tripinfo id="f_0_0.18" depart="246.00" departLane="np13_nt13_0" departPos="15.50" departSpeed="0.00" departDelay="0.55" arrival="416.00" arrivalLane="nt4_np5_0" arrivalPos="75.00" arrivalSpeed="18.25" duration="170.00" routeLength="1332.39" waitingTime="31.00" waitingCount="4" stopTime="0.00" timeLoss="70.40" rerouteNo="0" devices="tripinfo_f_0_0.18" vType="type1" speedFactor="0.93" vaporized=""/>
    <tripinfo id="f_0_2.17" depart="140.00" departLane="np2_nt2_0" departPos="62.62" departSpeed="0.00" departDelay="0.91" arrival="432.00" arrivalLane="nt15_np10_0" arrivalPos="75.00" arrivalSpeed="9.12" duration="292.00" routeLength="888.46" waitingTime="155.00" waitingCount="11" stopTime="0.00" timeLoss="220.43" rerouteNo="0" devices="tripinfo_f_0_2.17" vType="type1" speedFactor="1.04" vaporized=""/>
    <tripinfo id="f_0_2.18" depart="148.00" departLane="np2_nt2_0" departPos="50.72" departSpeed="0.00" departDelay="0.72" arrival="436.00" arrivalLane="nt15_np10_0" arrivalPos="75.00" arrivalSpeed="8.11" duration="288.00" routeLength="900.36" waitingTime="138.00" waitingCount="11" stopTime="0.00" timeLoss="202.36" rerouteNo="0" devices="tripinfo_f_0_2.18" vType="type1" speedFactor="0.88" vaporized=""/>
    <tripinfo id="f_0_3.17" depart="140.00" departLane="np3_nt3_0" departPos="0.05" departSpeed="0.00" departDelay="0.91" arrival="437.00" arrivalLane="nt14_np11_0" arrivalPos="75.00" arrivalSpeed="10.42" duration="297.00" routeLength="951.04" waitingTime="163.00" waitingCount="8" stopTime="0.00" timeLoss="216.13" rerouteNo="0" devices="tripinfo_f_0_3.17" vType="type1" speedFactor="0.99" vaporized=""/>
    <tripinfo id="f_0_3.18" depart="148.00" departLane="np3_nt3_0" departPos="1.83" departSpeed="0.00" departDelay="0.72" arrival="439.00" arrivalLane="nt14_np11_0" arrivalPos="75.00" arrivalSpeed="8.73" duration="291.00" routeLength="949.26" waitingTime="161.00" waitingCount="7" stopTime="0.00" timeLoss="213.23" rerouteNo="0" devices="tripinfo_f_0_3.18" vType="type1" speedFactor="1.02" vaporized=""/>
    <tripinfo id="f_0_3.19" depart="156.00" departLane="np3_nt3_0" departPos="3.84" departSpeed="0.00" departDelay="0.54" arrival="445.00" arrivalLane="nt14_np11_0" arrivalPos="75.00" arrivalSpeed="8.07" duration="289.00" routeLength="947.25" waitingTime="136.00" waitingCount="7" stopTime="0.00" timeLoss="186.29" rerouteNo="0" devices="tripinfo_f_0_3.19" vType="type1" speedFactor="0.77" vaporized=""/>
    <tripinfo id="f_0_3.20" depart="164.00" departLane="np3_nt3_0" departPos="0.00" departSpeed="0.00" departDelay="0.36" arrival="447.00" arrivalLane="nt14_np11_0" arrivalPos="75.00" arrivalSpeed="8.52" duration="283.00" routeLength="951.09" waitingTime="130.00" waitingCount="6" stopTime="0.00" timeLoss="202.74" rerouteNo="0" devices="tripinfo_f_0_3.20" vType="type1" speedFactor="0.99" vaporized=""/>
    <tripinfo id="f_0_3.21" depart="172.00" departLane="np3_nt3_0" departPos="2.92" departSpeed="0.00" departDelay="0.18" arrival="449.00" arrivalLane="nt14_np11_0" arrivalPos="75.00" arrivalSpeed="8.89" duration="277.00" routeLength="948.17" waitingTime="135.00" waitingCount="7" stopTime="0.00" timeLoss="186.69" rerouteNo="0" devices="tripinfo_f_0_3.21" vType="type1" speedFactor="0.88" vaporized=""/>
    <tripinfo id="f_0_0.19" depart="260.00" departLane="np13_nt13_0" departPos="67.35" departSpeed="0.00" departDelay="0.92" arrival="449.00" arrivalLane="nt4_np5_0" arrivalPos="75.00" arrivalSpeed="15.38" duration="189.00" routeLength="1280.54" waitingTime="53.00" waitingCount="6" stopTime="0.00" timeLoss="88.08" rerouteNo="0" devices="tripinfo_f_0_0.19" vType="type1" speedFactor="0.89" vaporized=""/>
    <tripinfo id="f_0_3.22" depart="227.00" departLane="np3_nt3_0" departPos="0.20" departSpeed="0.00" departDelay="47.00" arrival="451.00" arrivalLane="nt14_np11_0" arrivalPos="75.00" arrivalSpeed="9.66" duration="224.00" routeLength="950.89" waitingTime="84.00" waitingCount="7" stopTime="0.00" timeLoss="145.38" rerouteNo="0" devices="tripinfo_f_0_3.22" vType="type1" speedFactor="1.02" vaporized=""/>