<?xml version="1.0" encoding="UTF-8"?>

<!-- generated on 2023-08-30 12:47:41 by Eclipse SUMO libsumo Version 1.18.0
<configuration xmlns:xsi="http://www.w3.org/2001/XMLSchema-instance" xsi:noNamespaceSchemaLocation="http://sumo.dlr.de/xsd/libsumoConfiguration.xsd">

    <input>
        <net-file value="/home/stefan/RESCO/./environments/arterial4x4/arterial4x4.net.xml"/>
        <route-files value="/home/stefan/RESCO/./environments/arterial4x4/arterial4x4_80.rou.xml"/>
    </input>

    <output>
        <tripinfo-output value="/home/stefan/results/ITRPO-tr0-arterial4x4-0-drq_norm-wait_norm/tripinfo_80.xml"/>
        <tripinfo-output.write-unfinished value="true"/>
    </output>

    <processing>
        <time-to-teleport value="-1"/>
    </processing>

    <report>
        <no-warnings value="True"/>
        <no-step-log value="True"/>
    </report>

    <random_number>
        <random value="true"/>
    </random_number>

</configuration>
-->

<tripinfos xmlns:xsi="http://www.w3.org/2001/XMLSchema-instance" xsi:noNamespaceSchemaLocation="http://sumo.dlr.de/xsd/tripinfo_file.xsd">
    <tripinfo id="f_0_3.0" depart="0.00" departLane="np3_nt3_0" departPos="25.07" departSpeed="0.00" departDelay="0.00" arrival="132.00" arrivalLane="nt14_np11_0" arrivalPos="75.00" arrivalSpeed="9.78" duration="132.00" routeLength="926.02" waitingTime="35.00" waitingCount="3" stopTime="0.00" timeLoss="58.11" rerouteNo="0" devices="tripinfo_f_0_3.0" vType="type1" speedFactor="1.06" vaporized=""/>
    <tripinfo id="f_0_3.1" depart="9.00" departLane="np3_nt3_0" departPos="53.83" departSpeed="0.00" departDelay="0.82" arrival="166.00" arrivalLane="nt14_np11_0" arrivalPos="75.00" arrivalSpeed="12.29" duration="157.00" routeLength="897.26" waitingTime="70.00" waitingCount="4" stopTime="0.00" timeLoss="92.13" rerouteNo="0" devices="tripinfo_f_0_3.1" vType="type1" speedFactor="1.16" vaporized=""/>
    <tripinfo id="f_0_2.0" depart="0.00" departLane="np2_nt2_0" departPos="42.28" departSpeed="0.00" departDelay="0.00" arrival="192.00" arrivalLane="nt15_np10_0" arrivalPos="75.00" arrivalSpeed="8.83" duration="192.00" routeLength="908.80" waitingTime="92.00" waitingCount="4" stopTime="0.00" timeLoss="114.72" rerouteNo="0" devices="tripinfo_f_0_2.0" vType="type1" speedFactor="0.98" vaporized=""/>
    <tripinfo id="f_0_2.1" depart="9.00" departLane="np2_nt2_0" departPos="29.67" departSpeed="0.00" departDelay="0.82" arrival="196.00" arrivalLane="nt15_np10_0" arrivalPos="75.00" arrivalSpeed="8.06" duration="187.00" routeLength="921.41" waitingTime="69.00" waitingCount="4" stopTime="0.00" timeLoss="98.02" rerouteNo="0" devices="tripinfo_f_0_2.1" vType="type1" speedFactor="0.87" vaporized=""/>
    <tripinfo id="f_0_1.0" depart="0.00" departLane="np16_nt1_0" departPos="9.90" departSpeed="0.00" departDelay="0.00" arrival="207.00" arrivalLane="nt16_np8_0" arrivalPos="75.00" arrivalSpeed="22.75" duration="207.00" routeLength="1337.98" waitingTime="81.00" waitingCount="8" stopTime="0.00" timeLoss="127.72" rerouteNo="0" devices="tripinfo_f_0_1.0" vType="type1" speedFactor="1.16" vaporized=""/>
    <tripinfo id="f_0_2.2" depart="17.00" departLane="np2_nt2_0" departPos="18.15" departSpeed="0.00" departDelay="0.64" arrival="212.00" arrivalLane="nt15_np10_0" arrivalPos="75.00" arrivalSpeed="10.54" duration="195.00" routeLength="932.93" waitingTime="73.00" waitingCount="8" stopTime="0.00" timeLoss="119.48" rerouteNo="0" devices="tripinfo_f_0_2.2" vType="type1" speedFactor="1.04" vaporized=""/>
    <tripinfo id="f_0_1.1" depart="14.00" departLane="np16_nt1_0" departPos="55.17" departSpeed="0.00" departDelay="0.36" arrival="218.00" arrivalLane="nt16_np8_0" arrivalPos="75.00" arrivalSpeed="17.02" duration="204.00" routeLength="1292.71" waitingTime="62.00" waitingCount="7" stopTime="0.00" timeLoss="107.92" rerouteNo="0" devices="tripinfo_f_0_1.1" vType="type1" speedFactor="0.94" vaporized=""/>
    <tripinfo id="f_0_3.2" depart="17.00" departLane="np3_nt3_0" departPos="22.45" departSpeed="0.00" departDelay="0.64" arrival="222.00" arrivalLane="nt14_np11_0" arrivalPos="75.00" arrivalSpeed="8.59" duration="205.00" routeLength="928.64" waitingTime="94.00" waitingCount="7" stopTime="0.00" timeLoss="126.81" rerouteNo="0" devices="tripinfo_f_0_3.2" vType="type1" speedFactor="0.99" vaporized=""/>
    <tripinfo id="f_0_3.3" depart="25.00" departLane="np3_nt3_0" departPos="1.33" departSpeed="0.00" departDelay="0.45" arrival="224.00" arrivalLane="nt14_np11_0" arrivalPos="75.00" arrivalSpeed="9.82" duration="199.00" routeLength="949.76" waitingTime="78.00" waitingCount="6" stopTime="0.00" timeLoss="121.48" rerouteNo="0" devices="tripinfo_f_0_3.3" vType="type1" speedFactor="1.03" vaporized=""/>
    <tripinfo id="f_0_3.4" depart="33.00" departLane="np3_nt3_0" departPos="9.83" departSpeed="0.00" departDelay="0.27" arrival="232.00" arrivalLane="nt14_np11_0" arrivalPos="75.00" arrivalSpeed="9.63" duration="199.00" routeLength="941.26" waitingTime="85.00" waitingCount="4" stopTime="0.00" timeLoss="119.10" rerouteNo="0" devices="tripinfo_f_0_3.4" vType="type1" speedFactor="0.99" vaporized=""/>
    <tripinfo id="f_0_2.3" depart="25.00" departLane="np2_nt2_0" departPos="10.95" departSpeed="0.00" departDelay="0.45" arrival="239.00" arrivalLane="nt15_np10_0" arrivalPos="75.00" arrivalSpeed="9.29" duration="214.00" routeLength="940.13" waitingTime="73.00" waitingCount="8" stopTime="0.00" timeLoss="124.02" rerouteNo="0" devices="tripinfo_f_0_2.3" vType="type1" speedFactor="0.88" vaporized=""/>
    <tripinfo id="f_0_2.4" depart="33.00" departLane="np2_nt2_0" departPos="47.87" departSpeed="0.00" departDelay="0.27" arrival="241.00" arrivalLane="nt15_np10_0" arrivalPos="75.00" arrivalSpeed="9.58" duration="208.00" routeLength="903.21" waitingTime="78.00" waitingCount="9" stopTime="0.00" timeLoss="137.42" rerouteNo="0" devices="tripinfo_f_0_2.4" vType="type1" speedFactor="1.08" vaporized=""/>
    <tripinfo id="f_0_3.5" depart="41.00" departLane="np3_nt3_0" departPos="14.75" departSpeed="0.00" departDelay="0.09" arrival="247.00" arrivalLane="nt14_np11_0" arrivalPos="75.00" arrivalSpeed="10.96" duration="206.00" routeLength="936.34" waitingTime="95.00" waitingCount="6" stopTime="0.00" timeLoss="131.51" rerouteNo="0" devices="tripinfo_f_0_3.5" vType="type1" speedFactor="1.06" vaporized=""/>
    <tripinfo id="f_0_2.5" depart="41.00" departLane="np2_nt2_0" departPos="55.92" departSpeed="0.00" departDelay="0.09" arrival="253.00" arrivalLane="nt15_np10_0" arrivalPos="75.00" arrivalSpeed="8.77" duration="212.00" routeLength="895.16" waitingTime="86.00" waitingCount="7" stopTime="0.00" timeLoss="134.59" rerouteNo="0" devices="tripinfo_f_0_2.5" vType="type1" speedFactor="0.97" vaporized=""/>
    <tripinfo id="f_0_2.6" depart="50.00" departLane="np2_nt2_0" departPos="59.00" departSpeed="0.00" departDelay="0.91" arrival="255.00" arrivalLane="nt15_np10_0" arrivalPos="75.00" arrivalSpeed="8.57" duration="205.00" routeLength="892.08" waitingTime="80.00" waitingCount="9" stopTime="0.00" timeLoss="130.36" rerouteNo="0" devices="tripinfo_f_0_2.6" vType="type1" speedFactor="1.00" vaporized=""/>
    <tripinfo id="f_0_1.2" depart="28.00" departLane="np16_nt1_0" departPos="39.53" departSpeed="0.00" departDelay="0.73" arrival="268.00" arrivalLane="nt16_np8_0" arrivalPos="75.00" arrivalSpeed="15.02" duration="240.00" routeLength="1308.35" waitingTime="71.00" waitingCount="10" stopTime="0.00" timeLoss="128.72" rerouteNo="0" devices="tripinfo_f_0_1.2" vType="type1" speedFactor="0.82" vaporized=""/>
    <tripinfo id="f_0_0.0" depart="0.00" departLane="np13_nt13_0" departPos="33.59" departSpeed="0.00" departDelay="0.00" arrival="283.00" arrivalLane="nt4_np5_0" arrivalPos="75.00" arrivalSpeed="19.00" duration="283.00" routeLength="1314.30" waitingTime="159.00" waitingCount="5" stopTime="0.00" timeLoss="190.80" rerouteNo="0" devices="tripinfo_f_0_0.0" vType="type1" speedFactor="1.00" vaporized=""/>
    <tripinfo id="f_0_1.3" depart="41.00" departLane="np16_nt1_0" departPos="13.04" departSpeed="0.00" departDelay="0.09" arrival="283.00" arrivalLane="nt16_np8_0" arrivalPos="75.00" arrivalSpeed="17.55" duration="242.00" routeLength="1334.84" waitingTime="63.00" waitingCount="10" stopTime="0.00" timeLoss="146.64" rerouteNo="0" devices="tripinfo_f_0_1.3" vType="type1" speedFactor="0.97" vaporized=""/>
    <tripinfo id="f_0_0.1" depart="14.00" departLane="np13_nt13_0" departPos="50.66" departSpeed="0.00" departDelay="0.36" arrival="294.00" arrivalLane="nt4_np5_0" arrivalPos="75.00" arrivalSpeed="18.54" duration="280.00" routeLength="1297.23" waitingTime="146.00" waitingCount="8" stopTime="0.00" timeLoss="192.69" rerouteNo="0" devices="tripinfo_f_0_0.1" vType="type1" speedFactor="1.05" vaporized=""/>
    <tripinfo id="f_0_0.2" depart="28.00" departLane="np13_nt13_0" departPos="38.41" departSpeed="0.00" departDelay="0.73" arrival="304.00" arrivalLane="nt4_np5_0" arrivalPos="75.00" arrivalSpeed="16.42" duration="276.00" routeLength="1309.48" waitingTime="130.00" waitingCount="6" stopTime="0.00" timeLoss="164.55" rerouteNo="0" devices="tripinfo_f_0_0.2" vType="type1" speedFactor="0.82" vaporized=""/>
    <tripinfo id="f_0_0.3" depart="41.00" departLane="np13_nt13_0" departPos="22.90" departSpeed="0.00" departDelay="0.09" arrival="314.00" arrivalLane="nt4_np5_0" arrivalPos="75.00" arrivalSpeed="21.24" duration="273.00" routeLength="1324.99" waitingTime="125.00" waitingCount="6" stopTime="0.00" timeLoss="188.79" rerouteNo="0" devices="tripinfo_f_0_0.3" vType="type1" speedFactor="1.10" vaporized=""/>
    <tripinfo id="f_0_0.4" depart="55.00" departLane="np13_nt13_0" departPos="46.07" departSpeed="0.00" departDelay="0.46" arrival="339.00" arrivalLane="nt4_np5_0" arrivalPos="75.00" arrivalSpeed="17.04" duration="284.00" routeLength="1301.82" waitingTime="136.00" waitingCount="8" stopTime="0.00" timeLoss="186.85" rerouteNo="0" devices="tripinfo_f_0_0.4" vType="type1" speedFactor="0.94" vaporized=""/>
    <tripinfo id="f_0_0.5" depart="69.00" departLane="np13_nt13_0" departPos="17.78" departSpeed="0.00" departDelay="0.82" arrival="340.00" arrivalLane="nt4_np5_0" arrivalPos="75.00" arrivalSpeed="20.02" duration="271.00" routeLength="1330.11" waitingTime="130.00" waitingCount="8" stopTime="0.00" timeLoss="180.63" rerouteNo="0" devices="tripinfo_f_0_0.5" vType="type1" speedFactor="1.02" vaporized=""/>
    <tripinfo id="f_0_2.7" depart="58.00" departLane="np2_nt2_0" departPos="9.09" departSpeed="0.00" departDelay="0.73" arrival="343.00" arrivalLane="nt15_np10_0" arrivalPos="75.00" arrivalSpeed="7.45" duration="285.00" routeLength="941.99" waitingTime="125.00" waitingCount="12" stopTime="0.00" timeLoss="196.80" rerouteNo="0" devices="tripinfo_f_0_2.7" vType="type1" speedFactor="0.90" vaporized=""/>
    <tripinfo id="f_0_2.8" depart="66.00" departLane="np2_nt2_0" departPos="51.49" departSpeed="0.00" departDelay="0.54" arrival="344.00" arrivalLane="nt15_np10_0" arrivalPos="75.00" arrivalSpeed="11.30" duration="278.00" routeLength="899.59" waitingTime="118.00" waitingCount="8" stopTime="0.00" timeLoss="211.11" rerouteNo="0" devices="tripinfo_f_0_2.8" vType="type1" speedFactor="1.12" vaporized=""/>
    <tripinfo id="f_0_3.6" depart="50.00" departLane="np3_nt3_0" departPos="21.45" departSpeed="0.00" departDelay="0.91" arrival="357.00" arrivalLane="nt14_np11_0" arrivalPos="75.00" arrivalSpeed="9.51" duration="307.00" routeLength="929.64" waitingTime="190.00" waitingCount="8" stopTime="0.00" timeLoss="231.40" rerouteNo="0" devices="tripinfo_f_0_3.6" vType="type1" speedFactor="1.03" vaporized=""/>
    <tripinfo id="f_0_2.9" depart="74.00" departLane="np2_nt2_0" departPos="8.11" departSpeed="0.00" departDelay="0.36" arrival="357.00" arrivalLane="nt15_np10_0" arrivalPos="75.00" arrivalSpeed="10.52" duration="283.00" routeLength="942.97" waitingTime="129.00" waitingCount="8" stopTime="0.00" timeLoss="208.31" rerouteNo="0" devices="tripinfo_f_0_2.9" vType="type1" speedFactor="1.06" vaporized=""/>
    <tripinfo id="f_0_0.6" depart="82.00" departLane="np13_nt13_0" departPos="12.09" departSpeed="0.00" departDelay="0.18" arrival="358.00" arrivalLane="nt4_np5_0" arrivalPos="75.00" arrivalSpeed="18.40" duration="276.00" routeLength="1335.80" waitingTime="129.00" waitingCount="7" stopTime="0.00" timeLoss="179.18" rerouteNo="0" devices="tripinfo_f_0_0.6" vType="type1" speedFactor="0.95" vaporized=""/>
    <tripinfo id="f_0_3.7" depart="58.00" departLane="np3_nt3_0" departPos="2.60" departSpeed="0.00" departDelay="0.73" arrival="359.00" arrivalLane="nt14_np11_0" arrivalPos="75.00" arrivalSpeed="9.11" duration="301.00" routeLength="948.49" waitingTime="174.00" waitingCount="6" stopTime="0.00" timeLoss="225.26" rerouteNo="0" devices="tripinfo_f_0_3.7" vType="type1" speedFactor="1.05" vaporized=""/>
    <tripinfo id="f_0_0.7" depart="96.00" departLane="np13_nt13_0" departPos="32.97" departSpeed="0.00" departDelay="0.55" arrival="360.00" arrivalLane="nt4_np5_0" arrivalPos="75.00" arrivalSpeed="20.54" duration="264.00" routeLength="1314.92" waitingTime="125.00" waitingCount="9" stopTime="0.00" timeLoss="181.79" rerouteNo="0" devices="tripinfo_f_0_0.7" vType="type1" speedFactor="1.12" vaporized=""/>
    <tripinfo id="f_0_0.8" depart="110.00" departLane="np13_nt13_0" departPos="38.58" departSpeed="0.00" departDelay="0.91" arrival="379.00" arrivalLane="nt4_np5_0" arrivalPos="75.00" arrivalSpeed="19.31" duration="269.00" routeLength="1309.31" waitingTime="129.00" waitingCount="11" stopTime="0.00" timeLoss="184.89" rerouteNo="0" devices="tripinfo_f_0_0.8" vType="type1" speedFactor="1.08" vaporized=""/>
    <tripinfo id="f_0_0.9" depart="123.00" departLane="np13_nt13_0" departPos="5.76" departSpeed="0.00" departDelay="0.28" arrival="381.00" arrivalLane="nt4_np5_0" arrivalPos="75.00" arrivalSpeed="19.05" duration="258.00" routeLength="1342.13" waitingTime="105.00" waitingCount="11" stopTime="0.00" timeLoss="172.00" rerouteNo="0" devices="tripinfo_f_0_0.9" vType="type1" speedFactor="1.08" vaporized=""/>
    <tripinfo id="f_0_0.10" depart="137.00" departLane="np13_nt13_0" departPos="44.40" departSpeed="0.00" departDelay="0.64" arrival="399.00" arrivalLane="nt4_np5_0" arrivalPos="75.00" arrivalSpeed="15.02" duration="262.00" routeLength="1303.49" waitingTime="85.00" waitingCount="10" stopTime="0.00" timeLoss="149.30" rerouteNo="0" devices="tripinfo_f_0_0.10" vType="type1" speedFactor="0.81" vaporized=""/>
    <tripinfo id="f_0_2.10" depart="82.00" departLane="np2_nt2_0" departPos="15.94" departSpeed="0.00" departDelay="0.18" arrival="402.00" arrivalLane="nt15_np10_0" arrivalPos="75.00" arrivalSpeed="10.26" duration="320.00" routeLength="935.14" waitingTime="162.00" waitingCount="8" stopTime="0.00" timeLoss="242.18" rerouteNo="0" devices="tripinfo_f_0_2.10" vType="type1" speedFactor="1.01" vaporized=""/>
    <tripinfo id="f_0_2.11" depart="90.00" departLane="np2_nt2_0" departPos="64.31" departSpeed="0.00" departDelay="0.00" arrival="408.00" arrivalLane="nt15_np10_0" arrivalPos="75.00" arrivalSpeed="7.08" duration="318.00" routeLength="886.77" waitingTime="149.00" waitingCount="7" stopTime="0.00" timeLoss="219.56" rerouteNo="0" devices="tripinfo_f_0_2.11" vType="type1" speedFactor="0.75" vaporized=""/>
    <tripinfo id="f_0_1.4" depart="55.00" departLane="np16_nt1_0" departPos="40.86" departSpeed="0.00" departDelay="0.46" arrival="418.00" arrivalLane="nt16_np8_0" arrivalPos="75.00" arrivalSpeed="20.27" duration="363.00" routeLength="1307.02" waitingTime="163.00" waitingCount="8" stopTime="0.00" timeLoss="274.24" rerouteNo="0" devices="tripinfo_f_0_1.4" vType="type1" speedFactor="1.04" vaporized=""/>
    <tripinfo id="f_0_1.5" depart="69.00" departLane="np16_nt1_0" departPos="67.32" departSpeed="0.00" departDelay="0.82" arrival="426.00" arrivalLane="nt16_np8_0" arrivalPos="75.00" arrivalSpeed="16.70" duration="357.00" routeLength="1280.56" waitingTime="159.00" waitingCount="12" stopTime="0.00" timeLoss="262.70" rerouteNo="0" devices="tripinfo_f_0_1.5" vType="type1" speedFactor="0.96" vaporized=""/>
    <tripinfo id="f_0_2.12" depart="99.00" departLane="np2_nt2_0" departPos="29.14" departSpeed="0.00" departDelay="0.82" arrival="427.00" arrivalLane="nt15_np10_0" arrivalPos="75.00" arrivalSpeed="10.48" duration="328.00" routeLength="921.94" waitingTime="170.00" waitingCount="12" stopTime="0.00" timeLoss="250.19" rerouteNo="0" devices="tripinfo_f_0_2.12" vType="type1" speedFactor="1.00" vaporized=""/>
    <tripinfo id="f_0_0.11" depart="150.00" departLane="np13_nt13_0" departPos="3.21" departSpeed="0.00" departDelay="0.00" arrival="428.00" arrivalLane="nt4_np5_0" arrivalPos="75.00" arrivalSpeed="20.88" duration="278.00" routeLength="1344.68" waitingTime="109.00" waitingCount="11" stopTime="0.00" timeLoss="191.52" rerouteNo="0" devices="tripinfo_f_0_0.11" vType="type1" speedFactor="1.07" vaporized=""/>
    <tripinfo id="f_0_0.12" depart="164.00" departLane="np13_nt13_0" departPos="45.31" departSpeed="0.00" departDelay="0.37" arrival="431.00" arrivalLane="nt4_np5_0" arrivalPos="75.00" arrivalSpeed="21.03" duration="267.00" routeLength="1302.58" waitingTime="108.00" waitingCount="11" stopTime="0.00" timeLoss="182.52" rerouteNo="0" devices="tripinfo_f_0_0.12" vType="type1" speedFactor="1.08" vaporized=""/>
    <tripinfo id="f_0_0.13" depart="178.00" departLane="np13_nt13_0" departPos="40.89" departSpeed="0.00" departDelay="0.73" arrival="432.00" arrivalLane="nt4_np5_0" arrivalPos="75.00" arrivalSpeed="19.88" duration="254.00" routeLength="1307.00" waitingTime="89.00" waitingCount="11" stopTime="0.00" timeLoss="172.33" rerouteNo="0" devices="tripinfo_f_0_0.13" vType="type1" speedFactor="1.12" vaporized=""/>
    <tripinfo id="f_0_0.14" depart="191.00" departLane="np13_nt13_0" departPos="64.14" departSpeed="0.00" departDelay="0.10" arrival="434.00" arrivalLane="nt4_np5_0" arrivalPos="75.00" arrivalSpeed="19.21" duration="243.00" routeLength="1283.75" waitingTime="76.00" waitingCount="8" stopTime="0.00" timeLoss="153.28" rerouteNo="0" devices="tripinfo_f_0_0.14" vType="type1" speedFactor="1.01" vaporized=""/>
    <tripinfo id="f_0_1.6" depart="82.00" departLane="np16_nt1_0" departPos="27.86" departSpeed="0.00" departDelay="0.18" arrival="444.00" arrivalLane="nt16_np8_0" arrivalPos="75.00" arrivalSpeed="17.47" duration="362.00" routeLength="1320.02" waitingTime="163.00" waitingCount="12" stopTime="0.00" timeLoss="265.39" rerouteNo="0" devices="tripinfo_f_0_1.6" vType="type1" speedFactor="0.96" vaporized=""/>
    <tripinfo id="f_0_1.7" depart="96.00" departLane="np16_nt1_0" departPos="42.61" departSpeed="0.00" departDelay="0.55" arrival="445.00" arrivalLane="nt16_np8_0" arrivalPos="75.00" arrivalSpeed="21.66" duration="349.00" routeLength="1305.27" waitingTime="161.00" waitingCount="13" stopTime="0.00" timeLoss="270.49" rerouteNo="0" devices="tripinfo_f_0_1.7" vType="type1" speedFactor="1.16" vaporized=""/>
    <tripinfo id="f_0_3.8" depart="66.00" departLane="np3_nt3_0" departPos="0.00" departSpeed="0.00" departDelay="0.54" arrival="447.00" arrivalLane="nt14_np11_0" arrivalPos="75.00" arrivalSpeed="9.69" duration="381.00" routeLength="951.09" waitingTime="255.00" waitingCount="9" stopTime="0.00" timeLoss="303.89" rerouteNo="0" devices="tripinfo_f_0_3.8" vType="type1" speedFactor="1.04" vaporized=""/>
    <tripinfo id="f_0_3.9" depart="74.00" departLane="np3_nt3_0" departPos="0.00" departSpeed="0.00" departDelay="0.36" arrival="449.00" arrivalLane="nt14_np11_0" arrivalPos="75.00" arrivalSpeed="9.33" duration="375.00" routeLength="951.09" waitingTime="245.00" waitingCount="9" stopTime="0.00" timeLoss="297.31" rerouteNo="0" devices="tripinfo_f_0_3.9" vType="type1" speedFactor="1.02" vaporized=""/>
    <tripinfo id="f_0_2.13" depart="107.00" departLane="np2_nt2_0" departPos="32.80" departSpeed="0.00" departDelay="0.63" arrival="459.00" arrivalLane="nt15_np10_0" arrivalPos="75.00" arrivalSpeed="8.61" duration="352.00" routeLength="918.28" waitingTime="168.00" waitingCount="10" stopTime="0.00" timeLoss="260.91" rerouteNo="0" devices="tripinfo_f_0_2.13" vType="type1" speedFactor="0.85" vaporized=""/>
    <tripinfo id="f_0_0.15" depart="205.00" departLane="np13_nt13_0" departPos="56.28" departSpeed="0.00" departDelay="0.46" arrival="459.00" arrivalLane="nt4_np5_0" arrivalPos="75.00" arrivalSpeed="16.24" duration="254.00" routeLength="1291.61" waitingTime="88.00" waitingCount="7" stopTime="0.00" timeLoss="154.50" rerouteNo="0" devices="tripinfo_f_0_0.15" vType="type1" speedFactor="0.91" vaporized=""/>
    <tripinfo id="f_0_0.16" depart="219.00" departLane="np13_nt13_0" departPos="64.84" departSpeed="0.00" departDelay="0.82" arrival="461.00" arrivalLane="nt4_np5_0" arrivalPos="75.00" arrivalSpeed="22.36" duration="242.00" routeLength="1283.05" waitingTime="88.00" waitingCount="9" stopTime="0.00" timeLoss="161.55" rerouteNo="0" devices="tripinfo_f_0_0.16" vType="type1" speedFactor="1.13" vaporized=""/>
    <tripinfo id="f_0_0.17" depart="232.00" departLane="np13_nt13_0" departPos="67.16" departSpeed="0.00" departDelay="0.19" arrival="462.00" arrivalLane="nt4_np5_0" arrivalPos="75.00" arrivalSpeed="19.57" duration="230.00" routeLength="1280.73" waitingTime="87.00" waitingCount="6" stopTime="0.00" timeLoss="138.83" rerouteNo="0" devices="tripinfo_f_0_0.17" vType="type1" speedFactor="0.99" vaporized=""/>
    <tripinfo id="f_0_0.18" depart="246.00" departLane="np13_nt13_0" departPos="0.93" departSpeed="0.00" departDelay="0.55" arrival="464.00" arrivalLane="nt4_np5_0" arrivalPos="75.00" arrivalSpeed="18.06" duration="218.00" routeLength="1346.96" waitingTime="76.00" waitingCount="4" stopTime="0.00" timeLoss="124.21" rerouteNo="0" devices="tripinfo_f_0_0.18" vType="type1" speedFactor="1.00" vaporized=""/>
    <tripinfo id="f_0_3.10" depart="82.00" departLane="np3_nt3_0" departPos="0.40" departSpeed="0.00" departDelay="0.18" arrival="467.00" arrivalLane="nt14_np11_0" arrivalPos="75.00" arrivalSpeed="9.54" duration="385.00" routeLength="950.69" waitingTime="241.00" waitingCount="11" stopTime="0.00" timeLoss="308.64" rerouteNo="0" devices="tripinfo_f_0_3.10" vType="type1" speedFactor="1.05" vaporized=""/>
    <tripinfo id="f_0_3.11" depart="102.00" departLane="np3_nt3_0" departPos="0.00" departSpeed="0.00" departDelay="12.00" arrival="469.00" arrivalLane="nt14_np11_0" arrivalPos="75.00" arrivalSpeed="12.40" duration="367.00" routeLength="951.09" waitingTime="217.00" waitingCount="11" stopTime="0.00" timeLoss="296.42" rerouteNo="0" devices="tripinfo_f_0_3.11" vType="type1" speedFactor="1.14" vaporized=""/>
    <tripinfo id="f_0_1.8" depart="110.00" departLane="np16_nt1_0" departPos="29.86" departSpeed="0.00" departDelay="0.91" arrival="488.00" arrivalLane="nt16_np8_0" arrivalPos="75.00" arrivalSpeed="16.66" duration="378.00" routeLength="1318.02" waitingTime="176.00" waitingCount="11" stopTime="0.00" timeLoss="279.92" rerouteNo="0" devices="tripinfo_f_0_1.8" vType="type1" speedFactor="0.93" vaporized=""/>
    <tripinfo id="f_0_3.12" depart="106.00" departLane="np3_nt3_0" departPos="0.00" departSpeed="0.00" departDelay="7.82" arrival="493.00" arrivalLane="nt14_np11_0" arrivalPos="75.00" arrivalSpeed="8.77" duration="387.00" routeLength="951.09" waitingTime="222.00" waitingCount="9" stopTime="0.00" timeLoss="298.07" rerouteNo="0" devices="tripinfo_f_0_3.12" vType="type1" speedFactor="0.90" vaporized=""/>
    <tripinfo id="f_0_2.14" depart="115.00" departLane="np2_nt2_0" departPos="5.53" departSpeed="0.00" departDelay="0.45" arrival="493.00" arrivalLane="nt15_np10_0" arrivalPos="75.00" arrivalSpeed="8.78" duration="378.00" routeLength="945.55" waitingTime="212.00" waitingCount="15" stopTime="0.00" timeLoss="296.93" rerouteNo="0" devices="tripinfo_f_0_2.14" vType="type1" speedFactor="0.98" vaporized=""/>
    <tripinfo id="f_0_3.13" depart="134.00" departLane="np3_nt3_0" departPos="0.00" departSpeed="0.00" departDelay="27.63" arrival="495.00" arrivalLane="nt14_np11_0" arrivalPos="75.00" arrivalSpeed="11.99" duration="361.00" routeLength="951.09" waitingTime="217.00" waitingCount="8" stopTime="0.00" timeLoss="293.08" rerouteNo="0" devices="tripinfo_f_0_3.13" vType="type1" speedFactor="1.18" vaporized=""/>
    <tripinfo id="f_0_2.15" depart="123.00" departLane="np2_nt2_0" departPos="8.14" departSpeed="0.00" departDelay="0.27" arrival="495.00" arrivalLane="nt15_np10_0" arrivalPos="75.00" arrivalSpeed="8.53" duration="372.00" routeLength="942.94" waitingTime="182.00" waitingCount="13" stopTime="0.00" timeLoss="284.96" rerouteNo="0" devices="tripinfo_f_0_2.15" vType="type1" speedFactor="0.91" vaporized=""/>
    <tripinfo id="f_0_3.14" depart="143.00" departLane="np3_nt3_0" departPos="0.00" departSpeed="0.00" departDelay="28.45" arrival="498.00" arrivalLane="nt14_np11_0" arrivalPos="75.00" arrivalSpeed="8.25" duration="355.00" routeLength="951.09" waitingTime="198.00" waitingCount="8" stopTime="0.00" timeLoss="261.65" rerouteNo="0" devices="tripinfo_f_0_3.14" vType="type1" speedFactor="0.85" vaporized=""/>
    <tripinfo id="f_0_2.16" depart="131.00" departLane="np2_nt2_0" departPos="38.81" departSpeed="0.00" departDelay="0.09" arrival="500.00" arrivalLane="nt15_np10_0" arrivalPos="75.00" arrivalSpeed="6.59" duration="369.00" routeLength="912.27" waitingTime="153.00" waitingCount="14" stopTime="0.00" timeLoss="264.72" rerouteNo="0" devices="tripinfo_f_0_2.16" vType="type1" speedFactor="0.73" vaporized=""/>
    <tripinfo id="f_0_3.15" depart="253.00" departLane="np3_nt3_0" departPos="0.59" departSpeed="0.00" departDelay="130.27" arrival="502.00" arrivalLane="nt14_np11_0" arrivalPos="75.00" arrivalSpeed="8.11" duration="249.00" routeLength="950.50" waitingTime="92.00" waitingCount="7" stopTime="0.00" timeLoss="147.67" rerouteNo="0" devices="tripinfo_f_0_3.15" vType="type1" speedFactor="0.79" vaporized=""/>
    <tripinfo id="f_0_2.17" depart="140.00" departLane="np2_nt2_0" departPos="42.94" departSpeed="0.00" departDelay="0.91" arrival="502.00" arrivalLane="nt15_np10_0" arrivalPos="75.00" arrivalSpeed="9.25" duration="362.00" routeLength="908.14" waitingTime="149.00" waitingCount="13" stopTime="0.00" timeLoss="289.51" rerouteNo="0" devices="tripinfo_f_0_2.17" vType="type1" speedFactor="1.06" vaporized=""/>
    <tripinfo id="f_0_0.19" depart="260.00" departLane="np13_nt13_0" departPos="34.82" departSpeed="0.00" departDelay="0.92" arrival="508.00" arrivalLane="nt4_np5_0" arrivalPos="75.00" arrivalSpeed="18.89" duration="248.00" routeLength="1313.07" waitingTime="120.00" waitingCount="6" stopTime="0.00" timeLoss="159.50" rerouteNo="0" devices="tripinfo_f_0_0.19" vType="type1" speedFactor="1.03" vaporized=""/>
    <tripinfo id="f_0_0.20" depart="273.00" departLane="np13_nt13_0" departPos="16.33" departSpeed="0.00" departDelay="0.28" arrival="510.00" arrivalLane="nt4_np5_0" arrivalPos="75.00" arrivalSpeed="18.80" duration="237.00" routeLength="1331.56" waitingTime="112.00" waitingCount="5" stopTime="0.00" timeLoss="145.58" rerouteNo="0" devices="tripinfo_f_0_0.20" vType="type1" speedFactor="1.01" vaporized=""/>
    <tripinfo id="f_0_1.9" depart="123.00" departLane="np16_nt1_0" departPos="57.18" departSpeed="0.00" departDelay="0.28" arrival="518.00" arrivalLane="nt16_np8_0" arrivalPos="75.00" arrivalSpeed="16.52" duration="395.00" routeLength="1290.70" waitingTime="166.00" waitingCount="13" stopTime="0.00" timeLoss="292.91" rerouteNo="0" devices="tripinfo_f_0_1.9" vType="type1" speedFactor="0.89" vaporized=""/>
    <tripinfo id="f_0_1.10" depart="137.00" departLane="np16_nt1_0" departPos="22.66" departSpeed="0.00" departDelay="0.64" arrival="520.00" arrivalLane="nt16_np8_0" arrivalPos="75.00" arrivalSpeed="16.79" duration="383.00" routeLength="1325.22" waitingTime="147.00" waitingCount="12" stopTime="0.00" timeLoss="285.32" rerouteNo="0" devices="tripinfo_f_0_1.10" vType="type1" speedFactor="0.94" vaporized=""/>
    <tripinfo id="f_0_1.11" depart="150.00" departLane="np16_nt1_0" departPos="67.17" departSpeed="0.00" departDelay="0.00" arrival="524.00" arrivalLane="nt16_np8_0" arrivalPos="75.00" arrivalSpeed="18.78" duration="374.00" routeLength="1280.71" waitingTime="176.00" waitingCount="11" stopTime="0.00" timeLoss="284.30" rerouteNo="0" devices="tripinfo_f_0_1.11" vType="type1" speedFactor="1.00" vaporized=""/>
    <tripinfo id="f_0_3.16" depart="278.00" departLane="np3_nt3_0" departPos="0.00" departSpeed="0.00" departDelay="147.09" arrival="526.00" arrivalLane="nt14_np11_0" arrivalPos="75.00" arrivalSpeed="11.24" duration="248.00" routeLength="951.09" waitingTime="99.00" waitingCount="7" stopTime="0.00" timeLoss="175.61" rerouteNo="0" devices="tripinfo_f_0_3.16" vType="type1" speedFactor="1.10" vaporized=""/>
    <tripinfo id="f_0_3.17" depart="293.00" departLane="np3_nt3_0" departPos="0.00" departSpeed="0.00" departDelay="153.91" arrival="529.00" arrivalLane="nt14_np11_0" arrivalPos="75.00" arrivalSpeed="10.01" duration="236.00" routeLength="951.09" waitingTime="94.00" waitingCount="8" stopTime="0.00" timeLoss="157.08" rerouteNo="0" devices="tripinfo_f_0_3.17" vType="type1" speedFactor="1.01" vaporized=""/>
    <tripinfo id="f_0_3.18" depart="322.00" departLane="np3_nt3_0" departPos="0.00" departSpeed="0.00" departDelay="174.72" arrival="532.00" arrivalLane="nt14_np11_0" arrivalPos="75.00" arrivalSpeed="9.78" duration="210.00" routeLength="951.09" waitingTime="67.00" waitingCount="7" stopTime="0.00" timeLoss="122.79" rerouteNo="0" devices="tripinfo_f_0_3.18" vType="type1" speedFactor="0.92" vaporized=""/>
    <tripinfo id="f_0_3.20" depart="326.00" departLane="np3_nt3_0" departPos="12.48" departSpeed="0.00" departDelay="162.36" arrival="534.00" arrivalLane="nt14_np11_0" arrivalPos="75.00" arrivalSpeed="9.08" duration="208.00" routeLength="938.61" waitingTime="60.00" waitingCount="7" stopTime="0.00" timeLoss="130.25" rerouteNo="0" devices="tripinfo_f_0_3.20" vType="type1" speedFactor="1.02" vaporized=""/>