<?xml version="1.0" encoding="UTF-8"?>

<!-- generated on 2023-08-30 12:43:57 by Eclipse SUMO libsumo Version 1.18.0
<configuration xmlns:xsi="http://www.w3.org/2001/XMLSchema-instance" xsi:noNamespaceSchemaLocation="http://sumo.dlr.de/xsd/libsumoConfiguration.xsd">

    <input>
        <net-file value="/home/stefan/RESCO/./environments/arterial4x4/arterial4x4.net.xml"/>
        <route-files value="/home/stefan/RESCO/./environments/arterial4x4/arterial4x4_69.rou.xml"/>
    </input>

    <output>
        <tripinfo-output value="/home/stefan/results/ITRPO-tr0-arterial4x4-0-drq_norm-wait_norm/tripinfo_69.xml"/>
        <tripinfo-output.write-unfinished value="true"/>
    </output>

    <processing>
        <time-to-teleport value="-1"/>
    </processing>

    <report>
        <no-warnings value="True"/>
        <no-step-log value="True"/>
    </report>

    <random_number>
        <random value="true"/>
    </random_number>

</configuration>
-->

<tripinfos xmlns:xsi="http://www.w3.org/2001/XMLSchema-instance" xsi:noNamespaceSchemaLocation="http://sumo.dlr.de/xsd/tripinfo_file.xsd">
    <tripinfo id="f_0_0.0" depart="0.00" departLane="np13_nt13_0" departPos="64.44" departSpeed="0.00" departDelay="0.00" arrival="138.00" arrivalLane="nt4_np5_0" arrivalPos="75.00" arrivalSpeed="17.90" duration="138.00" routeLength="1283.45" waitingTime="23.00" waitingCount="5" stopTime="0.00" timeLoss="49.13" rerouteNo="0" devices="tripinfo_f_0_0.0" vType="type1" speedFactor="1.01" vaporized=""/>
    <tripinfo id="f_0_3.0" depart="0.00" departLane="np3_nt3_0" departPos="60.45" departSpeed="0.00" departDelay="0.00" arrival="153.00" arrivalLane="nt14_np11_0" arrivalPos="75.00" arrivalSpeed="9.75" duration="153.00" routeLength="890.64" waitingTime="58.00" waitingCount="2" stopTime="0.00" timeLoss="74.69" rerouteNo="0" devices="tripinfo_f_0_3.0" vType="type1" speedFactor="0.96" vaporized=""/>
    <tripinfo id="f_0_3.1" depart="9.00" departLane="np3_nt3_0" departPos="54.03" departSpeed="0.00" departDelay="0.82" arrival="167.00" arrivalLane="nt14_np11_0" arrivalPos="75.00" arrivalSpeed="9.49" duration="158.00" routeLength="897.06" waitingTime="56.00" waitingCount="5" stopTime="0.00" timeLoss="80.56" rerouteNo="0" devices="tripinfo_f_0_3.1" vType="type1" speedFactor="0.96" vaporized=""/>
    <tripinfo id="f_0_3.2" depart="17.00" departLane="np3_nt3_0" departPos="30.82" departSpeed="0.00" departDelay="0.64" arrival="177.00" arrivalLane="nt14_np11_0" arrivalPos="75.00" arrivalSpeed="10.60" duration="160.00" routeLength="920.27" waitingTime="50.00" waitingCount="5" stopTime="0.00" timeLoss="83.21" rerouteNo="0" devices="tripinfo_f_0_3.2" vType="type1" speedFactor="1.01" vaporized=""/>
    <tripinfo id="f_0_0.1" depart="14.00" departLane="np13_nt13_0" departPos="22.59" departSpeed="0.00" departDelay="0.36" arrival="199.00" arrivalLane="nt4_np5_0" arrivalPos="75.00" arrivalSpeed="23.12" duration="185.00" routeLength="1325.30" waitingTime="67.00" waitingCount="7" stopTime="0.00" timeLoss="104.87" rerouteNo="0" devices="tripinfo_f_0_0.1" vType="type1" speedFactor="1.16" vaporized=""/>
    <tripinfo id="f_0_3.3" depart="25.00" departLane="np3_nt3_0" departPos="10.01" departSpeed="0.00" departDelay="0.45" arrival="202.00" arrivalLane="nt14_np11_0" arrivalPos="75.00" arrivalSpeed="9.09" duration="177.00" routeLength="941.08" waitingTime="62.00" waitingCount="5" stopTime="0.00" timeLoss="95.78" rerouteNo="0" devices="tripinfo_f_0_3.3" vType="type1" speedFactor="0.98" vaporized=""/>
    <tripinfo id="f_0_3.4" depart="33.00" departLane="np3_nt3_0" departPos="32.03" departSpeed="0.00" departDelay="0.27" arrival="204.00" arrivalLane="nt14_np11_0" arrivalPos="75.00" arrivalSpeed="10.77" duration="171.00" routeLength="919.06" waitingTime="59.00" waitingCount="6" stopTime="0.00" timeLoss="96.51" rerouteNo="0" devices="tripinfo_f_0_3.4" vType="type1" speedFactor="1.04" vaporized=""/>
    <tripinfo id="f_0_2.0" depart="0.00" departLane="np2_nt2_0" departPos="37.32" departSpeed="0.00" departDelay="0.00" arrival="209.00" arrivalLane="nt15_np10_0" arrivalPos="75.00" arrivalSpeed="9.28" duration="209.00" routeLength="913.76" waitingTime="97.00" waitingCount="4" stopTime="0.00" timeLoss="122.17" rerouteNo="0" devices="tripinfo_f_0_2.0" vType="type1" speedFactor="0.89" vaporized=""/>
    <tripinfo id="f_0_2.1" depart="9.00" departLane="np2_nt2_0" departPos="9.13" departSpeed="0.00" departDelay="0.82" arrival="212.00" arrivalLane="nt15_np10_0" arrivalPos="75.00" arrivalSpeed="9.17" duration="203.00" routeLength="941.95" waitingTime="83.00" waitingCount="3" stopTime="0.00" timeLoss="110.59" rerouteNo="0" devices="tripinfo_f_0_2.1" vType="type1" speedFactor="0.86" vaporized=""/>
    <tripinfo id="f_0_0.2" depart="28.00" departLane="np13_nt13_0" departPos="12.96" departSpeed="0.00" departDelay="0.73" arrival="218.00" arrivalLane="nt4_np5_0" arrivalPos="75.00" arrivalSpeed="15.86" duration="190.00" routeLength="1334.93" waitingTime="43.00" waitingCount="5" stopTime="0.00" timeLoss="81.42" rerouteNo="0" devices="tripinfo_f_0_0.2" vType="type1" speedFactor="0.85" vaporized=""/>
    <tripinfo id="f_0_0.3" depart="41.00" departLane="np13_nt13_0" departPos="16.82" departSpeed="0.00" departDelay="0.09" arrival="220.00" arrivalLane="nt4_np5_0" arrivalPos="75.00" arrivalSpeed="20.67" duration="179.00" routeLength="1331.07" waitingTime="48.00" waitingCount="5" stopTime="0.00" timeLoss="92.58" rerouteNo="0" devices="tripinfo_f_0_0.3" vType="type1" speedFactor="1.07" vaporized=""/>
    <tripinfo id="f_0_0.4" depart="55.00" departLane="np13_nt13_0" departPos="3.60" departSpeed="0.00" departDelay="0.46" arrival="221.00" arrivalLane="nt4_np5_0" arrivalPos="75.00" arrivalSpeed="19.00" duration="166.00" routeLength="1344.29" waitingTime="42.00" waitingCount="5" stopTime="0.00" timeLoss="71.73" rerouteNo="0" devices="tripinfo_f_0_0.4" vType="type1" speedFactor="0.98" vaporized=""/>
    <tripinfo id="f_0_1.0" depart="0.00" departLane="np16_nt1_0" departPos="11.02" departSpeed="0.00" departDelay="0.00" arrival="228.00" arrivalLane="nt16_np8_0" arrivalPos="75.00" arrivalSpeed="18.43" duration="228.00" routeLength="1336.86" waitingTime="86.00" waitingCount="7" stopTime="0.00" timeLoss="133.32" rerouteNo="0" devices="tripinfo_f_0_1.0" vType="type1" speedFactor="0.98" vaporized=""/>
    <tripinfo id="f_0_3.5" depart="41.00" departLane="np3_nt3_0" departPos="15.98" departSpeed="0.00" departDelay="0.09" arrival="240.00" arrivalLane="nt14_np11_0" arrivalPos="75.00" arrivalSpeed="7.33" duration="199.00" routeLength="935.11" waitingTime="68.00" waitingCount="5" stopTime="0.00" timeLoss="98.52" rerouteNo="0" devices="tripinfo_f_0_3.5" vType="type1" speedFactor="0.78" vaporized=""/>
    <tripinfo id="f_0_2.2" depart="17.00" departLane="np2_nt2_0" departPos="1.40" departSpeed="0.00" departDelay="0.64" arrival="242.00" arrivalLane="nt15_np10_0" arrivalPos="75.00" arrivalSpeed="9.31" duration="225.00" routeLength="949.68" waitingTime="99.00" waitingCount="5" stopTime="0.00" timeLoss="147.18" rerouteNo="0" devices="tripinfo_f_0_2.2" vType="type1" speedFactor="1.02" vaporized=""/>
    <tripinfo id="f_0_3.6" depart="50.00" departLane="np3_nt3_0" departPos="6.21" departSpeed="0.00" departDelay="0.91" arrival="242.00" arrivalLane="nt14_np11_0" arrivalPos="75.00" arrivalSpeed="11.50" duration="192.00" routeLength="944.88" waitingTime="64.00" waitingCount="6" stopTime="0.00" timeLoss="116.03" rerouteNo="0" devices="tripinfo_f_0_3.6" vType="type1" speedFactor="1.05" vaporized=""/>
    <tripinfo id="f_0_3.7" depart="58.00" departLane="np3_nt3_0" departPos="33.85" departSpeed="0.00" departDelay="0.73" arrival="244.00" arrivalLane="nt14_np11_0" arrivalPos="75.00" arrivalSpeed="12.67" duration="186.00" routeLength="917.24" waitingTime="58.00" waitingCount="6" stopTime="0.00" timeLoss="123.33" rerouteNo="0" devices="tripinfo_f_0_3.7" vType="type1" speedFactor="1.23" vaporized=""/>
    <tripinfo id="f_0_3.8" depart="66.00" departLane="np3_nt3_0" departPos="16.62" departSpeed="0.00" departDelay="0.54" arrival="246.00" arrivalLane="nt14_np11_0" arrivalPos="75.00" arrivalSpeed="9.12" duration="180.00" routeLength="934.47" waitingTime="44.00" waitingCount="6" stopTime="0.00" timeLoss="97.34" rerouteNo="0" devices="tripinfo_f_0_3.8" vType="type1" speedFactor="0.95" vaporized=""/>
    <tripinfo id="f_0_2.3" depart="25.00" departLane="np2_nt2_0" departPos="6.57" departSpeed="0.00" departDelay="0.45" arrival="263.00" arrivalLane="nt15_np10_0" arrivalPos="75.00" arrivalSpeed="7.96" duration="238.00" routeLength="944.51" waitingTime="103.00" waitingCount="7" stopTime="0.00" timeLoss="144.25" rerouteNo="0" devices="tripinfo_f_0_2.3" vType="type1" speedFactor="0.85" vaporized=""/>
    <tripinfo id="f_0_2.4" depart="33.00" departLane="np2_nt2_0" departPos="28.49" departSpeed="0.00" departDelay="0.27" arrival="265.00" arrivalLane="nt15_np10_0" arrivalPos="75.00" arrivalSpeed="10.28" duration="232.00" routeLength="922.59" waitingTime="92.00" waitingCount="6" stopTime="0.00" timeLoss="155.31" rerouteNo="0" devices="tripinfo_f_0_2.4" vType="type1" speedFactor="1.02" vaporized=""/>
    <tripinfo id="f_0_2.5" depart="41.00" departLane="np2_nt2_0" departPos="0.96" departSpeed="0.00" departDelay="0.09" arrival="282.00" arrivalLane="nt15_np10_0" arrivalPos="75.00" arrivalSpeed="9.75" duration="241.00" routeLength="950.12" waitingTime="106.00" waitingCount="9" stopTime="0.00" timeLoss="163.93" rerouteNo="0" devices="tripinfo_f_0_2.5" vType="type1" speedFactor="1.03" vaporized=""/>
    <tripinfo id="f_0_0.5" depart="69.00" departLane="np13_nt13_0" departPos="28.05" departSpeed="0.00" departDelay="0.82" arrival="285.00" arrivalLane="nt4_np5_0" arrivalPos="75.00" arrivalSpeed="15.49" duration="216.00" routeLength="1319.84" waitingTime="69.00" waitingCount="5" stopTime="0.00" timeLoss="99.34" rerouteNo="0" devices="tripinfo_f_0_0.5" vType="type1" speedFactor="0.79" vaporized=""/>
    <tripinfo id="f_0_2.6" depart="50.00" departLane="np2_nt2_0" departPos="14.09" departSpeed="0.00" departDelay="0.91" arrival="286.00" arrivalLane="nt15_np10_0" arrivalPos="75.00" arrivalSpeed="6.96" duration="236.00" routeLength="936.99" waitingTime="81.00" waitingCount="6" stopTime="0.00" timeLoss="143.14" rerouteNo="0" devices="tripinfo_f_0_2.6" vType="type1" speedFactor="0.85" vaporized=""/>
    <tripinfo id="f_0_1.1" depart="14.00" departLane="np16_nt1_0" departPos="21.44" departSpeed="0.00" departDelay="0.36" arrival="294.00" arrivalLane="nt16_np8_0" arrivalPos="75.00" arrivalSpeed="16.37" duration="280.00" routeLength="1326.44" waitingTime="119.00" waitingCount="10" stopTime="0.00" timeLoss="175.42" rerouteNo="0" devices="tripinfo_f_0_1.1" vType="type1" speedFactor="0.88" vaporized=""/>
    <tripinfo id="f_0_0.6" depart="82.00" departLane="np13_nt13_0" departPos="58.19" departSpeed="0.00" departDelay="0.18" arrival="294.00" arrivalLane="nt4_np5_0" arrivalPos="75.00" arrivalSpeed="16.04" duration="212.00" routeLength="1289.70" waitingTime="61.00" waitingCount="6" stopTime="0.00" timeLoss="103.21" rerouteNo="0" devices="tripinfo_f_0_0.6" vType="type1" speedFactor="0.83" vaporized=""/>
    <tripinfo id="f_0_1.2" depart="28.00" departLane="np16_nt1_0" departPos="36.44" departSpeed="0.00" departDelay="0.73" arrival="303.00" arrivalLane="nt16_np8_0" arrivalPos="75.00" arrivalSpeed="19.64" duration="275.00" routeLength="1311.44" waitingTime="98.00" waitingCount="11" stopTime="0.00" timeLoss="189.04" rerouteNo="0" devices="tripinfo_f_0_1.2" vType="type1" speedFactor="1.06" vaporized=""/>
    <tripinfo id="f_0_0.7" depart="96.00" departLane="np13_nt13_0" departPos="47.13" departSpeed="0.00" departDelay="0.55" arrival="303.00" arrivalLane="nt4_np5_0" arrivalPos="75.00" arrivalSpeed="18.40" duration="207.00" routeLength="1300.76" waitingTime="65.00" waitingCount="6" stopTime="0.00" timeLoss="118.69" rerouteNo="0" devices="tripinfo_f_0_0.7" vType="type1" speedFactor="1.03" vaporized=""/>
    <tripinfo id="f_0_1.3" depart="41.00" departLane="np16_nt1_0" departPos="22.19" departSpeed="0.00" departDelay="0.09" arrival="305.00" arrivalLane="nt16_np8_0" arrivalPos="75.00" arrivalSpeed="19.87" duration="264.00" routeLength="1325.69" waitingTime="82.00" waitingCount="10" stopTime="0.00" timeLoss="177.02" rerouteNo="0" devices="tripinfo_f_0_1.3" vType="type1" speedFactor="1.06" vaporized=""/>
    <tripinfo id="f_0_0.8" depart="110.00" departLane="np13_nt13_0" departPos="25.95" departSpeed="0.00" departDelay="0.91" arrival="305.00" arrivalLane="nt4_np5_0" arrivalPos="75.00" arrivalSpeed="20.51" duration="195.00" routeLength="1321.94" waitingTime="59.00" waitingCount="6" stopTime="0.00" timeLoss="112.72" rerouteNo="0" devices="tripinfo_f_0_0.8" vType="type1" speedFactor="1.11" vaporized=""/>
    <tripinfo id="f_0_2.7" depart="58.00" departLane="np2_nt2_0" departPos="7.36" departSpeed="0.00" departDelay="0.73" arrival="308.00" arrivalLane="nt15_np10_0" arrivalPos="75.00" arrivalSpeed="10.22" duration="250.00" routeLength="943.72" waitingTime="86.00" waitingCount="10" stopTime="0.00" timeLoss="165.15" rerouteNo="0" devices="tripinfo_f_0_2.7" vType="type1" speedFactor="0.94" vaporized=""/>
    <tripinfo id="f_0_3.9" depart="74.00" departLane="np3_nt3_0" departPos="27.10" departSpeed="0.00" departDelay="0.36" arrival="308.00" arrivalLane="nt14_np11_0" arrivalPos="75.00" arrivalSpeed="9.49" duration="234.00" routeLength="923.99" waitingTime="102.00" waitingCount="9" stopTime="0.00" timeLoss="152.97" rerouteNo="0" devices="tripinfo_f_0_3.9" vType="type1" speedFactor="0.96" vaporized=""/>
    <tripinfo id="f_0_0.9" depart="123.00" departLane="np13_nt13_0" departPos="28.68" departSpeed="0.00" departDelay="0.28" arrival="308.00" arrivalLane="nt4_np5_0" arrivalPos="75.00" arrivalSpeed="17.52" duration="185.00" routeLength="1319.21" waitingTime="40.00" waitingCount="5" stopTime="0.00" timeLoss="81.65" rerouteNo="0" devices="tripinfo_f_0_0.9" vType="type1" speedFactor="0.89" vaporized=""/>
    <tripinfo id="f_0_3.10" depart="82.00" departLane="np3_nt3_0" departPos="12.52" departSpeed="0.00" departDelay="0.18" arrival="309.00" arrivalLane="nt14_np11_0" arrivalPos="75.00" arrivalSpeed="10.44" duration="227.00" routeLength="938.57" waitingTime="105.00" waitingCount="5" stopTime="0.00" timeLoss="148.43" rerouteNo="0" devices="tripinfo_f_0_3.10" vType="type1" speedFactor="1.00" vaporized=""/>
    <tripinfo id="f_0_2.8" depart="66.00" departLane="np2_nt2_0" departPos="14.49" departSpeed="0.00" departDelay="0.54" arrival="310.00" arrivalLane="nt15_np10_0" arrivalPos="75.00" arrivalSpeed="8.17" duration="244.00" routeLength="936.59" waitingTime="71.00" waitingCount="10" stopTime="0.00" timeLoss="155.36" rerouteNo="0" devices="tripinfo_f_0_2.8" vType="type1" speedFactor="0.88" vaporized=""/>
    <tripinfo id="f_0_0.10" depart="137.00" departLane="np13_nt13_0" departPos="1.88" departSpeed="0.00" departDelay="0.64" arrival="310.00" arrivalLane="nt4_np5_0" arrivalPos="75.00" arrivalSpeed="14.55" duration="173.00" routeLength="1346.01" waitingTime="21.00" waitingCount="5" stopTime="0.00" timeLoss="61.41" rerouteNo="0" devices="tripinfo_f_0_0.10" vType="type1" speedFactor="0.84" vaporized=""/>
    <tripinfo id="f_0_1.4" depart="55.00" departLane="np16_nt1_0" departPos="40.02" departSpeed="0.00" departDelay="0.46" arrival="313.00" arrivalLane="nt16_np8_0" arrivalPos="75.00" arrivalSpeed="18.69" duration="258.00" routeLength="1307.86" waitingTime="72.00" waitingCount="9" stopTime="0.00" timeLoss="163.17" rerouteNo="0" devices="tripinfo_f_0_1.4" vType="type1" speedFactor="0.96" vaporized=""/>
    <tripinfo id="f_0_2.9" depart="74.00" departLane="np2_nt2_0" departPos="42.52" departSpeed="0.00" departDelay="0.36" arrival="318.00" arrivalLane="nt15_np10_0" arrivalPos="75.00" arrivalSpeed="10.93" duration="244.00" routeLength="908.56" waitingTime="62.00" waitingCount="12" stopTime="0.00" timeLoss="170.64" rerouteNo="0" devices="tripinfo_f_0_2.9" vType="type1" speedFactor="1.04" vaporized=""/>
    <tripinfo id="f_0_1.5" depart="69.00" departLane="np16_nt1_0" departPos="66.95" departSpeed="0.00" departDelay="0.82" arrival="328.00" arrivalLane="nt16_np8_0" arrivalPos="75.00" arrivalSpeed="18.51" duration="259.00" routeLength="1280.93" waitingTime="67.00" waitingCount="12" stopTime="0.00" timeLoss="166.91" rerouteNo="0" devices="tripinfo_f_0_1.5" vType="type1" speedFactor="0.97" vaporized=""/>
    <tripinfo id="f_0_0.11" depart="150.00" departLane="np13_nt13_0" departPos="22.56" departSpeed="0.00" departDelay="0.00" arrival="329.00" arrivalLane="nt4_np5_0" arrivalPos="75.00" arrivalSpeed="18.95" duration="179.00" routeLength="1325.33" waitingTime="31.00" waitingCount="5" stopTime="0.00" timeLoss="90.72" rerouteNo="0" devices="tripinfo_f_0_0.11" vType="type1" speedFactor="1.04" vaporized=""/>
    <tripinfo id="f_0_2.10" depart="82.00" departLane="np2_nt2_0" departPos="38.60" departSpeed="0.00" departDelay="0.18" arrival="333.00" arrivalLane="nt15_np10_0" arrivalPos="75.00" arrivalSpeed="9.18" duration="251.00" routeLength="912.48" waitingTime="78.00" waitingCount="12" stopTime="0.00" timeLoss="172.26" rerouteNo="0" devices="tripinfo_f_0_2.10" vType="type1" speedFactor="0.97" vaporized=""/>
    <tripinfo id="f_0_2.11" depart="90.00" departLane="np2_nt2_0" departPos="49.09" departSpeed="0.00" departDelay="0.00" arrival="336.00" arrivalLane="nt15_np10_0" arrivalPos="75.00" arrivalSpeed="9.41" duration="246.00" routeLength="901.99" waitingTime="65.00" waitingCount="9" stopTime="0.00" timeLoss="161.35" rerouteNo="0" devices="tripinfo_f_0_2.11" vType="type1" speedFactor="0.90" vaporized=""/>
    <tripinfo id="f_0_0.12" depart="164.00" departLane="np13_nt13_0" departPos="14.13" departSpeed="0.00" departDelay="0.37" arrival="337.00" arrivalLane="nt4_np5_0" arrivalPos="75.00" arrivalSpeed="22.19" duration="173.00" routeLength="1333.76" waitingTime="60.00" waitingCount="5" stopTime="0.00" timeLoss="92.99" rerouteNo="0" devices="tripinfo_f_0_0.12" vType="type1" speedFactor="1.15" vaporized=""/>
    <tripinfo id="f_0_3.11" depart="90.00" departLane="np3_nt3_0" departPos="8.43" departSpeed="0.00" departDelay="0.00" arrival="338.00" arrivalLane="nt14_np11_0" arrivalPos="75.00" arrivalSpeed="9.40" duration="248.00" routeLength="942.66" waitingTime="116.00" waitingCount="8" stopTime="0.00" timeLoss="159.06" rerouteNo="0" devices="tripinfo_f_0_3.11" vType="type1" speedFactor="0.88" vaporized=""/>
    <tripinfo id="f_0_3.12" depart="99.00" departLane="np3_nt3_0" departPos="23.06" departSpeed="0.00" departDelay="0.82" arrival="340.00" arrivalLane="nt14_np11_0" arrivalPos="75.00" arrivalSpeed="10.60" duration="241.00" routeLength="928.03" waitingTime="122.00" waitingCount="8" stopTime="0.00" timeLoss="166.32" rerouteNo="0" devices="tripinfo_f_0_3.12" vType="type1" speedFactor="1.04" vaporized=""/>
    <tripinfo id="f_0_2.12" depart="99.00" departLane="np2_nt2_0" departPos="56.81" departSpeed="0.00" departDelay="0.82" arrival="343.00" arrivalLane="nt15_np10_0" arrivalPos="75.00" arrivalSpeed="8.57" duration="244.00" routeLength="894.27" waitingTime="64.00" waitingCount="12" stopTime="0.00" timeLoss="165.70" rerouteNo="0" devices="tripinfo_f_0_2.12" vType="type1" speedFactor="0.95" vaporized=""/>
    <tripinfo id="f_0_0.13" depart="178.00" departLane="np13_nt13_0" departPos="3.80" departSpeed="0.00" departDelay="0.73" arrival="345.00" arrivalLane="nt4_np5_0" arrivalPos="75.00" arrivalSpeed="16.44" duration="167.00" routeLength="1344.09" waitingTime="28.00" waitingCount="3" stopTime="0.00" timeLoss="60.15" rerouteNo="0" devices="tripinfo_f_0_0.13" vType="type1" speedFactor="0.87" vaporized=""/>
    <tripinfo id="f_0_2.13" depart="107.00" departLane="np2_nt2_0" departPos="33.41" departSpeed="0.00" departDelay="0.63" arrival="347.00" arrivalLane="nt15_np10_0" arrivalPos="75.00" arrivalSpeed="10.97" duration="240.00" routeLength="917.67" waitingTime="57.00" waitingCount="11" stopTime="0.00" timeLoss="166.39" rerouteNo="0" devices="tripinfo_f_0_2.13" vType="type1" speedFactor="1.05" vaporized=""/>
    <tripinfo id="f_0_2.14" depart="115.00" departLane="np2_nt2_0" departPos="21.55" departSpeed="0.00" departDelay="0.45" arrival="348.00" arrivalLane="nt15_np10_0" arrivalPos="75.00" arrivalSpeed="12.05" duration="233.00" routeLength="929.53" waitingTime="47.00" waitingCount="7" stopTime="0.00" timeLoss="168.31" rerouteNo="0" devices="tripinfo_f_0_2.14" vType="type1" speedFactor="1.20" vaporized=""/>
    <tripinfo id="f_0_2.15" depart="123.00" departLane="np2_nt2_0" departPos="12.93" departSpeed="0.00" departDelay="0.27" arrival="351.00" arrivalLane="nt15_np10_0" arrivalPos="75.00" arrivalSpeed="8.29" duration="228.00" routeLength="938.15" waitingTime="57.00" waitingCount="7" stopTime="0.00" timeLoss="146.93" rerouteNo="0" devices="tripinfo_f_0_2.15" vType="type1" speedFactor="0.98" vaporized=""/>
    <tripinfo id="f_0_2.16" depart="131.00" departLane="np2_nt2_0" departPos="19.77" departSpeed="0.00" departDelay="0.09" arrival="354.00" arrivalLane="nt15_np10_0" arrivalPos="75.00" arrivalSpeed="8.12" duration="223.00" routeLength="931.31" waitingTime="52.00" waitingCount="6" stopTime="0.00" timeLoss="137.98" rerouteNo="0" devices="tripinfo_f_0_2.16" vType="type1" speedFactor="0.92" vaporized=""/>
    <tripinfo id="f_0_1.6" depart="82.00" departLane="np16_nt1_0" departPos="17.94" departSpeed="0.00" departDelay="0.18" arrival="358.00" arrivalLane="nt16_np8_0" arrivalPos="75.00" arrivalSpeed="20.63" duration="276.00" routeLength="1329.94" waitingTime="60.00" waitingCount="13" stopTime="0.00" timeLoss="194.49" rerouteNo="0" devices="tripinfo_f_0_1.6" vType="type1" speedFactor="1.13" vaporized=""/>
    <tripinfo id="f_0_3.13" depart="107.00" departLane="np3_nt3_0" departPos="19.95" departSpeed="0.00" departDelay="0.63" arrival="358.00" arrivalLane="nt14_np11_0" arrivalPos="75.00" arrivalSpeed="9.32" duration="251.00" routeLength="931.14" waitingTime="122.00" waitingCount="8" stopTime="0.00" timeLoss="171.55" rerouteNo="0" devices="tripinfo_f_0_3.13" vType="type1" speedFactor="0.98" vaporized=""/>
    <tripinfo id="f_0_3.14" depart="115.00" departLane="np3_nt3_0" departPos="31.95" departSpeed="0.00" departDelay="0.45" arrival="371.00" arrivalLane="nt14_np11_0" arrivalPos="75.00" arrivalSpeed="11.80" duration="256.00" routeLength="919.14" waitingTime="137.00" waitingCount="10" stopTime="0.00" timeLoss="187.78" rerouteNo="0" devices="tripinfo_f_0_3.14" vType="type1" speedFactor="1.12" vaporized=""/>
    <tripinfo id="f_0_0.14" depart="191.00" departLane="np13_nt13_0" departPos="51.35" departSpeed="0.00" departDelay="0.10" arrival="373.00" arrivalLane="nt4_np5_0" arrivalPos="75.00" arrivalSpeed="16.36" duration="182.00" routeLength="1296.54" waitingTime="40.00" waitingCount="5" stopTime="0.00" timeLoss="76.69" rerouteNo="0" devices="tripinfo_f_0_0.14" vType="type1" speedFactor="0.86" vaporized=""/>
    <tripinfo id="f_0_3.15" depart="123.00" departLane="np3_nt3_0" departPos="6.17" departSpeed="0.00" departDelay="0.27" arrival="383.00" arrivalLane="nt14_np11_0" arrivalPos="75.00" arrivalSpeed="10.10" duration="260.00" routeLength="944.92" waitingTime="124.00" waitingCount="10" stopTime="0.00" timeLoss="175.21" rerouteNo="0" devices="tripinfo_f_0_3.15" vType="type1" speedFactor="0.94" vaporized=""/>
    <tripinfo id="f_0_0.15" depart="205.00" departLane="np13_nt13_0" departPos="55.63" departSpeed="0.00" departDelay="0.46" arrival="403.00" arrivalLane="nt4_np5_0" arrivalPos="75.00" arrivalSpeed="21.71" duration="198.00" routeLength="1292.26" waitingTime="59.00" waitingCount="6" stopTime="0.00" timeLoss="119.32" rerouteNo="0" devices="tripinfo_f_0_0.15" vType="type1" speedFactor="1.15" vaporized=""/>
    <tripinfo id="f_0_2.17" depart="140.00" departLane="np2_nt2_0" departPos="34.99" departSpeed="0.00" departDelay="0.91" arrival="407.00" arrivalLane="nt15_np10_0" arrivalPos="75.00" arrivalSpeed="9.39" duration="267.00" routeLength="916.09" waitingTime="110.00" waitingCount="8" stopTime="0.00" timeLoss="193.43" rerouteNo="0" devices="tripinfo_f_0_2.17" vType="type1" speedFactor="1.05" vaporized=""/>
    <tripinfo id="f_0_0.16" depart="219.00" departLane="np13_nt13_0" departPos="54.90" departSpeed="0.00" departDelay="0.82" arrival="413.00" arrivalLane="nt4_np5_0" arrivalPos="75.00" arrivalSpeed="16.82" duration="194.00" routeLength="1292.99" waitingTime="46.00" waitingCount="4" stopTime="0.00" timeLoss="91.55" rerouteNo="0" devices="tripinfo_f_0_0.16" vType="type1" speedFactor="0.89" vaporized=""/>
    <tripinfo id="f_0_2.18" depart="148.00" departLane="np2_nt2_0" departPos="57.17" departSpeed="0.00" departDelay="0.72" arrival="419.00" arrivalLane="nt15_np10_0" arrivalPos="75.00" arrivalSpeed="8.41" duration="271.00" routeLength="893.91" waitingTime="107.00" waitingCount="8" stopTime="0.00" timeLoss="188.87" rerouteNo="0" devices="tripinfo_f_0_2.18" vType="type1" speedFactor="0.92" vaporized=""/>
    <tripinfo id="f_0_3.16" depart="131.00" departLane="np3_nt3_0" departPos="9.66" departSpeed="0.00" departDelay="0.09" arrival="423.00" arrivalLane="nt14_np11_0" arrivalPos="75.00" arrivalSpeed="9.89" duration="292.00" routeLength="941.43" waitingTime="153.00" waitingCount="9" stopTime="0.00" timeLoss="215.25" rerouteNo="0" devices="tripinfo_f_0_3.16" vType="type1" speedFactor="1.04" vaporized=""/>
    <tripinfo id="f_0_1.7" depart="96.00" departLane="np16_nt1_0" departPos="15.56" departSpeed="0.00" departDelay="0.55" arrival="433.00" arrivalLane="nt16_np8_0" arrivalPos="75.00" arrivalSpeed="15.37" duration="337.00" routeLength="1332.32" waitingTime="146.00" waitingCount="10" stopTime="0.00" timeLoss="222.85" rerouteNo="0" devices="tripinfo_f_0_1.7" vType="type1" speedFactor="0.81" vaporized=""/>
    <tripinfo id="f_0_1.8" depart="110.00" departLane="np16_nt1_0" departPos="36.81" departSpeed="0.00" departDelay="0.91" arrival="435.00" arrivalLane="nt16_np8_0" arrivalPos="75.00" arrivalSpeed="21.36" duration="325.00" routeLength="1311.07" waitingTime="138.00" waitingCount="10" stopTime="0.00" timeLoss="243.34" rerouteNo="0" devices="tripinfo_f_0_1.8" vType="type1" speedFactor="1.11" vaporized=""/>
    <tripinfo id="f_0_3.17" depart="140.00" departLane="np3_nt3_0" departPos="14.34" departSpeed="0.00" departDelay="0.91" arrival="442.00" arrivalLane="nt14_np11_0" arrivalPos="75.00" arrivalSpeed="9.82" duration="302.00" routeLength="936.75" waitingTime="179.00" waitingCount="10" stopTime="0.00" timeLoss="227.06" rerouteNo="0" devices="tripinfo_f_0_3.17" vType="type1" speedFactor="1.05" vaporized=""/>
    <tripinfo id="f_0_1.9" depart="123.00" departLane="np16_nt1_0" departPos="28.25" departSpeed="0.00" departDelay="0.28" arrival="444.00" arrivalLane="nt16_np8_0" arrivalPos="75.00" arrivalSpeed="17.63" duration="321.00" routeLength="1319.63" waitingTime="132.00" waitingCount="12" stopTime="0.00" timeLoss="225.89" rerouteNo="0" devices="tripinfo_f_0_1.9" vType="type1" speedFactor="0.97" vaporized=""/>
    <tripinfo id="f_0_2.19" depart="156.00" departLane="np2_nt2_0" departPos="44.25" departSpeed="0.00" departDelay="0.54" arrival="449.00" arrivalLane="nt15_np10_0" arrivalPos="75.00" arrivalSpeed="11.07" duration="293.00" routeLength="906.83" waitingTime="103.00" waitingCount="12" stopTime="0.00" timeLoss="219.44" rerouteNo="0" devices="tripinfo_f_0_2.19" vType="type1" speedFactor="1.04" vaporized=""/>
    <tripinfo id="f_0_1.10" depart="137.00" departLane="np16_nt1_0" departPos="38.80" departSpeed="0.00" departDelay="0.64" arrival="450.00" arrivalLane="nt16_np8_0" arrivalPos="75.00" arrivalSpeed="20.06" duration="313.00" routeLength="1309.08" waitingTime="107.00" waitingCount="13" stopTime="0.00" timeLoss="223.43" rerouteNo="0" devices="tripinfo_f_0_1.10" vType="type1" speedFactor="1.03" vaporized=""/>
    <tripinfo id="f_0_1.11" depart="150.00" departLane="np16_nt1_0" departPos="40.78" departSpeed="0.00" departDelay="0.00" arrival="452.00" arrivalLane="nt16_np8_0" arrivalPos="75.00" arrivalSpeed="22.16" duration="302.00" routeLength="1307.10" waitingTime="107.00" waitingCount="12" stopTime="0.00" timeLoss="221.34" rerouteNo="0" devices="tripinfo_f_0_1.11" vType="type1" speedFactor="1.12" vaporized=""/>
    <tripinfo id="f_0_3.18" depart="148.00" departLane="np3_nt3_0" departPos="8.45" departSpeed="0.00" departDelay="0.72" arrival="454.00" arrivalLane="nt14_np11_0" arrivalPos="75.00" arrivalSpeed="9.31" duration="306.00" routeLength="942.64" waitingTime="166.00" waitingCount="10" stopTime="0.00" timeLoss="218.05" rerouteNo="0" devices="tripinfo_f_0_3.18" vType="type1" speedFactor="0.90" vaporized=""/>
    <tripinfo id="f_0_3.19" depart="156.00" departLane="np3_nt3_0" departPos="0.75" departSpeed="0.00" departDelay="0.54" arrival="455.00" arrivalLane="nt14_np11_0" arrivalPos="75.00" arrivalSpeed="9.92" duration="299.00" routeLength="950.34" waitingTime="159.00" waitingCount="10" stopTime="0.00" timeLoss="219.75" rerouteNo="0" devices="tripinfo_f_0_3.19" vType="type1" speedFactor="1.01" vaporized=""/>
    <tripinfo id="f_0_2.20" depart="164.00" departLane="np2_nt2_0" departPos="1.25" departSpeed="0.00" departDelay="0.36" arrival="458.00" arrivalLane="nt15_np10_0" arrivalPos="75.00" arrivalSpeed="9.28" duration="294.00" routeLength="949.83" waitingTime="96.00" waitingCount="13" stopTime="0.00" timeLoss="207.75" rerouteNo="0" devices="tripinfo_f_0_2.20" vType="type1" speedFactor="0.93" vaporized=""/>
    <tripinfo id="f_0_3.20" depart="164.00" departLane="np3_nt3_0" departPos="0.00" departSpeed="0.00" departDelay="0.36" arrival="458.00" arrivalLane="nt14_np11_0" arrivalPos="75.00" arrivalSpeed="10.38" duration="294.00" routeLength="951.09" waitingTime="143.00" waitingCount="9" stopTime="0.00" timeLoss="209.84" rerouteNo="0" devices="tripinfo_f_0_3.20" vType="type1" speedFactor="0.96" vaporized=""/>