<?xml version="1.0" encoding="UTF-8"?>

<!-- generated on 2023-08-30 12:29:53 by Eclipse SUMO libsumo Version 1.18.0
<configuration xmlns:xsi="http://www.w3.org/2001/XMLSchema-instance" xsi:noNamespaceSchemaLocation="http://sumo.dlr.de/xsd/libsumoConfiguration.xsd">

    <input>
        <net-file value="/home/stefan/RESCO/./environments/arterial4x4/arterial4x4.net.xml"/>
        <route-files value="/home/stefan/RESCO/./environments/arterial4x4/arterial4x4_31.rou.xml"/>
    </input>

    <output>
        <tripinfo-output value="/home/stefan/results/ITRPO-tr0-arterial4x4-0-drq_norm-wait_norm/tripinfo_31.xml"/>
        <tripinfo-output.write-unfinished value="true"/>
    </output>

    <processing>
        <time-to-teleport value="-1"/>
    </processing>

    <report>
        <no-warnings value="True"/>
        <no-step-log value="True"/>
    </report>

    <random_number>
        <random value="true"/>
    </random_number>

</configuration>
-->

<tripinfos xmlns:xsi="http://www.w3.org/2001/XMLSchema-instance" xsi:noNamespaceSchemaLocation="http://sumo.dlr.de/xsd/tripinfo_file.xsd">
    <tripinfo id="f_0_3.0" depart="0.00" departLane="np3_nt3_0" departPos="37.64" departSpeed="0.00" departDelay="0.00" arrival="127.00" arrivalLane="nt14_np11_0" arrivalPos="75.00" arrivalSpeed="10.16" duration="127.00" routeLength="913.45" waitingTime="32.00" waitingCount="5" stopTime="0.00" timeLoss="55.95" rerouteNo="0" devices="tripinfo_f_0_3.0" vType="type1" speedFactor="1.07" vaporized=""/>
    <tripinfo id="f_0_3.1" depart="9.00" departLane="np3_nt3_0" departPos="3.50" departSpeed="0.00" departDelay="0.82" arrival="129.00" arrivalLane="nt14_np11_0" arrivalPos="75.00" arrivalSpeed="11.28" duration="120.00" routeLength="947.59" waitingTime="19.00" waitingCount="3" stopTime="0.00" timeLoss="42.46" rerouteNo="0" devices="tripinfo_f_0_3.1" vType="type1" speedFactor="1.03" vaporized=""/>
    <tripinfo id="f_0_2.0" depart="0.00" departLane="np2_nt2_0" departPos="55.12" departSpeed="0.00" departDelay="0.00" arrival="142.00" arrivalLane="nt15_np10_0" arrivalPos="75.00" arrivalSpeed="11.11" duration="142.00" routeLength="895.96" waitingTime="46.00" waitingCount="5" stopTime="0.00" timeLoss="69.67" rerouteNo="0" devices="tripinfo_f_0_2.0" vType="type1" speedFactor="1.04" vaporized=""/>
    <tripinfo id="f_0_2.1" depart="9.00" departLane="np2_nt2_0" departPos="56.95" departSpeed="0.00" departDelay="0.82" arrival="152.00" arrivalLane="nt15_np10_0" arrivalPos="75.00" arrivalSpeed="9.42" duration="143.00" routeLength="894.13" waitingTime="50.00" waitingCount="4" stopTime="0.00" timeLoss="70.88" rerouteNo="0" devices="tripinfo_f_0_2.1" vType="type1" speedFactor="1.03" vaporized=""/>
    <tripinfo id="f_0_0.0" depart="0.00" departLane="np13_nt13_0" departPos="41.78" departSpeed="0.00" departDelay="0.00" arrival="158.00" arrivalLane="nt4_np5_0" arrivalPos="75.00" arrivalSpeed="20.14" duration="158.00" routeLength="1306.11" waitingTime="39.00" waitingCount="4" stopTime="0.00" timeLoss="73.57" rerouteNo="0" devices="tripinfo_f_0_0.0" vType="type1" speedFactor="1.08" vaporized=""/>
    <tripinfo id="f_0_1.0" depart="0.00" departLane="np16_nt1_0" departPos="19.23" departSpeed="0.00" departDelay="0.00" arrival="178.00" arrivalLane="nt16_np8_0" arrivalPos="75.00" arrivalSpeed="21.82" duration="178.00" routeLength="1328.65" waitingTime="54.00" waitingCount="6" stopTime="0.00" timeLoss="94.64" rerouteNo="0" devices="tripinfo_f_0_1.0" vType="type1" speedFactor="1.11" vaporized=""/>
    <tripinfo id="f_0_0.1" depart="14.00" departLane="np13_nt13_0" departPos="54.66" departSpeed="0.00" departDelay="0.36" arrival="203.00" arrivalLane="nt4_np5_0" arrivalPos="75.00" arrivalSpeed="18.87" duration="189.00" routeLength="1293.23" waitingTime="62.00" waitingCount="4" stopTime="0.00" timeLoss="95.45" rerouteNo="0" devices="tripinfo_f_0_0.1" vType="type1" speedFactor="0.96" vaporized=""/>
    <tripinfo id="f_0_2.2" depart="17.00" departLane="np2_nt2_0" departPos="60.64" departSpeed="0.00" departDelay="0.64" arrival="219.00" arrivalLane="nt15_np10_0" arrivalPos="75.00" arrivalSpeed="8.27" duration="202.00" routeLength="890.44" waitingTime="81.00" waitingCount="7" stopTime="0.00" timeLoss="113.55" rerouteNo="0" devices="tripinfo_f_0_2.2" vType="type1" speedFactor="0.85" vaporized=""/>
    <tripinfo id="f_0_2.3" depart="25.00" departLane="np2_nt2_0" departPos="42.17" departSpeed="0.00" departDelay="0.45" arrival="221.00" arrivalLane="nt15_np10_0" arrivalPos="75.00" arrivalSpeed="11.73" duration="196.00" routeLength="908.91" waitingTime="78.00" waitingCount="7" stopTime="0.00" timeLoss="130.02" rerouteNo="0" devices="tripinfo_f_0_2.3" vType="type1" speedFactor="1.16" vaporized=""/>
    <tripinfo id="f_0_0.2" depart="28.00" departLane="np13_nt13_0" departPos="23.67" departSpeed="0.00" departDelay="0.73" arrival="229.00" arrivalLane="nt4_np5_0" arrivalPos="75.00" arrivalSpeed="18.47" duration="201.00" routeLength="1324.22" waitingTime="72.00" waitingCount="7" stopTime="0.00" timeLoss="105.43" rerouteNo="0" devices="tripinfo_f_0_0.2" vType="type1" speedFactor="0.97" vaporized=""/>
    <tripinfo id="f_0_3.2" depart="17.00" departLane="np3_nt3_0" departPos="31.15" departSpeed="0.00" departDelay="0.64" arrival="268.00" arrivalLane="nt14_np11_0" arrivalPos="75.00" arrivalSpeed="8.94" duration="251.00" routeLength="919.94" waitingTime="145.00" waitingCount="5" stopTime="0.00" timeLoss="169.54" rerouteNo="0" devices="tripinfo_f_0_3.2" vType="type1" speedFactor="0.95" vaporized=""/>
    <tripinfo id="f_0_3.3" depart="25.00" departLane="np3_nt3_0" departPos="8.00" departSpeed="0.00" departDelay="0.45" arrival="283.00" arrivalLane="nt14_np11_0" arrivalPos="75.00" arrivalSpeed="9.71" duration="258.00" routeLength="943.09" waitingTime="152.00" waitingCount="4" stopTime="0.00" timeLoss="176.15" rerouteNo="0" devices="tripinfo_f_0_3.3" vType="type1" speedFactor="0.97" vaporized=""/>
    <tripinfo id="f_0_2.4" depart="33.00" departLane="np2_nt2_0" departPos="36.97" departSpeed="0.00" departDelay="0.27" arrival="297.00" arrivalLane="nt15_np10_0" arrivalPos="75.00" arrivalSpeed="11.17" duration="264.00" routeLength="914.11" waitingTime="147.00" waitingCount="7" stopTime="0.00" timeLoss="190.62" rerouteNo="0" devices="tripinfo_f_0_2.4" vType="type1" speedFactor="1.06" vaporized=""/>
    <tripinfo id="f_0_3.4" depart="33.00" departLane="np3_nt3_0" departPos="12.01" departSpeed="0.00" departDelay="0.27" arrival="297.00" arrivalLane="nt14_np11_0" arrivalPos="75.00" arrivalSpeed="10.79" duration="264.00" routeLength="939.08" waitingTime="151.00" waitingCount="5" stopTime="0.00" timeLoss="183.55" rerouteNo="0" devices="tripinfo_f_0_3.4" vType="type1" speedFactor="0.98" vaporized=""/>
    <tripinfo id="f_0_2.5" depart="41.00" departLane="np2_nt2_0" departPos="50.45" departSpeed="0.00" departDelay="0.09" arrival="299.00" arrivalLane="nt15_np10_0" arrivalPos="75.00" arrivalSpeed="10.64" duration="258.00" routeLength="900.63" waitingTime="140.00" waitingCount="9" stopTime="0.00" timeLoss="186.03" rerouteNo="0" devices="tripinfo_f_0_2.5" vType="type1" speedFactor="1.04" vaporized=""/>
    <tripinfo id="f_0_3.5" depart="41.00" departLane="np3_nt3_0" departPos="10.45" departSpeed="0.00" departDelay="0.09" arrival="299.00" arrivalLane="nt14_np11_0" arrivalPos="75.00" arrivalSpeed="12.17" duration="258.00" routeLength="940.64" waitingTime="153.00" waitingCount="7" stopTime="0.00" timeLoss="188.15" rerouteNo="0" devices="tripinfo_f_0_3.5" vType="type1" speedFactor="1.13" vaporized=""/>
    <tripinfo id="f_0_1.1" depart="14.00" departLane="np16_nt1_0" departPos="10.60" departSpeed="0.00" departDelay="0.36" arrival="313.00" arrivalLane="nt16_np8_0" arrivalPos="75.00" arrivalSpeed="19.40" duration="299.00" routeLength="1337.28" waitingTime="144.00" waitingCount="10" stopTime="0.00" timeLoss="210.32" rerouteNo="0" devices="tripinfo_f_0_1.1" vType="type1" speedFactor="1.05" vaporized=""/>
    <tripinfo id="f_0_0.3" depart="41.00" departLane="np13_nt13_0" departPos="30.15" departSpeed="0.00" departDelay="0.09" arrival="317.00" arrivalLane="nt4_np5_0" arrivalPos="75.00" arrivalSpeed="18.46" duration="276.00" routeLength="1317.74" waitingTime="138.00" waitingCount="6" stopTime="0.00" timeLoss="181.91" rerouteNo="0" devices="tripinfo_f_0_0.3" vType="type1" speedFactor="0.98" vaporized=""/>
    <tripinfo id="f_0_0.4" depart="55.00" departLane="np13_nt13_0" departPos="57.13" departSpeed="0.00" departDelay="0.46" arrival="327.00" arrivalLane="nt4_np5_0" arrivalPos="75.00" arrivalSpeed="17.71" duration="272.00" routeLength="1290.76" waitingTime="139.00" waitingCount="7" stopTime="0.00" timeLoss="173.97" rerouteNo="0" devices="tripinfo_f_0_0.4" vType="type1" speedFactor="0.92" vaporized=""/>
    <tripinfo id="f_0_2.6" depart="50.00" departLane="np2_nt2_0" departPos="18.44" departSpeed="0.00" departDelay="0.91" arrival="328.00" arrivalLane="nt15_np10_0" arrivalPos="75.00" arrivalSpeed="8.53" duration="278.00" routeLength="932.64" waitingTime="137.00" waitingCount="10" stopTime="0.00" timeLoss="193.80" rerouteNo="0" devices="tripinfo_f_0_2.6" vType="type1" speedFactor="0.93" vaporized=""/>
    <tripinfo id="f_0_2.7" depart="58.00" departLane="np2_nt2_0" departPos="0.77" departSpeed="0.00" departDelay="0.73" arrival="336.00" arrivalLane="nt15_np10_0" arrivalPos="75.00" arrivalSpeed="11.74" duration="278.00" routeLength="950.31" waitingTime="146.00" waitingCount="9" stopTime="0.00" timeLoss="203.91" rerouteNo="0" devices="tripinfo_f_0_2.7" vType="type1" speedFactor="1.08" vaporized=""/>
    <tripinfo id="f_0_1.2" depart="28.00" departLane="np16_nt1_0" departPos="1.28" departSpeed="0.00" departDelay="0.73" arrival="338.00" arrivalLane="nt16_np8_0" arrivalPos="75.00" arrivalSpeed="17.29" duration="310.00" routeLength="1346.60" waitingTime="150.00" waitingCount="10" stopTime="0.00" timeLoss="212.04" rerouteNo="0" devices="tripinfo_f_0_1.2" vType="type1" speedFactor="0.96" vaporized=""/>
    <tripinfo id="f_0_0.5" depart="69.00" departLane="np13_nt13_0" departPos="28.47" departSpeed="0.00" departDelay="0.82" arrival="359.00" arrivalLane="nt4_np5_0" arrivalPos="75.00" arrivalSpeed="16.23" duration="290.00" routeLength="1319.42" waitingTime="148.00" waitingCount="7" stopTime="0.00" timeLoss="189.34" rerouteNo="0" devices="tripinfo_f_0_0.5" vType="type1" speedFactor="0.92" vaporized=""/>
    <tripinfo id="f_0_0.6" depart="82.00" departLane="np13_nt13_0" departPos="56.20" departSpeed="0.00" departDelay="0.18" arrival="360.00" arrivalLane="nt4_np5_0" arrivalPos="75.00" arrivalSpeed="18.55" duration="278.00" routeLength="1291.69" waitingTime="137.00" waitingCount="11" stopTime="0.00" timeLoss="185.30" rerouteNo="0" devices="tripinfo_f_0_0.6" vType="type1" speedFactor="0.97" vaporized=""/>
    <tripinfo id="f_0_0.7" depart="96.00" departLane="np13_nt13_0" departPos="10.89" departSpeed="0.00" departDelay="0.55" arrival="378.00" arrivalLane="nt4_np5_0" arrivalPos="75.00" arrivalSpeed="17.21" duration="282.00" routeLength="1337.00" waitingTime="126.00" waitingCount="10" stopTime="0.00" timeLoss="180.67" rerouteNo="0" devices="tripinfo_f_0_0.7" vType="type1" speedFactor="0.91" vaporized=""/>
    <tripinfo id="f_0_2.8" depart="66.00" departLane="np2_nt2_0" departPos="53.65" departSpeed="0.00" departDelay="0.54" arrival="388.00" arrivalLane="nt15_np10_0" arrivalPos="75.00" arrivalSpeed="9.54" duration="322.00" routeLength="897.43" waitingTime="181.00" waitingCount="8" stopTime="0.00" timeLoss="238.07" rerouteNo="0" devices="tripinfo_f_0_2.8" vType="type1" speedFactor="0.90" vaporized=""/>
    <tripinfo id="f_0_2.9" depart="74.00" departLane="np2_nt2_0" departPos="50.60" departSpeed="0.00" departDelay="0.36" arrival="407.00" arrivalLane="nt15_np10_0" arrivalPos="75.00" arrivalSpeed="10.16" duration="333.00" routeLength="900.48" waitingTime="204.00" waitingCount="9" stopTime="0.00" timeLoss="258.38" rerouteNo="0" devices="tripinfo_f_0_2.9" vType="type1" speedFactor="1.01" vaporized=""/>
    <tripinfo id="f_0_2.10" depart="82.00" departLane="np2_nt2_0" departPos="8.18" departSpeed="0.00" departDelay="0.18" arrival="409.00" arrivalLane="nt15_np10_0" arrivalPos="75.00" arrivalSpeed="11.37" duration="327.00" routeLength="942.90" waitingTime="199.00" waitingCount="9" stopTime="0.00" timeLoss="254.86" rerouteNo="0" devices="tripinfo_f_0_2.10" vType="type1" speedFactor="1.10" vaporized=""/>
    <tripinfo id="f_0_0.8" depart="110.00" departLane="np13_nt13_0" departPos="53.92" departSpeed="0.00" departDelay="0.91" arrival="438.00" arrivalLane="nt4_np5_0" arrivalPos="75.00" arrivalSpeed="17.45" duration="328.00" routeLength="1293.97" waitingTime="176.00" waitingCount="10" stopTime="0.00" timeLoss="236.78" rerouteNo="0" devices="tripinfo_f_0_0.8" vType="type1" speedFactor="0.99" vaporized=""/>
    <tripinfo id="f_0_0.9" depart="123.00" departLane="np13_nt13_0" departPos="9.38" departSpeed="0.00" departDelay="0.28" arrival="439.00" arrivalLane="nt4_np5_0" arrivalPos="75.00" arrivalSpeed="22.71" duration="316.00" routeLength="1338.51" waitingTime="155.00" waitingCount="10" stopTime="0.00" timeLoss="238.22" rerouteNo="0" devices="tripinfo_f_0_0.9" vType="type1" speedFactor="1.19" vaporized=""/>
    <tripinfo id="f_0_0.10" depart="137.00" departLane="np13_nt13_0" departPos="9.26" departSpeed="0.00" departDelay="0.64" arrival="469.00" arrivalLane="nt4_np5_0" arrivalPos="75.00" arrivalSpeed="19.11" duration="332.00" routeLength="1338.63" waitingTime="181.00" waitingCount="8" stopTime="0.00" timeLoss="236.04" rerouteNo="0" devices="tripinfo_f_0_0.10" vType="type1" speedFactor="0.97" vaporized=""/>
    <tripinfo id="f_0_3.6" depart="50.00" departLane="np3_nt3_0" departPos="18.08" departSpeed="0.00" departDelay="0.91" arrival="472.00" arrivalLane="nt14_np11_0" arrivalPos="75.00" arrivalSpeed="9.16" duration="422.00" routeLength="933.01" waitingTime="309.00" waitingCount="8" stopTime="0.00" timeLoss="346.38" rerouteNo="0" devices="tripinfo_f_0_3.6" vType="type1" speedFactor="1.03" vaporized=""/>
    <tripinfo id="f_0_3.7" depart="58.00" departLane="np3_nt3_0" departPos="5.26" departSpeed="0.00" departDelay="0.73" arrival="474.00" arrivalLane="nt14_np11_0" arrivalPos="75.00" arrivalSpeed="9.99" duration="416.00" routeLength="945.83" waitingTime="299.00" waitingCount="8" stopTime="0.00" timeLoss="339.64" rerouteNo="0" devices="tripinfo_f_0_3.7" vType="type1" speedFactor="1.04" vaporized=""/>
    <tripinfo id="f_0_3.8" depart="66.00" departLane="np3_nt3_0" departPos="1.37" departSpeed="0.00" departDelay="0.54" arrival="476.00" arrivalLane="nt14_np11_0" arrivalPos="75.00" arrivalSpeed="11.69" duration="410.00" routeLength="949.72" waitingTime="285.00" waitingCount="9" stopTime="0.00" timeLoss="337.46" rerouteNo="0" devices="tripinfo_f_0_3.8" vType="type1" speedFactor="1.10" vaporized=""/>
    <tripinfo id="f_0_3.9" depart="74.00" departLane="np3_nt3_0" departPos="0.30" departSpeed="0.00" departDelay="0.36" arrival="478.00" arrivalLane="nt14_np11_0" arrivalPos="75.00" arrivalSpeed="11.66" duration="404.00" routeLength="950.79" waitingTime="269.00" waitingCount="9" stopTime="0.00" timeLoss="331.42" rerouteNo="0" devices="tripinfo_f_0_3.9" vType="type1" speedFactor="1.11" vaporized=""/>
    <tripinfo id="f_0_0.11" depart="150.00" departLane="np13_nt13_0" departPos="36.78" departSpeed="0.00" departDelay="0.00" arrival="489.00" arrivalLane="nt4_np5_0" arrivalPos="75.00" arrivalSpeed="15.07" duration="339.00" routeLength="1311.11" waitingTime="187.00" waitingCount="9" stopTime="0.00" timeLoss="234.67" rerouteNo="0" devices="tripinfo_f_0_0.11" vType="type1" speedFactor="0.87" vaporized=""/>
    <tripinfo id="f_0_3.10" depart="82.00" departLane="np3_nt3_0" departPos="0.00" departSpeed="0.00" departDelay="0.18" arrival="492.00" arrivalLane="nt14_np11_0" arrivalPos="75.00" arrivalSpeed="10.78" duration="410.00" routeLength="951.09" waitingTime="262.00" waitingCount="11" stopTime="0.00" timeLoss="329.39" rerouteNo="0" devices="tripinfo_f_0_3.10" vType="type1" speedFactor="0.99" vaporized=""/>
    <tripinfo id="f_0_3.11" depart="148.00" departLane="np3_nt3_0" departPos="0.65" departSpeed="0.00" departDelay="58.00" arrival="493.00" arrivalLane="nt14_np11_0" arrivalPos="75.00" arrivalSpeed="12.68" duration="345.00" routeLength="950.44" waitingTime="204.00" waitingCount="10" stopTime="0.00" timeLoss="277.30" rerouteNo="0" devices="tripinfo_f_0_3.11" vType="type1" speedFactor="1.17" vaporized=""/>
    <tripinfo id="f_0_0.12" depart="164.00" departLane="np13_nt13_0" departPos="11.06" departSpeed="0.00" departDelay="0.37" arrival="504.00" arrivalLane="nt4_np5_0" arrivalPos="75.00" arrivalSpeed="18.94" duration="340.00" routeLength="1336.83" waitingTime="197.00" waitingCount="8" stopTime="0.00" timeLoss="251.62" rerouteNo="0" devices="tripinfo_f_0_0.12" vType="type1" speedFactor="1.06" vaporized=""/>
    <tripinfo id="f_0_0.13" depart="178.00" departLane="np13_nt13_0" departPos="56.85" departSpeed="0.00" departDelay="0.73" arrival="505.00" arrivalLane="nt4_np5_0" arrivalPos="75.00" arrivalSpeed="18.20" duration="327.00" routeLength="1291.04" waitingTime="180.00" waitingCount="9" stopTime="0.00" timeLoss="230.45" rerouteNo="0" devices="tripinfo_f_0_0.13" vType="type1" speedFactor="0.94" vaporized=""/>
    <tripinfo id="f_0_0.14" depart="191.00" departLane="np13_nt13_0" departPos="42.66" departSpeed="0.00" departDelay="0.10" arrival="507.00" arrivalLane="nt4_np5_0" arrivalPos="75.00" arrivalSpeed="21.90" duration="316.00" routeLength="1305.23" waitingTime="170.00" waitingCount="11" stopTime="0.00" timeLoss="235.83" rerouteNo="0" devices="tripinfo_f_0_0.14" vType="type1" speedFactor="1.14" vaporized=""/>
    <tripinfo id="f_0_3.12" depart="192.00" departLane="np3_nt3_0" departPos="0.00" departSpeed="0.00" departDelay="93.82" arrival="518.00" arrivalLane="nt14_np11_0" arrivalPos="75.00" arrivalSpeed="9.46" duration="326.00" routeLength="951.09" waitingTime="182.00" waitingCount="10" stopTime="0.00" timeLoss="241.60" rerouteNo="0" devices="tripinfo_f_0_3.12" vType="type1" speedFactor="0.95" vaporized=""/>
    <tripinfo id="f_0_3.13" depart="196.00" departLane="np3_nt3_0" departPos="0.00" departSpeed="0.00" departDelay="89.63" arrival="520.00" arrivalLane="nt14_np11_0" arrivalPos="75.00" arrivalSpeed="10.25" duration="324.00" routeLength="951.09" waitingTime="172.00" waitingCount="12" stopTime="0.00" timeLoss="243.64" rerouteNo="0" devices="tripinfo_f_0_3.13" vType="type1" speedFactor="1.00" vaporized=""/>
    <tripinfo id="f_0_3.14" depart="204.00" departLane="np3_nt3_0" departPos="0.00" departSpeed="0.00" departDelay="89.45" arrival="526.00" arrivalLane="nt14_np11_0" arrivalPos="75.00" arrivalSpeed="10.07" duration="322.00" routeLength="951.09" waitingTime="166.00" waitingCount="9" stopTime="0.00" timeLoss="245.36" rerouteNo="0" devices="tripinfo_f_0_3.14" vType="type1" speedFactor="1.04" vaporized=""/>
    <tripinfo id="f_0_3.15" depart="308.00" departLane="np3_nt3_0" departPos="0.00" departSpeed="0.00" departDelay="185.27" arrival="530.00" arrivalLane="nt14_np11_0" arrivalPos="75.00" arrivalSpeed="10.13" duration="222.00" routeLength="951.09" waitingTime="60.00" waitingCount="8" stopTime="0.00" timeLoss="141.44" rerouteNo="0" devices="tripinfo_f_0_3.15" vType="type1" speedFactor="1.00" vaporized=""/>
    <tripinfo id="f_0_3.16" depart="318.00" departLane="np3_nt3_0" departPos="0.00" departSpeed="0.00" departDelay="187.09" arrival="597.00" arrivalLane="nt14_np11_0" arrivalPos="75.00" arrivalSpeed="10.76" duration="279.00" routeLength="951.09" waitingTime="119.00" waitingCount="9" stopTime="0.00" timeLoss="201.26" rerouteNo="0" devices="tripinfo_f_0_3.16" vType="type1" speedFactor="1.03" vaporized=""/>
    <tripinfo id="f_0_3.17" depart="327.00" departLane="np3_nt3_0" departPos="0.00" departSpeed="0.00" departDelay="187.91" arrival="599.00" arrivalLane="nt14_np11_0" arrivalPos="75.00" arrivalSpeed="11.94" duration="272.00" routeLength="951.09" waitingTime="121.00" waitingCount="9" stopTime="0.00" timeLoss="198.81" rerouteNo="0" devices="tripinfo_f_0_3.17" vType="type1" speedFactor="1.09" vaporized=""/>
    <tripinfo id="f_0_0.15" depart="205.00" departLane="np13_nt13_0" departPos="50.02" departSpeed="0.00" departDelay="0.46" arrival="613.00" arrivalLane="nt4_np5_0" arrivalPos="75.00" arrivalSpeed="20.52" duration="408.00" routeLength="1297.87" waitingTime="274.00" waitingCount="7" stopTime="0.00" timeLoss="322.32" rerouteNo="0" devices="tripinfo_f_0_0.15" vType="type1" speedFactor="1.06" vaporized=""/>
    <tripinfo id="f_0_3.18" depart="330.00" departLane="np3_nt3_0" departPos="0.00" departSpeed="0.00" departDelay="182.72" arrival="642.00" arrivalLane="nt14_np11_0" arrivalPos="75.00" arrivalSpeed="9.39" duration="312.00" routeLength="951.09" waitingTime="161.00" waitingCount="10" stopTime="0.00" timeLoss="236.43" rerouteNo="0" devices="tripinfo_f_0_3.18" vType="type1" speedFactor="1.06" vaporized=""/>
    <tripinfo id="f_0_3.19" depart="338.00" departLane="np3_nt3_0" departPos="0.00" departSpeed="0.00" departDelay="182.54" arrival="703.00" arrivalLane="nt14_np11_0" arrivalPos="75.00" arrivalSpeed="9.70" duration="365.00" routeLength="951.09" waitingTime="201.00" waitingCount="11" stopTime="0.00" timeLoss="280.97" rerouteNo="0" devices="tripinfo_f_0_3.19" vType="type1" speedFactor="0.95" vaporized=""/>
    <tripinfo id="f_0_1.3" depart="41.00" departLane="np16_nt1_0" departPos="17.46" departSpeed="0.00" departDelay="0.09" arrival="-1.00" arrivalLane="" arrivalPos="-1.00" arrivalSpeed="-1.00" duration="3559.00" routeLength="830.39" waitingTime="3427.00" waitingCount="12" stopTime="0.00" timeLoss="3491.38" rerouteNo="0" devices="tripinfo_f_0_1.3" vType="type1" speedFactor="0.87" vaporized="end"/>
    <tripinfo id="f_0_1.4" depart="55.00" departLane="np16_nt1_0" departPos="6.62" departSpeed="0.00" departDelay="0.46" arrival="-1.00" arrivalLane="" arrivalPos="-1.00" arrivalSpeed="-1.00" duration="3545.00" routeLength="833.73" waitingTime="3401.00" waitingCount="11" stopTime="0.00" timeLoss="3477.00" rerouteNo="0" devices="tripinfo_f_0_1.4" vType="type1" speedFactor="0.86" vaporized="end"/>
    <tripinfo id="f_0_1.5" depart="69.00" departLane="np16_nt1_0" departPos="7.64" departSpeed="0.00" departDelay="0.82" arrival="-1.00" arrivalLane="" arrivalPos="-1.00" arrivalSpeed="-1.00" duration="3531.00" routeLength="817.70" waitingTime="3392.00" waitingCount="10" stopTime="0.00" timeLoss="3469.18" rerouteNo="0" devices="tripinfo_f_0_1.5" vType="type1" speedFactor="0.92" vaporized="end"/>
    <tripinfo id="f_0_1.6" depart="82.00" departLane="np16_nt1_0" departPos="28.56" departSpeed="0.00" departDelay="0.18" arrival="-1.00" arrivalLane="" arrivalPos="-1.00" arrivalSpeed="-1.00" duration="3518.00" routeLength="789.29" waitingTime="3372.00" waitingCount="11" stopTime="0.00" timeLoss="3463.27" rerouteNo="0" devices="tripinfo_f_0_1.6" vType="type1" speedFactor="1.01" vaporized="end"/>
    <tripinfo id="f_0_2.11" depart="90.00" departLane="np2_nt2_0" departPos="40.62" departSpeed="0.00" departDelay="0.00" arrival="-1.00" arrivalLane="" arrivalPos="-1.00" arrivalSpeed="-1.00" duration="3510.00" routeLength="613.66" waitingTime="3412.00" waitingCount="9" stopTime="0.00" timeLoss="3456.27" rerouteNo="0" devices="tripinfo_f_0_2.11" vType="type1" speedFactor="0.94" vaporized="end"/>
    <tripinfo id="f_0_1.7" depart="96.00" departLane="np16_nt1_0" departPos="41.21" departSpeed="0.00" departDelay="0.55" arrival="-1.00" arrivalLane="" arrivalPos="-1.00" arrivalSpeed="-1.00" duration="3504.00" routeLength="769.13" waitingTime="3357.00" waitingCount="10" stopTime="0.00" timeLoss="3454.57" rerouteNo="0" devices="tripinfo_f_0_1.7" vType="type1" speedFactor="1.09" vaporized="end"/>
    <tripinfo id="f_0_2.12" depart="99.00" departLane="np2_nt2_0" departPos="21.69" departSpeed="0.00" departDelay="0.82" arrival="-1.00" arrivalLane="" arrivalPos="-1.00" arrivalSpeed="-1.00" duration="3501.00" routeLength="625.09" waitingTime="3385.00" waitingCount="10" stopTime="0.00" timeLoss="3443.11" rerouteNo="0" devices="tripinfo_f_0_2.12" vType="type1" speedFactor="0.87" vaporized="end"/>
    <tripinfo id="f_0_2.13" depart="107.00" departLane="np2_nt2_0" departPos="21.20" departSpeed="0.00" departDelay="0.63" arrival="-1.00" arrivalLane="" arrivalPos="-1.00" arrivalSpeed="-1.00" duration="3493.00" routeLength="603.07" waitingTime="3379.00" waitingCount="9" stopTime="0.00" timeLoss="3450.16" rerouteNo="0" devices="tripinfo_f_0_2.13" vType="type1" speedFactor="1.16" vaporized="end"/>
    <tripinfo id="f_0_1.8" depart="110.00" departLane="np16_nt1_0" departPos="65.38" departSpeed="0.00" departDelay="0.91" arrival="-1.00" arrivalLane="" arrivalPos="-1.00" arrivalSpeed="-1.00" duration="3490.00" routeLength="737.46" waitingTime="3357.00" waitingCount="7" stopTime="0.00" timeLoss="3434.95" rerouteNo="0" devices="tripinfo_f_0_1.8" vType="type1" speedFactor="0.95" vaporized="end"/>
    <tripinfo id="f_0_2.14" depart="115.00" departLane="np2_nt2_0" departPos="35.25" departSpeed="0.00" departDelay="0.45" arrival="-1.00" arrivalLane="" arrivalPos="-1.00" arrivalSpeed="-1.00" duration="3485.00" routeLength="551.52" waitingTime="3356.00" waitingCount="8" stopTime="0.00" timeLoss="3441.85" rerouteNo="0" devices="tripinfo_f_0_2.14" vType="type1" speedFactor="1.02" vaporized="end"/>
    <tripinfo id="f_0_1.9" depart="123.00" departLane="np16_nt1_0" departPos="49.96" departSpeed="0.00" departDelay="0.28" arrival="-1.00" arrivalLane="" arrivalPos="-1.00" arrivalSpeed="-1.00" duration="3477.00" routeLength="715.38" waitingTime="3338.00" waitingCount="13" stopTime="0.00" timeLoss="3428.26" rerouteNo="0" devices="tripinfo_f_0_1.9" vType="type1" speedFactor="1.01" vaporized="end"/>
    <tripinfo id="f_0_2.15" depart="123.00" departLane="np2_nt2_0" departPos="13.47" departSpeed="0.00" departDelay="0.27" arrival="-1.00" arrivalLane="" arrivalPos="-1.00" arrivalSpeed="-1.00" duration="3477.00" routeLength="565.80" waitingTime="3350.00" waitingCount="8" stopTime="0.00" timeLoss="3429.37" rerouteNo="0" devices="tripinfo_f_0_2.15" vType="type1" speedFactor="0.96" vaporized="end"/>
    <tripinfo id="f_0_2.16" depart="131.00" departLane="np2_nt2_0" departPos="23.88" departSpeed="0.00" departDelay="0.09" arrival="-1.00" arrivalLane="" arrivalPos="-1.00" arrivalSpeed="-1.00" duration="3469.00" routeLength="547.89" waitingTime="3351.00" waitingCount="8" stopTime="0.00" timeLoss="3425.50" rerouteNo="0" devices="tripinfo_f_0_2.16" vType="type1" speedFactor="1.01" vaporized="end"/>
    <tripinfo id="f_0_1.10" depart="137.00" departLane="np16_nt1_0" departPos="56.71" departSpeed="0.00" departDelay="0.64" arrival="-1.00" arrivalLane="" arrivalPos="-1.00" arrivalSpeed="-1.00" duration="3463.00" routeLength="701.12" waitingTime="3319.00" waitingCount="12" stopTime="0.00" timeLoss="3420.15" rerouteNo="0" devices="tripinfo_f_0_1.10" vType="type1" speedFactor="1.13" vaporized="end"/>
    <tripinfo id="f_0_2.17" depart="140.00" departLane="np2_nt2_0" departPos="58.88" departSpeed="0.00" departDelay="0.91" arrival="-1.00" arrivalLane="" arrivalPos="-1.00" arrivalSpeed="-1.00" duration="3460.00" routeLength="505.39" waitingTime="3345.00" waitingCount="10" stopTime="0.00" timeLoss="3424.11" rerouteNo="0" devices="tripinfo_f_0_2.17" vType="type1" speedFactor="1.12" vaporized="end"/>
    <tripinfo id="f_0_2.18" depart="148.00" departLane="np2_nt2_0" departPos="49.22" departSpeed="0.00" departDelay="0.72" arrival="-1.00" arrivalLane="" arrivalPos="-1.00" arrivalSpeed="-1.00" duration="3452.00" routeLength="492.54" waitingTime="3307.00" waitingCount="12" stopTime="0.00" timeLoss="3401.35" rerouteNo="0" devices="tripinfo_f_0_2.18" vType="type1" speedFactor="0.77" vaporized="end"/>
    <tripinfo id="f_0_1.11" depart="150.00" departLane="np16_nt1_0" departPos="25.93" departSpeed="0.00" departDelay="0.00" arrival="-1.00" arrivalLane="" arrivalPos="-1.00" arrivalSpeed="-1.00" duration="3450.00" routeLength="441.23" waitingTime="3361.00" waitingCount="9" stopTime="0.00" timeLoss="3426.59" rerouteNo="0" devices="tripinfo_f_0_1.11" vType="type1" speedFactor="0.98" vaporized="end"/>
    <tripinfo id="f_0_2.19" depart="156.00" departLane="np2_nt2_0" departPos="4.11" departSpeed="0.00" departDelay="0.54" arrival="-1.00" arrivalLane="" arrivalPos="-1.00" arrivalSpeed="-1.00" duration="3444.00" routeLength="530.16" waitingTime="3328.00" waitingCount="10" stopTime="0.00" timeLoss="3401.89" rerouteNo="0" devices="tripinfo_f_0_2.19" vType="type1" speedFactor="1.00" vaporized="end"/>
    <tripinfo id="f_0_1.12" depart="164.00" departLane="np16_nt1_0" departPos="62.59" departSpeed="0.00" departDelay="0.37" arrival="-1.00" arrivalLane="" arrivalPos="-1.00" arrivalSpeed="-1.00" duration="3436.00" routeLength="364.19" waitingTime="3364.00" waitingCount="9" stopTime="0.00" timeLoss="3417.22" rerouteNo="0" devices="tripinfo_f_0_1.12" vType="type1" speedFactor="1.02" vaporized="end"/>
    <tripinfo id="f_0_2.20" depart="164.00" departLane="np2_nt2_0" departPos="23.84" departSpeed="0.00" departDelay="0.36" arrival="-1.00" arrivalLane="" arrivalPos="-1.00" arrivalSpeed="-1.00" duration="3436.00" routeLength="502.92" waitingTime="3321.00" waitingCount="11" stopTime="0.00" timeLoss="3396.31" rerouteNo="0" devices="tripinfo_f_0_2.20" vType="type1" speedFactor="1.00" vaporized="end"/>
    <tripinfo id="f_0_3.20" depart="352.00" departLane="np3_nt3_0" departPos="0.00" departSpeed="0.00" departDelay="188.36" arrival="-1.00" arrivalLane="" arrivalPos="-1.00" arrivalSpeed="-1.00" duration="3248.00" routeLength="854.69" waitingTime="3102.00" waitingCount="13" stopTime="0.00" timeLoss="3179.17" rerouteNo="0" devices="tripinfo_f_0_3.20" vType="type1" speedFactor="1.05" vaporized="end"/>