<?xml version="1.0" encoding="UTF-8"?>

<!-- generated on 2023-08-30 12:52:48 by Eclipse SUMO libsumo Version 1.18.0
<configuration xmlns:xsi="http://www.w3.org/2001/XMLSchema-instance" xsi:noNamespaceSchemaLocation="http://sumo.dlr.de/xsd/libsumoConfiguration.xsd">

    <input>
        <net-file value="/home/stefan/RESCO/./environments/arterial4x4/arterial4x4.net.xml"/>
        <route-files value="/home/stefan/RESCO/./environments/arterial4x4/arterial4x4_96.rou.xml"/>
    </input>

    <output>
        <tripinfo-output value="/home/stefan/results/ITRPO-tr0-arterial4x4-0-drq_norm-wait_norm/tripinfo_96.xml"/>
        <tripinfo-output.write-unfinished value="true"/>
    </output>

    <processing>
        <time-to-teleport value="-1"/>
    </processing>

    <report>
        <no-warnings value="True"/>
        <no-step-log value="True"/>
    </report>

    <random_number>
        <random value="true"/>
    </random_number>

</configuration>
-->

<tripinfos xmlns:xsi="http://www.w3.org/2001/XMLSchema-instance" xsi:noNamespaceSchemaLocation="http://sumo.dlr.de/xsd/tripinfo_file.xsd">
    <tripinfo id="f_0_3.0" depart="0.00" departLane="np3_nt3_0" departPos="59.91" departSpeed="0.00" departDelay="0.00" arrival="111.00" arrivalLane="nt14_np11_0" arrivalPos="75.00" arrivalSpeed="10.79" duration="111.00" routeLength="891.18" waitingTime="28.00" waitingCount="2" stopTime="0.00" timeLoss="46.03" rerouteNo="0" devices="tripinfo_f_0_3.0" vType="type1" speedFactor="1.15" vaporized=""/>
    <tripinfo id="f_0_2.0" depart="0.00" departLane="np2_nt2_0" departPos="56.85" departSpeed="0.00" departDelay="0.00" arrival="137.00" arrivalLane="nt15_np10_0" arrivalPos="75.00" arrivalSpeed="8.54" duration="137.00" routeLength="894.23" waitingTime="40.00" waitingCount="4" stopTime="0.00" timeLoss="60.51" rerouteNo="0" devices="tripinfo_f_0_2.0" vType="type1" speedFactor="0.98" vaporized=""/>
    <tripinfo id="f_0_1.0" depart="0.00" departLane="np16_nt1_0" departPos="33.44" departSpeed="0.00" departDelay="0.00" arrival="145.00" arrivalLane="nt16_np8_0" arrivalPos="75.00" arrivalSpeed="21.18" duration="145.00" routeLength="1314.44" waitingTime="26.00" waitingCount="4" stopTime="0.00" timeLoss="65.58" rerouteNo="0" devices="tripinfo_f_0_1.0" vType="type1" speedFactor="1.17" vaporized=""/>
    <tripinfo id="f_0_2.1" depart="9.00" departLane="np2_nt2_0" departPos="5.82" departSpeed="0.00" departDelay="0.82" arrival="158.00" arrivalLane="nt15_np10_0" arrivalPos="75.00" arrivalSpeed="10.37" duration="149.00" routeLength="945.26" waitingTime="41.00" waitingCount="4" stopTime="0.00" timeLoss="68.17" rerouteNo="0" devices="tripinfo_f_0_2.1" vType="type1" speedFactor="0.99" vaporized=""/>
    <tripinfo id="f_0_3.1" depart="9.00" departLane="np3_nt3_0" departPos="47.81" departSpeed="0.00" departDelay="0.82" arrival="158.00" arrivalLane="nt14_np11_0" arrivalPos="75.00" arrivalSpeed="9.49" duration="149.00" routeLength="903.28" waitingTime="35.00" waitingCount="5" stopTime="0.00" timeLoss="66.35" rerouteNo="0" devices="tripinfo_f_0_3.1" vType="type1" speedFactor="0.92" vaporized=""/>
    <tripinfo id="f_0_2.2" depart="17.00" departLane="np2_nt2_0" departPos="5.54" departSpeed="0.00" departDelay="0.64" arrival="160.00" arrivalLane="nt15_np10_0" arrivalPos="75.00" arrivalSpeed="9.30" duration="143.00" routeLength="945.54" waitingTime="39.00" waitingCount="4" stopTime="0.00" timeLoss="67.14" rerouteNo="0" devices="tripinfo_f_0_2.2" vType="type1" speedFactor="1.05" vaporized=""/>
    <tripinfo id="f_0_2.3" depart="25.00" departLane="np2_nt2_0" departPos="8.86" departSpeed="0.00" departDelay="0.45" arrival="163.00" arrivalLane="nt15_np10_0" arrivalPos="75.00" arrivalSpeed="9.58" duration="138.00" routeLength="942.22" waitingTime="19.00" waitingCount="5" stopTime="0.00" timeLoss="50.87" rerouteNo="0" devices="tripinfo_f_0_2.3" vType="type1" speedFactor="0.91" vaporized=""/>
    <tripinfo id="f_0_3.2" depart="17.00" departLane="np3_nt3_0" departPos="31.92" departSpeed="0.00" departDelay="0.64" arrival="167.00" arrivalLane="nt14_np11_0" arrivalPos="75.00" arrivalSpeed="11.13" duration="150.00" routeLength="919.17" waitingTime="27.00" waitingCount="6" stopTime="0.00" timeLoss="76.94" rerouteNo="0" devices="tripinfo_f_0_3.2" vType="type1" speedFactor="1.06" vaporized=""/>
    <tripinfo id="f_0_2.4" depart="33.00" departLane="np2_nt2_0" departPos="7.72" departSpeed="0.00" departDelay="0.27" arrival="171.00" arrivalLane="nt15_np10_0" arrivalPos="75.00" arrivalSpeed="10.75" duration="138.00" routeLength="943.36" waitingTime="26.00" waitingCount="3" stopTime="0.00" timeLoss="62.80" rerouteNo="0" devices="tripinfo_f_0_2.4" vType="type1" speedFactor="1.05" vaporized=""/>
    <tripinfo id="f_0_2.5" depart="41.00" departLane="np2_nt2_0" departPos="17.01" departSpeed="0.00" departDelay="0.09" arrival="193.00" arrivalLane="nt15_np10_0" arrivalPos="75.00" arrivalSpeed="9.69" duration="152.00" routeLength="934.07" waitingTime="38.00" waitingCount="4" stopTime="0.00" timeLoss="69.45" rerouteNo="0" devices="tripinfo_f_0_2.5" vType="type1" speedFactor="0.96" vaporized=""/>
    <tripinfo id="f_0_0.0" depart="0.00" departLane="np13_nt13_0" departPos="2.01" departSpeed="0.00" departDelay="0.00" arrival="201.00" arrivalLane="nt4_np5_0" arrivalPos="75.00" arrivalSpeed="16.69" duration="201.00" routeLength="1345.88" waitingTime="69.00" waitingCount="5" stopTime="0.00" timeLoss="103.44" rerouteNo="0" devices="tripinfo_f_0_0.0" vType="type1" speedFactor="0.95" vaporized=""/>
    <tripinfo id="f_0_2.6" depart="50.00" departLane="np2_nt2_0" departPos="35.64" departSpeed="0.00" departDelay="0.91" arrival="201.00" arrivalLane="nt15_np10_0" arrivalPos="75.00" arrivalSpeed="11.40" duration="151.00" routeLength="915.44" waitingTime="42.00" waitingCount="3" stopTime="0.00" timeLoss="82.83" rerouteNo="0" devices="tripinfo_f_0_2.6" vType="type1" speedFactor="1.13" vaporized=""/>
    <tripinfo id="f_0_0.1" depart="14.00" departLane="np13_nt13_0" departPos="31.98" departSpeed="0.00" departDelay="0.36" arrival="204.00" arrivalLane="nt4_np5_0" arrivalPos="75.00" arrivalSpeed="17.09" duration="190.00" routeLength="1315.91" waitingTime="50.00" waitingCount="5" stopTime="0.00" timeLoss="90.18" rerouteNo="0" devices="tripinfo_f_0_0.1" vType="type1" speedFactor="0.91" vaporized=""/>
    <tripinfo id="f_0_3.3" depart="25.00" departLane="np3_nt3_0" departPos="6.32" departSpeed="0.00" departDelay="0.45" arrival="212.00" arrivalLane="nt14_np11_0" arrivalPos="75.00" arrivalSpeed="9.21" duration="187.00" routeLength="944.77" waitingTime="77.00" waitingCount="5" stopTime="0.00" timeLoss="111.25" rerouteNo="0" devices="tripinfo_f_0_3.3" vType="type1" speedFactor="1.05" vaporized=""/>
    <tripinfo id="f_0_0.2" depart="28.00" departLane="np13_nt13_0" departPos="15.79" departSpeed="0.00" departDelay="0.73" arrival="214.00" arrivalLane="nt4_np5_0" arrivalPos="75.00" arrivalSpeed="20.51" duration="186.00" routeLength="1332.10" waitingTime="41.00" waitingCount="6" stopTime="0.00" timeLoss="96.57" rerouteNo="0" devices="tripinfo_f_0_0.2" vType="type1" speedFactor="1.04" vaporized=""/>
    <tripinfo id="f_0_1.1" depart="14.00" departLane="np16_nt1_0" departPos="28.45" departSpeed="0.00" departDelay="0.36" arrival="223.00" arrivalLane="nt16_np8_0" arrivalPos="75.00" arrivalSpeed="21.95" duration="209.00" routeLength="1319.43" waitingTime="72.00" waitingCount="5" stopTime="0.00" timeLoss="132.78" rerouteNo="0" devices="tripinfo_f_0_1.1" vType="type1" speedFactor="1.21" vaporized=""/>
    <tripinfo id="f_0_2.7" depart="58.00" departLane="np2_nt2_0" departPos="12.83" departSpeed="0.00" departDelay="0.73" arrival="225.00" arrivalLane="nt15_np10_0" arrivalPos="75.00" arrivalSpeed="9.17" duration="167.00" routeLength="938.25" waitingTime="43.00" waitingCount="4" stopTime="0.00" timeLoss="82.78" rerouteNo="0" devices="tripinfo_f_0_2.7" vType="type1" speedFactor="0.93" vaporized=""/>
    <tripinfo id="f_0_1.2" depart="28.00" departLane="np16_nt1_0" departPos="62.06" departSpeed="0.00" departDelay="0.73" arrival="226.00" arrivalLane="nt16_np8_0" arrivalPos="75.00" arrivalSpeed="15.21" duration="198.00" routeLength="1285.82" waitingTime="46.00" waitingCount="6" stopTime="0.00" timeLoss="94.77" rerouteNo="0" devices="tripinfo_f_0_1.2" vType="type1" speedFactor="0.87" vaporized=""/>
    <tripinfo id="f_0_3.4" depart="33.00" departLane="np3_nt3_0" departPos="11.87" departSpeed="0.00" departDelay="0.27" arrival="226.00" arrivalLane="nt14_np11_0" arrivalPos="75.00" arrivalSpeed="10.12" duration="193.00" routeLength="939.22" waitingTime="87.00" waitingCount="6" stopTime="0.00" timeLoss="121.03" rerouteNo="0" devices="tripinfo_f_0_3.4" vType="type1" speedFactor="1.09" vaporized=""/>
    <tripinfo id="f_0_2.8" depart="66.00" departLane="np2_nt2_0" departPos="21.22" departSpeed="0.00" departDelay="0.54" arrival="227.00" arrivalLane="nt15_np10_0" arrivalPos="75.00" arrivalSpeed="10.20" duration="161.00" routeLength="929.86" waitingTime="42.00" waitingCount="6" stopTime="0.00" timeLoss="81.59" rerouteNo="0" devices="tripinfo_f_0_2.8" vType="type1" speedFactor="0.99" vaporized=""/>
    <tripinfo id="f_0_2.9" depart="74.00" departLane="np2_nt2_0" departPos="12.49" departSpeed="0.00" departDelay="0.36" arrival="229.00" arrivalLane="nt15_np10_0" arrivalPos="75.00" arrivalSpeed="10.32" duration="155.00" routeLength="938.59" waitingTime="34.00" waitingCount="6" stopTime="0.00" timeLoss="75.65" rerouteNo="0" devices="tripinfo_f_0_2.9" vType="type1" speedFactor="1.00" vaporized=""/>
    <tripinfo id="f_0_0.3" depart="41.00" departLane="np13_nt13_0" departPos="48.73" departSpeed="0.00" departDelay="0.09" arrival="244.00" arrivalLane="nt4_np5_0" arrivalPos="75.00" arrivalSpeed="15.59" duration="203.00" routeLength="1299.16" waitingTime="58.00" waitingCount="7" stopTime="0.00" timeLoss="101.14" rerouteNo="0" devices="tripinfo_f_0_0.3" vType="type1" speedFactor="0.89" vaporized=""/>
    <tripinfo id="f_0_3.5" depart="41.00" departLane="np3_nt3_0" departPos="39.58" departSpeed="0.00" departDelay="0.09" arrival="246.00" arrivalLane="nt14_np11_0" arrivalPos="75.00" arrivalSpeed="11.34" duration="205.00" routeLength="911.51" waitingTime="100.00" waitingCount="8" stopTime="0.00" timeLoss="136.89" rerouteNo="0" devices="tripinfo_f_0_3.5" vType="type1" speedFactor="1.12" vaporized=""/>
    <tripinfo id="f_0_3.6" depart="50.00" departLane="np3_nt3_0" departPos="2.73" departSpeed="0.00" departDelay="0.91" arrival="249.00" arrivalLane="nt14_np11_0" arrivalPos="75.00" arrivalSpeed="9.89" duration="199.00" routeLength="948.36" waitingTime="89.00" waitingCount="6" stopTime="0.00" timeLoss="119.70" rerouteNo="0" devices="tripinfo_f_0_3.6" vType="type1" speedFactor="1.00" vaporized=""/>
    <tripinfo id="f_0_3.7" depart="58.00" departLane="np3_nt3_0" departPos="2.86" departSpeed="0.00" departDelay="0.73" arrival="278.00" arrivalLane="nt14_np11_0" arrivalPos="75.00" arrivalSpeed="9.56" duration="220.00" routeLength="948.23" waitingTime="102.00" waitingCount="6" stopTime="0.00" timeLoss="138.53" rerouteNo="0" devices="tripinfo_f_0_3.7" vType="type1" speedFactor="0.98" vaporized=""/>
    <tripinfo id="f_0_1.3" depart="41.00" departLane="np16_nt1_0" departPos="15.60" departSpeed="0.00" departDelay="0.09" arrival="279.00" arrivalLane="nt16_np8_0" arrivalPos="75.00" arrivalSpeed="14.22" duration="238.00" routeLength="1332.28" waitingTime="79.00" waitingCount="7" stopTime="0.00" timeLoss="123.78" rerouteNo="0" devices="tripinfo_f_0_1.3" vType="type1" speedFactor="0.81" vaporized=""/>
    <tripinfo id="f_0_1.4" depart="55.00" departLane="np16_nt1_0" departPos="48.79" departSpeed="0.00" departDelay="0.46" arrival="281.00" arrivalLane="nt16_np8_0" arrivalPos="75.00" arrivalSpeed="14.99" duration="226.00" routeLength="1299.09" waitingTime="74.00" waitingCount="4" stopTime="0.00" timeLoss="118.15" rerouteNo="0" devices="tripinfo_f_0_1.4" vType="type1" speedFactor="0.85" vaporized=""/>
    <tripinfo id="f_0_0.4" depart="55.00" departLane="np13_nt13_0" departPos="63.61" departSpeed="0.00" departDelay="0.46" arrival="293.00" arrivalLane="nt4_np5_0" arrivalPos="75.00" arrivalSpeed="18.67" duration="238.00" routeLength="1284.28" waitingTime="100.00" waitingCount="8" stopTime="0.00" timeLoss="150.59" rerouteNo="0" devices="tripinfo_f_0_0.4" vType="type1" speedFactor="1.02" vaporized=""/>
    <tripinfo id="f_0_3.8" depart="66.00" departLane="np3_nt3_0" departPos="18.84" departSpeed="0.00" departDelay="0.54" arrival="294.00" arrivalLane="nt14_np11_0" arrivalPos="75.00" arrivalSpeed="8.55" duration="228.00" routeLength="932.25" waitingTime="103.00" waitingCount="5" stopTime="0.00" timeLoss="138.08" rerouteNo="0" devices="tripinfo_f_0_3.8" vType="type1" speedFactor="0.87" vaporized=""/>
    <tripinfo id="f_0_3.9" depart="74.00" departLane="np3_nt3_0" departPos="11.03" departSpeed="0.00" departDelay="0.36" arrival="296.00" arrivalLane="nt14_np11_0" arrivalPos="75.00" arrivalSpeed="9.56" duration="222.00" routeLength="940.06" waitingTime="99.00" waitingCount="5" stopTime="0.00" timeLoss="148.78" rerouteNo="0" devices="tripinfo_f_0_3.9" vType="type1" speedFactor="1.09" vaporized=""/>
    <tripinfo id="f_0_2.10" depart="82.00" departLane="np2_nt2_0" departPos="24.03" departSpeed="0.00" departDelay="0.18" arrival="306.00" arrivalLane="nt15_np10_0" arrivalPos="75.00" arrivalSpeed="7.77" duration="224.00" routeLength="927.05" waitingTime="75.00" waitingCount="7" stopTime="0.00" timeLoss="118.38" rerouteNo="0" devices="tripinfo_f_0_2.10" vType="type1" speedFactor="0.74" vaporized=""/>
    <tripinfo id="f_0_0.5" depart="69.00" departLane="np13_nt13_0" departPos="40.99" departSpeed="0.00" departDelay="0.82" arrival="308.00" arrivalLane="nt4_np5_0" arrivalPos="75.00" arrivalSpeed="16.37" duration="239.00" routeLength="1306.90" waitingTime="99.00" waitingCount="8" stopTime="0.00" timeLoss="136.42" rerouteNo="0" devices="tripinfo_f_0_0.5" vType="type1" speedFactor="0.89" vaporized=""/>
    <tripinfo id="f_0_2.11" depart="90.00" departLane="np2_nt2_0" departPos="43.91" departSpeed="0.00" departDelay="0.00" arrival="308.00" arrivalLane="nt15_np10_0" arrivalPos="75.00" arrivalSpeed="7.86" duration="218.00" routeLength="907.17" waitingTime="70.00" waitingCount="6" stopTime="0.00" timeLoss="125.53" rerouteNo="0" devices="tripinfo_f_0_2.11" vType="type1" speedFactor="0.83" vaporized=""/>
    <tripinfo id="f_0_1.5" depart="69.00" departLane="np16_nt1_0" departPos="54.62" departSpeed="0.00" departDelay="0.82" arrival="318.00" arrivalLane="nt16_np8_0" arrivalPos="75.00" arrivalSpeed="19.62" duration="249.00" routeLength="1293.26" waitingTime="84.00" waitingCount="8" stopTime="0.00" timeLoss="164.47" rerouteNo="0" devices="tripinfo_f_0_1.5" vType="type1" speedFactor="1.07" vaporized=""/>
    <tripinfo id="f_0_1.6" depart="82.00" departLane="np16_nt1_0" departPos="45.17" departSpeed="0.00" departDelay="0.18" arrival="320.00" arrivalLane="nt16_np8_0" arrivalPos="75.00" arrivalSpeed="19.68" duration="238.00" routeLength="1302.71" waitingTime="68.00" waitingCount="8" stopTime="0.00" timeLoss="153.93" rerouteNo="0" devices="tripinfo_f_0_1.6" vType="type1" speedFactor="1.09" vaporized=""/>
    <tripinfo id="f_0_0.6" depart="82.00" departLane="np13_nt13_0" departPos="58.23" departSpeed="0.00" departDelay="0.18" arrival="329.00" arrivalLane="nt4_np5_0" arrivalPos="75.00" arrivalSpeed="16.94" duration="247.00" routeLength="1289.66" waitingTime="111.00" waitingCount="9" stopTime="0.00" timeLoss="153.45" rerouteNo="0" devices="tripinfo_f_0_0.6" vType="type1" speedFactor="0.96" vaporized=""/>
    <tripinfo id="f_0_0.7" depart="96.00" departLane="np13_nt13_0" departPos="29.25" departSpeed="0.00" departDelay="0.55" arrival="338.00" arrivalLane="nt4_np5_0" arrivalPos="75.00" arrivalSpeed="19.29" duration="242.00" routeLength="1318.64" waitingTime="98.00" waitingCount="8" stopTime="0.00" timeLoss="150.43" rerouteNo="0" devices="tripinfo_f_0_0.7" vType="type1" speedFactor="1.01" vaporized=""/>
    <tripinfo id="f_0_0.8" depart="110.00" departLane="np13_nt13_0" departPos="61.40" departSpeed="0.00" departDelay="0.91" arrival="339.00" arrivalLane="nt4_np5_0" arrivalPos="75.00" arrivalSpeed="18.38" duration="229.00" routeLength="1286.49" waitingTime="84.00" waitingCount="9" stopTime="0.00" timeLoss="142.31" rerouteNo="0" devices="tripinfo_f_0_0.8" vType="type1" speedFactor="1.03" vaporized=""/>
    <tripinfo id="f_0_2.12" depart="99.00" departLane="np2_nt2_0" departPos="26.43" departSpeed="0.00" departDelay="0.82" arrival="347.00" arrivalLane="nt15_np10_0" arrivalPos="75.00" arrivalSpeed="11.05" duration="248.00" routeLength="924.65" waitingTime="93.00" waitingCount="10" stopTime="0.00" timeLoss="172.86" rerouteNo="0" devices="tripinfo_f_0_2.12" vType="type1" speedFactor="1.03" vaporized=""/>
    <tripinfo id="f_0_0.9" depart="123.00" departLane="np13_nt13_0" departPos="31.22" departSpeed="0.00" departDelay="0.28" arrival="348.00" arrivalLane="nt4_np5_0" arrivalPos="75.00" arrivalSpeed="18.98" duration="225.00" routeLength="1316.67" waitingTime="72.00" waitingCount="9" stopTime="0.00" timeLoss="135.46" rerouteNo="0" devices="tripinfo_f_0_0.9" vType="type1" speedFactor="1.02" vaporized=""/>
    <tripinfo id="f_0_0.10" depart="137.00" departLane="np13_nt13_0" departPos="6.19" departSpeed="0.00" departDelay="0.64" arrival="350.00" arrivalLane="nt4_np5_0" arrivalPos="75.00" arrivalSpeed="18.41" duration="213.00" routeLength="1341.70" waitingTime="70.00" waitingCount="5" stopTime="0.00" timeLoss="122.55" rerouteNo="0" devices="tripinfo_f_0_0.10" vType="type1" speedFactor="1.03" vaporized=""/>
    <tripinfo id="f_0_2.13" depart="107.00" departLane="np2_nt2_0" departPos="5.28" departSpeed="0.00" departDelay="0.63" arrival="351.00" arrivalLane="nt15_np10_0" arrivalPos="75.00" arrivalSpeed="7.48" duration="244.00" routeLength="945.80" waitingTime="77.00" waitingCount="8" stopTime="0.00" timeLoss="151.67" rerouteNo="0" devices="tripinfo_f_0_2.13" vType="type1" speedFactor="0.86" vaporized=""/>
    <tripinfo id="f_0_3.10" depart="82.00" departLane="np3_nt3_0" departPos="17.91" departSpeed="0.00" departDelay="0.18" arrival="353.00" arrivalLane="nt14_np11_0" arrivalPos="75.00" arrivalSpeed="9.83" duration="271.00" routeLength="933.18" waitingTime="150.00" waitingCount="6" stopTime="0.00" timeLoss="187.35" rerouteNo="0" devices="tripinfo_f_0_3.10" vType="type1" speedFactor="0.94" vaporized=""/>
    <tripinfo id="f_0_3.11" depart="90.00" departLane="np3_nt3_0" departPos="0.05" departSpeed="0.00" departDelay="0.00" arrival="363.00" arrivalLane="nt14_np11_0" arrivalPos="75.00" arrivalSpeed="7.99" duration="273.00" routeLength="951.04" waitingTime="141.00" waitingCount="8" stopTime="0.00" timeLoss="186.67" rerouteNo="0" devices="tripinfo_f_0_3.11" vType="type1" speedFactor="0.93" vaporized=""/>
    <tripinfo id="f_0_3.12" depart="99.00" departLane="np3_nt3_0" departPos="2.52" departSpeed="0.00" departDelay="0.82" arrival="366.00" arrivalLane="nt14_np11_0" arrivalPos="75.00" arrivalSpeed="8.17" duration="267.00" routeLength="948.57" waitingTime="123.00" waitingCount="8" stopTime="0.00" timeLoss="172.90" rerouteNo="0" devices="tripinfo_f_0_3.12" vType="type1" speedFactor="0.85" vaporized=""/>
    <tripinfo id="f_0_2.14" depart="115.00" departLane="np2_nt2_0" departPos="24.44" departSpeed="0.00" departDelay="0.45" arrival="366.00" arrivalLane="nt15_np10_0" arrivalPos="75.00" arrivalSpeed="11.99" duration="251.00" routeLength="926.64" waitingTime="114.00" waitingCount="8" stopTime="0.00" timeLoss="181.51" rerouteNo="0" devices="tripinfo_f_0_2.14" vType="type1" speedFactor="1.12" vaporized=""/>
    <tripinfo id="f_0_2.15" depart="123.00" departLane="np2_nt2_0" departPos="33.90" departSpeed="0.00" departDelay="0.27" arrival="368.00" arrivalLane="nt15_np10_0" arrivalPos="75.00" arrivalSpeed="10.87" duration="245.00" routeLength="917.18" waitingTime="110.00" waitingCount="7" stopTime="0.00" timeLoss="175.61" rerouteNo="0" devices="tripinfo_f_0_2.15" vType="type1" speedFactor="1.12" vaporized=""/>
    <tripinfo id="f_0_0.11" depart="150.00" departLane="np13_nt13_0" departPos="61.25" departSpeed="0.00" departDelay="0.00" arrival="368.00" arrivalLane="nt4_np5_0" arrivalPos="75.00" arrivalSpeed="19.32" duration="218.00" routeLength="1286.64" waitingTime="74.00" waitingCount="7" stopTime="0.00" timeLoss="128.29" rerouteNo="0" devices="tripinfo_f_0_0.11" vType="type1" speedFactor="1.00" vaporized=""/>
    <tripinfo id="f_0_3.13" depart="132.00" departLane="np3_nt3_0" departPos="0.00" departSpeed="0.00" departDelay="25.63" arrival="377.00" arrivalLane="nt14_np11_0" arrivalPos="75.00" arrivalSpeed="8.68" duration="245.00" routeLength="951.09" waitingTime="107.00" waitingCount="8" stopTime="0.00" timeLoss="165.04" rerouteNo="0" devices="tripinfo_f_0_3.13" vType="type1" speedFactor="0.99" vaporized=""/>
    <tripinfo id="f_0_3.14" depart="136.00" departLane="np3_nt3_0" departPos="0.67" departSpeed="0.00" departDelay="21.45" arrival="393.00" arrivalLane="nt14_np11_0" arrivalPos="75.00" arrivalSpeed="9.18" duration="257.00" routeLength="950.42" waitingTime="124.00" waitingCount="8" stopTime="0.00" timeLoss="172.82" rerouteNo="0" devices="tripinfo_f_0_3.14" vType="type1" speedFactor="0.95" vaporized=""/>
    <tripinfo id="f_0_0.12" depart="164.00" departLane="np13_nt13_0" departPos="59.53" departSpeed="0.00" departDelay="0.37" arrival="393.00" arrivalLane="nt4_np5_0" arrivalPos="75.00" arrivalSpeed="18.30" duration="229.00" routeLength="1288.36" waitingTime="83.00" waitingCount="8" stopTime="0.00" timeLoss="139.05" rerouteNo="0" devices="tripinfo_f_0_0.12" vType="type1" speedFactor="1.00" vaporized=""/>
    <tripinfo id="f_0_3.15" depart="157.00" departLane="np3_nt3_0" departPos="0.00" departSpeed="0.00" departDelay="34.27" arrival="395.00" arrivalLane="nt14_np11_0" arrivalPos="75.00" arrivalSpeed="9.71" duration="238.00" routeLength="951.09" waitingTime="108.00" waitingCount="7" stopTime="0.00" timeLoss="156.89" rerouteNo="0" devices="tripinfo_f_0_3.15" vType="type1" speedFactor="0.99" vaporized=""/>
    <tripinfo id="f_0_0.13" depart="178.00" departLane="np13_nt13_0" departPos="11.42" departSpeed="0.00" departDelay="0.73" arrival="409.00" arrivalLane="nt4_np5_0" arrivalPos="75.00" arrivalSpeed="16.67" duration="231.00" routeLength="1336.47" waitingTime="75.00" waitingCount="7" stopTime="0.00" timeLoss="132.14" rerouteNo="0" devices="tripinfo_f_0_0.13" vType="type1" speedFactor="0.94" vaporized=""/>
    <tripinfo id="f_0_0.14" depart="191.00" departLane="np13_nt13_0" departPos="3.07" departSpeed="0.00" departDelay="0.10" arrival="410.00" arrivalLane="nt4_np5_0" arrivalPos="75.00" arrivalSpeed="18.57" duration="219.00" routeLength="1344.82" waitingTime="65.00" waitingCount="7" stopTime="0.00" timeLoss="130.14" rerouteNo="0" devices="tripinfo_f_0_0.14" vType="type1" speedFactor="1.04" vaporized=""/>
    <tripinfo id="f_0_2.16" depart="131.00" departLane="np2_nt2_0" departPos="0.18" departSpeed="0.00" departDelay="0.09" arrival="411.00" arrivalLane="nt15_np10_0" arrivalPos="75.00" arrivalSpeed="10.75" duration="280.00" routeLength="950.90" waitingTime="151.00" waitingCount="9" stopTime="0.00" timeLoss="206.75" rerouteNo="0" devices="tripinfo_f_0_2.16" vType="type1" speedFactor="1.09" vaporized=""/>
    <tripinfo id="f_0_3.16" depart="160.00" departLane="np3_nt3_0" departPos="4.22" departSpeed="0.00" departDelay="29.09" arrival="412.00" arrivalLane="nt14_np11_0" arrivalPos="75.00" arrivalSpeed="10.74" duration="252.00" routeLength="946.87" waitingTime="122.00" waitingCount="8" stopTime="0.00" timeLoss="173.70" rerouteNo="0" devices="tripinfo_f_0_3.16" vType="type1" speedFactor="1.02" vaporized=""/>
    <tripinfo id="f_0_2.17" depart="140.00" departLane="np2_nt2_0" departPos="58.09" departSpeed="0.00" departDelay="0.91" arrival="415.00" arrivalLane="nt15_np10_0" arrivalPos="75.00" arrivalSpeed="7.80" duration="275.00" routeLength="892.99" waitingTime="131.00" waitingCount="9" stopTime="0.00" timeLoss="192.21" rerouteNo="0" devices="tripinfo_f_0_2.17" vType="type1" speedFactor="0.90" vaporized=""/>
    <tripinfo id="f_0_0.15" depart="205.00" departLane="np13_nt13_0" departPos="42.81" departSpeed="0.00" departDelay="0.46" arrival="415.00" arrivalLane="nt4_np5_0" arrivalPos="75.00" arrivalSpeed="18.78" duration="210.00" routeLength="1305.08" waitingTime="66.00" waitingCount="9" stopTime="0.00" timeLoss="118.39" rerouteNo="0" devices="tripinfo_f_0_0.15" vType="type1" speedFactor="0.99" vaporized=""/>
    <tripinfo id="f_0_3.17" depart="162.00" departLane="np3_nt3_0" departPos="0.00" departSpeed="0.00" departDelay="22.91" arrival="416.00" arrivalLane="nt14_np11_0" arrivalPos="75.00" arrivalSpeed="9.60" duration="254.00" routeLength="951.09" waitingTime="109.00" waitingCount="8" stopTime="0.00" timeLoss="164.23" rerouteNo="0" devices="tripinfo_f_0_3.17" vType="type1" speedFactor="0.89" vaporized=""/>
    <tripinfo id="f_0_0.16" depart="219.00" departLane="np13_nt13_0" departPos="49.37" departSpeed="0.00" departDelay="0.82" arrival="430.00" arrivalLane="nt4_np5_0" arrivalPos="75.00" arrivalSpeed="19.29" duration="211.00" routeLength="1298.52" waitingTime="70.00" waitingCount="9" stopTime="0.00" timeLoss="119.81" rerouteNo="0" devices="tripinfo_f_0_0.16" vType="type1" speedFactor="1.00" vaporized=""/>
    <tripinfo id="f_0_0.17" depart="232.00" departLane="np13_nt13_0" departPos="63.55" departSpeed="0.00" departDelay="0.19" arrival="438.00" arrivalLane="nt4_np5_0" arrivalPos="75.00" arrivalSpeed="18.00" duration="206.00" routeLength="1284.34" waitingTime="51.00" waitingCount="7" stopTime="0.00" timeLoss="112.26" rerouteNo="0" devices="tripinfo_f_0_0.17" vType="type1" speedFactor="0.96" vaporized=""/>
    <tripinfo id="f_0_0.18" depart="246.00" departLane="np13_nt13_0" departPos="19.80" departSpeed="0.00" departDelay="0.55" arrival="441.00" arrivalLane="nt4_np5_0" arrivalPos="75.00" arrivalSpeed="17.57" duration="195.00" routeLength="1328.09" waitingTime="55.00" waitingCount="6" stopTime="0.00" timeLoss="95.75" rerouteNo="0" devices="tripinfo_f_0_0.18" vType="type1" speedFactor="0.94" vaporized=""/>
    <tripinfo id="f_0_0.19" depart="260.00" departLane="np13_nt13_0" departPos="24.80" departSpeed="0.00" departDelay="0.92" arrival="442.00" arrivalLane="nt4_np5_0" arrivalPos="75.00" arrivalSpeed="23.10" duration="182.00" routeLength="1323.09" waitingTime="48.00" waitingCount="7" stopTime="0.00" timeLoss="103.67" rerouteNo="0" devices="tripinfo_f_0_0.19" vType="type1" speedFactor="1.17" vaporized=""/>
    <tripinfo id="f_0_2.18" depart="148.00" departLane="np2_nt2_0" departPos="53.10" departSpeed="0.00" departDelay="0.72" arrival="447.00" arrivalLane="nt15_np10_0" arrivalPos="75.00" arrivalSpeed="9.96" duration="299.00" routeLength="897.98" waitingTime="153.00" waitingCount="11" stopTime="0.00" timeLoss="226.12" rerouteNo="0" devices="tripinfo_f_0_2.18" vType="type1" speedFactor="1.03" vaporized=""/>
    <tripinfo id="f_0_0.20" depart="273.00" departLane="np13_nt13_0" departPos="13.81" departSpeed="0.00" departDelay="0.28" arrival="447.00" arrivalLane="nt4_np5_0" arrivalPos="75.00" arrivalSpeed="19.14" duration="174.00" routeLength="1334.08" waitingTime="35.00" waitingCount="7" stopTime="0.00" timeLoss="80.03" rerouteNo="0" devices="tripinfo_f_0_0.20" vType="type1" speedFactor="0.99" vaporized=""/>
    <tripinfo id="f_0_0.21" depart="287.00" departLane="np13_nt13_0" departPos="33.51" departSpeed="0.00" departDelay="0.64" arrival="448.00" arrivalLane="nt4_np5_0" arrivalPos="75.00" arrivalSpeed="21.65" duration="161.00" routeLength="1314.38" waitingTime="31.00" waitingCount="5" stopTime="0.00" timeLoss="76.76" rerouteNo="0" devices="tripinfo_f_0_0.21" vType="type1" speedFactor="1.08" vaporized=""/>
    <tripinfo id="f_0_3.18" depart="166.00" departLane="np3_nt3_0" departPos="0.00" departSpeed="0.00" departDelay="18.72" arrival="452.00" arrivalLane="nt14_np11_0" arrivalPos="75.00" arrivalSpeed="10.13" duration="286.00" routeLength="951.09" waitingTime="139.00" waitingCount="9" stopTime="0.00" timeLoss="211.21" rerouteNo="0" devices="tripinfo_f_0_3.18" vType="type1" speedFactor="1.07" vaporized=""/>
    <tripinfo id="f_0_0.22" depart="300.00" departLane="np13_nt13_0" departPos="66.49" departSpeed="0.00" departDelay="0.01" arrival="468.00" arrivalLane="nt4_np5_0" arrivalPos="75.00" arrivalSpeed="20.26" duration="168.00" routeLength="1281.40" waitingTime="31.00" waitingCount="7" stopTime="0.00" timeLoss="81.12" rerouteNo="0" devices="tripinfo_f_0_0.22" vType="type1" speedFactor="1.03" vaporized=""/>
    <tripinfo id="f_1_0.0" depart="300.00" departLane="np13_nt13_0" departPos="20.97" departSpeed="0.00" departDelay="0.00" arrival="478.00" arrivalLane="nt4_np5_0" arrivalPos="75.00" arrivalSpeed="19.63" duration="178.00" routeLength="1326.92" waitingTime="44.00" waitingCount="6" stopTime="0.00" timeLoss="91.71" rerouteNo="0" devices="tripinfo_f_1_0.0" vType="type1" speedFactor="1.07" vaporized=""/>
    <tripinfo id="f_1_0.1" depart="308.00" departLane="np13_nt13_0" departPos="12.55" departSpeed="0.00" departDelay="0.19" arrival="480.00" arrivalLane="nt4_np5_0" arrivalPos="75.00" arrivalSpeed="20.97" duration="172.00" routeLength="1335.34" waitingTime="33.00" waitingCount="5" stopTime="0.00" timeLoss="84.40" rerouteNo="0" devices="tripinfo_f_1_0.1" vType="type1" speedFactor="1.05" vaporized=""/>
    <tripinfo id="f_1_0.2" depart="316.00" departLane="np13_nt13_0" departPos="48.87" departSpeed="0.00" departDelay="0.38" arrival="482.00" arrivalLane="nt4_np5_0" arrivalPos="75.00" arrivalSpeed="16.89" duration="166.00" routeLength="1299.02" waitingTime="23.00" waitingCount="5" stopTime="0.00" timeLoss="66.88" rerouteNo="0" devices="tripinfo_f_1_0.2" vType="type1" speedFactor="0.92" vaporized=""/>