<?xml version="1.0" encoding="UTF-8"?>

<!-- generated on 2023-08-30 12:18:33 by Eclipse SUMO libsumo Version 1.18.0
<configuration xmlns:xsi="http://www.w3.org/2001/XMLSchema-instance" xsi:noNamespaceSchemaLocation="http://sumo.dlr.de/xsd/libsumoConfiguration.xsd">

    <input>
        <net-file value="/home/stefan/RESCO/./environments/arterial4x4/arterial4x4.net.xml"/>
        <route-files value="/home/stefan/RESCO/./environments/arterial4x4/arterial4x4_1.rou.xml"/>
    </input>

    <output>
        <tripinfo-output value="/home/stefan/results/ITRPO-tr0-arterial4x4-0-drq_norm-wait_norm/tripinfo_1.xml"/>
        <tripinfo-output.write-unfinished value="true"/>
    </output>

    <processing>
        <time-to-teleport value="-1"/>
    </processing>

    <report>
        <no-warnings value="True"/>
        <no-step-log value="True"/>
    </report>

    <random_number>
        <random value="true"/>
    </random_number>

</configuration>
-->

<tripinfos xmlns:xsi="http://www.w3.org/2001/XMLSchema-instance" xsi:noNamespaceSchemaLocation="http://sumo.dlr.de/xsd/tripinfo_file.xsd">
    <tripinfo id="f_0_3.0" depart="0.00" departLane="np3_nt3_0" departPos="15.13" departSpeed="0.00" departDelay="0.00" arrival="188.00" arrivalLane="nt14_np11_0" arrivalPos="75.00" arrivalSpeed="10.27" duration="188.00" routeLength="935.96" waitingTime="78.00" waitingCount="5" stopTime="0.00" timeLoss="105.97" rerouteNo="0" devices="tripinfo_f_0_3.0" vType="type1" speedFactor="0.96" vaporized=""/>
    <tripinfo id="f_0_3.1" depart="9.00" departLane="np3_nt3_0" departPos="27.02" departSpeed="0.00" departDelay="0.82" arrival="190.00" arrivalLane="nt14_np11_0" arrivalPos="75.00" arrivalSpeed="10.42" duration="181.00" routeLength="924.07" waitingTime="66.00" waitingCount="4" stopTime="0.00" timeLoss="106.79" rerouteNo="0" devices="tripinfo_f_0_3.1" vType="type1" speedFactor="1.05" vaporized=""/>
    <tripinfo id="f_0_3.2" depart="17.00" departLane="np3_nt3_0" departPos="17.10" departSpeed="0.00" departDelay="0.64" arrival="227.00" arrivalLane="nt14_np11_0" arrivalPos="75.00" arrivalSpeed="8.92" duration="210.00" routeLength="933.99" waitingTime="93.00" waitingCount="6" stopTime="0.00" timeLoss="134.17" rerouteNo="0" devices="tripinfo_f_0_3.2" vType="type1" speedFactor="1.04" vaporized=""/>
    <tripinfo id="f_0_2.0" depart="0.00" departLane="np2_nt2_0" departPos="13.87" departSpeed="0.00" departDelay="0.00" arrival="248.00" arrivalLane="nt15_np10_0" arrivalPos="75.00" arrivalSpeed="9.48" duration="248.00" routeLength="937.21" waitingTime="136.00" waitingCount="4" stopTime="0.00" timeLoss="165.79" rerouteNo="0" devices="tripinfo_f_0_2.0" vType="type1" speedFactor="0.96" vaporized=""/>
    <tripinfo id="f_0_3.3" depart="25.00" departLane="np3_nt3_0" departPos="12.02" departSpeed="0.00" departDelay="0.45" arrival="256.00" arrivalLane="nt14_np11_0" arrivalPos="75.00" arrivalSpeed="9.64" duration="231.00" routeLength="939.07" waitingTime="112.00" waitingCount="6" stopTime="0.00" timeLoss="157.14" rerouteNo="0" devices="tripinfo_f_0_3.3" vType="type1" speedFactor="1.07" vaporized=""/>
    <tripinfo id="f_0_3.4" depart="33.00" departLane="np3_nt3_0" departPos="30.51" departSpeed="0.00" departDelay="0.27" arrival="259.00" arrivalLane="nt14_np11_0" arrivalPos="75.00" arrivalSpeed="8.44" duration="226.00" routeLength="920.58" waitingTime="102.00" waitingCount="6" stopTime="0.00" timeLoss="148.46" rerouteNo="0" devices="tripinfo_f_0_3.4" vType="type1" speedFactor="0.99" vaporized=""/>
    <tripinfo id="f_0_3.5" depart="41.00" departLane="np3_nt3_0" departPos="3.34" departSpeed="0.00" departDelay="0.09" arrival="273.00" arrivalLane="nt14_np11_0" arrivalPos="75.00" arrivalSpeed="10.36" duration="232.00" routeLength="947.75" waitingTime="94.00" waitingCount="7" stopTime="0.00" timeLoss="149.18" rerouteNo="0" devices="tripinfo_f_0_3.5" vType="type1" speedFactor="0.96" vaporized=""/>
    <tripinfo id="f_0_0.0" depart="0.00" departLane="np13_nt13_0" departPos="65.58" departSpeed="0.00" departDelay="0.00" arrival="277.00" arrivalLane="nt4_np5_0" arrivalPos="75.00" arrivalSpeed="17.96" duration="277.00" routeLength="1282.31" waitingTime="148.00" waitingCount="5" stopTime="0.00" timeLoss="180.29" rerouteNo="0" devices="tripinfo_f_0_0.0" vType="type1" speedFactor="0.93" vaporized=""/>
    <tripinfo id="f_0_3.6" depart="50.00" departLane="np3_nt3_0" departPos="10.52" departSpeed="0.00" departDelay="0.91" arrival="282.00" arrivalLane="nt14_np11_0" arrivalPos="75.00" arrivalSpeed="10.61" duration="232.00" routeLength="940.57" waitingTime="99.00" waitingCount="9" stopTime="0.00" timeLoss="157.71" rerouteNo="0" devices="tripinfo_f_0_3.6" vType="type1" speedFactor="1.06" vaporized=""/>
    <tripinfo id="f_0_2.1" depart="9.00" departLane="np2_nt2_0" departPos="36.89" departSpeed="0.00" departDelay="0.82" arrival="324.00" arrivalLane="nt15_np10_0" arrivalPos="75.00" arrivalSpeed="7.09" duration="315.00" routeLength="914.19" waitingTime="197.00" waitingCount="6" stopTime="0.00" timeLoss="226.33" rerouteNo="0" devices="tripinfo_f_0_2.1" vType="type1" speedFactor="0.87" vaporized=""/>
    <tripinfo id="f_0_2.2" depart="17.00" departLane="np2_nt2_0" departPos="5.85" departSpeed="0.00" departDelay="0.64" arrival="327.00" arrivalLane="nt15_np10_0" arrivalPos="75.00" arrivalSpeed="9.96" duration="310.00" routeLength="945.23" waitingTime="182.00" waitingCount="7" stopTime="0.00" timeLoss="230.11" rerouteNo="0" devices="tripinfo_f_0_2.2" vType="type1" speedFactor="1.00" vaporized=""/>
    <tripinfo id="f_0_2.3" depart="25.00" departLane="np2_nt2_0" departPos="10.96" departSpeed="0.00" departDelay="0.45" arrival="329.00" arrivalLane="nt15_np10_0" arrivalPos="75.00" arrivalSpeed="10.80" duration="304.00" routeLength="940.12" waitingTime="178.00" waitingCount="7" stopTime="0.00" timeLoss="227.59" rerouteNo="0" devices="tripinfo_f_0_2.3" vType="type1" speedFactor="1.04" vaporized=""/>
    <tripinfo id="f_0_2.4" depart="33.00" departLane="np2_nt2_0" departPos="11.64" departSpeed="0.00" departDelay="0.27" arrival="330.00" arrivalLane="nt15_np10_0" arrivalPos="75.00" arrivalSpeed="11.34" duration="297.00" routeLength="939.44" waitingTime="165.00" waitingCount="8" stopTime="0.00" timeLoss="227.64" rerouteNo="0" devices="tripinfo_f_0_2.4" vType="type1" speedFactor="1.13" vaporized=""/>
    <tripinfo id="f_0_2.5" depart="41.00" departLane="np2_nt2_0" departPos="38.13" departSpeed="0.00" departDelay="0.09" arrival="332.00" arrivalLane="nt15_np10_0" arrivalPos="75.00" arrivalSpeed="12.95" duration="291.00" routeLength="912.95" waitingTime="153.00" waitingCount="7" stopTime="0.00" timeLoss="226.69" rerouteNo="0" devices="tripinfo_f_0_2.5" vType="type1" speedFactor="1.19" vaporized=""/>
    <tripinfo id="f_0_3.7" depart="58.00" departLane="np3_nt3_0" departPos="6.14" departSpeed="0.00" departDelay="0.73" arrival="332.00" arrivalLane="nt14_np11_0" arrivalPos="75.00" arrivalSpeed="10.09" duration="274.00" routeLength="944.95" waitingTime="150.00" waitingCount="9" stopTime="0.00" timeLoss="195.23" rerouteNo="0" devices="tripinfo_f_0_3.7" vType="type1" speedFactor="1.01" vaporized=""/>
    <tripinfo id="f_0_1.0" depart="0.00" departLane="np16_nt1_0" departPos="64.32" departSpeed="0.00" departDelay="0.00" arrival="338.00" arrivalLane="nt16_np8_0" arrivalPos="75.00" arrivalSpeed="22.81" duration="338.00" routeLength="1283.56" waitingTime="199.00" waitingCount="8" stopTime="0.00" timeLoss="260.07" rerouteNo="0" devices="tripinfo_f_0_1.0" vType="type1" speedFactor="1.16" vaporized=""/>
    <tripinfo id="f_0_2.6" depart="50.00" departLane="np2_nt2_0" departPos="60.82" departSpeed="0.00" departDelay="0.91" arrival="347.00" arrivalLane="nt15_np10_0" arrivalPos="75.00" arrivalSpeed="10.85" duration="297.00" routeLength="890.26" waitingTime="158.00" waitingCount="10" stopTime="0.00" timeLoss="224.81" rerouteNo="0" devices="tripinfo_f_0_2.6" vType="type1" speedFactor="1.04" vaporized=""/>
    <tripinfo id="f_0_0.1" depart="14.00" departLane="np13_nt13_0" departPos="65.03" departSpeed="0.00" departDelay="0.36" arrival="348.00" arrivalLane="nt4_np5_0" arrivalPos="75.00" arrivalSpeed="20.01" duration="334.00" routeLength="1282.86" waitingTime="209.00" waitingCount="8" stopTime="0.00" timeLoss="245.12" rerouteNo="0" devices="tripinfo_f_0_0.1" vType="type1" speedFactor="1.01" vaporized=""/>
    <tripinfo id="f_0_0.2" depart="28.00" departLane="np13_nt13_0" departPos="6.48" departSpeed="0.00" departDelay="0.73" arrival="350.00" arrivalLane="nt4_np5_0" arrivalPos="75.00" arrivalSpeed="19.49" duration="322.00" routeLength="1341.41" waitingTime="183.00" waitingCount="7" stopTime="0.00" timeLoss="228.44" rerouteNo="0" devices="tripinfo_f_0_0.2" vType="type1" speedFactor="1.00" vaporized=""/>
    <tripinfo id="f_0_3.8" depart="66.00" departLane="np3_nt3_0" departPos="46.31" departSpeed="0.00" departDelay="0.54" arrival="357.00" arrivalLane="nt14_np11_0" arrivalPos="75.00" arrivalSpeed="10.19" duration="291.00" routeLength="904.78" waitingTime="174.00" waitingCount="7" stopTime="0.00" timeLoss="212.91" rerouteNo="0" devices="tripinfo_f_0_3.8" vType="type1" speedFactor="0.97" vaporized=""/>
    <tripinfo id="f_0_3.9" depart="74.00" departLane="np3_nt3_0" departPos="48.31" departSpeed="0.00" departDelay="0.36" arrival="360.00" arrivalLane="nt14_np11_0" arrivalPos="75.00" arrivalSpeed="9.75" duration="286.00" routeLength="902.78" waitingTime="172.00" waitingCount="7" stopTime="0.00" timeLoss="201.00" rerouteNo="0" devices="tripinfo_f_0_3.9" vType="type1" speedFactor="0.89" vaporized=""/>
    <tripinfo id="f_0_2.7" depart="58.00" departLane="np2_nt2_0" departPos="27.35" departSpeed="0.00" departDelay="0.73" arrival="361.00" arrivalLane="nt15_np10_0" arrivalPos="75.00" arrivalSpeed="10.84" duration="303.00" routeLength="923.73" waitingTime="162.00" waitingCount="11" stopTime="0.00" timeLoss="234.62" rerouteNo="0" devices="tripinfo_f_0_2.7" vType="type1" speedFactor="1.13" vaporized=""/>
    <tripinfo id="f_0_2.8" depart="66.00" departLane="np2_nt2_0" departPos="36.04" departSpeed="0.00" departDelay="0.54" arrival="376.00" arrivalLane="nt15_np10_0" arrivalPos="75.00" arrivalSpeed="10.63" duration="310.00" routeLength="915.04" waitingTime="160.00" waitingCount="13" stopTime="0.00" timeLoss="238.66" rerouteNo="0" devices="tripinfo_f_0_2.8" vType="type1" speedFactor="1.07" vaporized=""/>
    <tripinfo id="f_0_1.1" depart="14.00" departLane="np16_nt1_0" departPos="5.99" departSpeed="0.00" departDelay="0.36" arrival="378.00" arrivalLane="nt16_np8_0" arrivalPos="75.00" arrivalSpeed="17.80" duration="364.00" routeLength="1341.89" waitingTime="206.00" waitingCount="11" stopTime="0.00" timeLoss="269.46" rerouteNo="0" devices="tripinfo_f_0_1.1" vType="type1" speedFactor="0.98" vaporized=""/>
    <tripinfo id="f_0_2.9" depart="74.00" departLane="np2_nt2_0" departPos="2.61" departSpeed="0.00" departDelay="0.36" arrival="379.00" arrivalLane="nt15_np10_0" arrivalPos="75.00" arrivalSpeed="10.36" duration="305.00" routeLength="948.47" waitingTime="151.00" waitingCount="12" stopTime="0.00" timeLoss="225.84" rerouteNo="0" devices="tripinfo_f_0_2.9" vType="type1" speedFactor="1.02" vaporized=""/>
    <tripinfo id="f_0_1.2" depart="28.00" departLane="np16_nt1_0" departPos="12.23" departSpeed="0.00" departDelay="0.73" arrival="380.00" arrivalLane="nt16_np8_0" arrivalPos="75.00" arrivalSpeed="16.44" duration="352.00" routeLength="1335.65" waitingTime="178.00" waitingCount="13" stopTime="0.00" timeLoss="253.63" rerouteNo="0" devices="tripinfo_f_0_1.2" vType="type1" speedFactor="0.95" vaporized=""/>
    <tripinfo id="f_0_0.3" depart="41.00" departLane="np13_nt13_0" departPos="49.05" departSpeed="0.00" departDelay="0.09" arrival="383.00" arrivalLane="nt4_np5_0" arrivalPos="75.00" arrivalSpeed="19.94" duration="342.00" routeLength="1298.84" waitingTime="212.00" waitingCount="4" stopTime="0.00" timeLoss="252.55" rerouteNo="0" devices="tripinfo_f_0_0.3" vType="type1" speedFactor="1.02" vaporized=""/>
    <tripinfo id="f_0_0.4" depart="55.00" departLane="np13_nt13_0" departPos="67.00" departSpeed="0.00" departDelay="0.46" arrival="385.00" arrivalLane="nt4_np5_0" arrivalPos="75.00" arrivalSpeed="17.13" duration="330.00" routeLength="1280.89" waitingTime="197.00" waitingCount="6" stopTime="0.00" timeLoss="237.61" rerouteNo="0" devices="tripinfo_f_0_0.4" vType="type1" speedFactor="0.97" vaporized=""/>
    <tripinfo id="f_0_2.10" depart="82.00" departLane="np2_nt2_0" departPos="17.37" departSpeed="0.00" departDelay="0.18" arrival="386.00" arrivalLane="nt15_np10_0" arrivalPos="75.00" arrivalSpeed="10.57" duration="304.00" routeLength="933.71" waitingTime="141.00" waitingCount="14" stopTime="0.00" timeLoss="236.28" rerouteNo="0" devices="tripinfo_f_0_2.10" vType="type1" speedFactor="1.15" vaporized=""/>
    <tripinfo id="f_0_1.3" depart="41.00" departLane="np16_nt1_0" departPos="11.75" departSpeed="0.00" departDelay="0.09" arrival="400.00" arrivalLane="nt16_np8_0" arrivalPos="75.00" arrivalSpeed="18.87" duration="359.00" routeLength="1336.13" waitingTime="183.00" waitingCount="14" stopTime="0.00" timeLoss="265.89" rerouteNo="0" devices="tripinfo_f_0_1.3" vType="type1" speedFactor="1.00" vaporized=""/>
    <tripinfo id="f_0_1.4" depart="55.00" departLane="np16_nt1_0" departPos="8.94" departSpeed="0.00" departDelay="0.46" arrival="409.00" arrivalLane="nt16_np8_0" arrivalPos="75.00" arrivalSpeed="13.06" duration="354.00" routeLength="1338.94" waitingTime="152.00" waitingCount="13" stopTime="0.00" timeLoss="234.87" rerouteNo="0" devices="tripinfo_f_0_1.4" vType="type1" speedFactor="0.78" vaporized=""/>
    <tripinfo id="f_0_3.10" depart="82.00" departLane="np3_nt3_0" departPos="30.23" departSpeed="0.00" departDelay="0.18" arrival="428.00" arrivalLane="nt14_np11_0" arrivalPos="75.00" arrivalSpeed="9.39" duration="346.00" routeLength="920.86" waitingTime="223.00" waitingCount="8" stopTime="0.00" timeLoss="263.62" rerouteNo="0" devices="tripinfo_f_0_3.10" vType="type1" speedFactor="0.93" vaporized=""/>
    <tripinfo id="f_0_3.11" depart="90.00" departLane="np3_nt3_0" departPos="11.18" departSpeed="0.00" departDelay="0.00" arrival="552.00" arrivalLane="nt14_np11_0" arrivalPos="75.00" arrivalSpeed="10.29" duration="462.00" routeLength="939.91" waitingTime="338.00" waitingCount="9" stopTime="0.00" timeLoss="379.61" rerouteNo="0" devices="tripinfo_f_0_3.11" vType="type1" speedFactor="0.96" vaporized=""/>
    <tripinfo id="f_0_3.12" depart="99.00" departLane="np3_nt3_0" departPos="6.20" departSpeed="0.00" departDelay="0.82" arrival="555.00" arrivalLane="nt14_np11_0" arrivalPos="75.00" arrivalSpeed="9.31" duration="456.00" routeLength="944.89" waitingTime="321.00" waitingCount="11" stopTime="0.00" timeLoss="372.35" rerouteNo="0" devices="tripinfo_f_0_3.12" vType="type1" speedFactor="0.95" vaporized=""/>
    <tripinfo id="f_0_3.13" depart="107.00" departLane="np3_nt3_0" departPos="8.68" departSpeed="0.00" departDelay="0.63" arrival="567.00" arrivalLane="nt14_np11_0" arrivalPos="75.00" arrivalSpeed="9.33" duration="460.00" routeLength="942.41" waitingTime="332.00" waitingCount="12" stopTime="0.00" timeLoss="381.19" rerouteNo="0" devices="tripinfo_f_0_3.13" vType="type1" speedFactor="1.00" vaporized=""/>
    <tripinfo id="f_0_3.14" depart="115.00" departLane="np3_nt3_0" departPos="7.44" departSpeed="0.00" departDelay="0.45" arrival="570.00" arrivalLane="nt14_np11_0" arrivalPos="75.00" arrivalSpeed="9.74" duration="455.00" routeLength="943.65" waitingTime="313.00" waitingCount="12" stopTime="0.00" timeLoss="369.18" rerouteNo="0" devices="tripinfo_f_0_3.14" vType="type1" speedFactor="0.92" vaporized=""/>
    <tripinfo id="f_0_3.15" depart="123.00" departLane="np3_nt3_0" departPos="3.24" departSpeed="0.00" departDelay="0.27" arrival="602.00" arrivalLane="nt14_np11_0" arrivalPos="75.00" arrivalSpeed="10.33" duration="479.00" routeLength="947.85" waitingTime="329.00" waitingCount="14" stopTime="0.00" timeLoss="402.45" rerouteNo="0" devices="tripinfo_f_0_3.15" vType="type1" speedFactor="1.04" vaporized=""/>
    <tripinfo id="f_0_3.16" depart="131.00" departLane="np3_nt3_0" departPos="0.02" departSpeed="0.00" departDelay="0.09" arrival="678.00" arrivalLane="nt14_np11_0" arrivalPos="75.00" arrivalSpeed="10.01" duration="547.00" routeLength="951.07" waitingTime="401.00" waitingCount="10" stopTime="0.00" timeLoss="462.15" rerouteNo="0" devices="tripinfo_f_0_3.16" vType="type1" speedFactor="0.95" vaporized=""/>
    <tripinfo id="f_0_3.17" depart="157.00" departLane="np3_nt3_0" departPos="0.00" departSpeed="0.00" departDelay="17.91" arrival="680.00" arrivalLane="nt14_np11_0" arrivalPos="75.00" arrivalSpeed="8.15" duration="523.00" routeLength="951.09" waitingTime="379.00" waitingCount="11" stopTime="0.00" timeLoss="439.62" rerouteNo="0" devices="tripinfo_f_0_3.17" vType="type1" speedFactor="0.96" vaporized=""/>
    <tripinfo id="f_0_3.18" depart="192.00" departLane="np3_nt3_0" departPos="0.14" departSpeed="0.00" departDelay="44.72" arrival="756.00" arrivalLane="nt14_np11_0" arrivalPos="75.00" arrivalSpeed="10.23" duration="564.00" routeLength="950.95" waitingTime="435.00" waitingCount="11" stopTime="0.00" timeLoss="492.45" rerouteNo="0" devices="tripinfo_f_0_3.18" vType="type1" speedFactor="1.11" vaporized=""/>
    <tripinfo id="f_0_3.19" depart="195.00" departLane="np3_nt3_0" departPos="0.00" departSpeed="0.00" departDelay="39.54" arrival="779.00" arrivalLane="nt14_np11_0" arrivalPos="75.00" arrivalSpeed="12.33" duration="584.00" routeLength="951.09" waitingTime="444.00" waitingCount="11" stopTime="0.00" timeLoss="513.04" rerouteNo="0" devices="tripinfo_f_0_3.19" vType="type1" speedFactor="1.13" vaporized=""/>
    <tripinfo id="f_0_3.20" depart="213.00" departLane="np3_nt3_0" departPos="0.00" departSpeed="0.00" departDelay="49.36" arrival="802.00" arrivalLane="nt14_np11_0" arrivalPos="75.00" arrivalSpeed="10.51" duration="589.00" routeLength="951.09" waitingTime="442.00" waitingCount="13" stopTime="0.00" timeLoss="516.57" rerouteNo="0" devices="tripinfo_f_0_3.20" vType="type1" speedFactor="1.11" vaporized=""/>
    <tripinfo id="f_0_3.21" depart="224.00" departLane="np3_nt3_0" departPos="0.85" departSpeed="0.00" departDelay="52.18" arrival="857.00" arrivalLane="nt14_np11_0" arrivalPos="75.00" arrivalSpeed="11.07" duration="633.00" routeLength="950.24" waitingTime="484.00" waitingCount="12" stopTime="0.00" timeLoss="555.23" rerouteNo="0" devices="tripinfo_f_0_3.21" vType="type1" speedFactor="1.03" vaporized=""/>
    <tripinfo id="f_0_3.22" depart="268.00" departLane="np3_nt3_0" departPos="0.00" departSpeed="0.00" departDelay="88.00" arrival="883.00" arrivalLane="nt14_np11_0" arrivalPos="75.00" arrivalSpeed="9.34" duration="615.00" routeLength="951.09" waitingTime="455.00" waitingCount="11" stopTime="0.00" timeLoss="526.42" rerouteNo="0" devices="tripinfo_f_0_3.22" vType="type1" speedFactor="0.90" vaporized=""/>
    <tripinfo id="f_0_3.23" depart="332.00" departLane="np3_nt3_0" departPos="1.88" departSpeed="0.00" departDelay="143.81" arrival="885.00" arrivalLane="nt14_np11_0" arrivalPos="75.00" arrivalSpeed="10.59" duration="553.00" routeLength="949.21" waitingTime="393.00" waitingCount="9" stopTime="0.00" timeLoss="472.03" rerouteNo="0" devices="tripinfo_f_0_3.23" vType="type1" speedFactor="0.98" vaporized=""/>
    <tripinfo id="f_0_3.24" depart="335.00" departLane="np3_nt3_0" departPos="0.25" departSpeed="0.00" departDelay="138.63" arrival="896.00" arrivalLane="nt14_np11_0" arrivalPos="75.00" arrivalSpeed="12.23" duration="561.00" routeLength="950.84" waitingTime="395.00" waitingCount="12" stopTime="0.00" timeLoss="490.71" rerouteNo="0" devices="tripinfo_f_0_3.24" vType="type1" speedFactor="1.14" vaporized=""/>
    <tripinfo id="f_0_3.25" depart="339.00" departLane="np3_nt3_0" departPos="0.00" departSpeed="0.00" departDelay="134.45" arrival="898.00" arrivalLane="nt14_np11_0" arrivalPos="75.00" arrivalSpeed="10.31" duration="559.00" routeLength="951.09" waitingTime="399.00" waitingCount="14" stopTime="0.00" timeLoss="489.11" rerouteNo="0" devices="tripinfo_f_0_3.25" vType="type1" speedFactor="1.15" vaporized=""/>
    <tripinfo id="f_0_3.26" depart="372.00" departLane="np3_nt3_0" departPos="0.00" departSpeed="0.00" departDelay="159.27" arrival="1007.00" arrivalLane="nt14_np11_0" arrivalPos="75.00" arrivalSpeed="9.05" duration="635.00" routeLength="951.09" waitingTime="470.00" waitingCount="11" stopTime="0.00" timeLoss="554.98" rerouteNo="0" devices="tripinfo_f_0_3.26" vType="type1" speedFactor="1.00" vaporized=""/>
    <tripinfo id="f_0_0.5" depart="69.00" departLane="np13_nt13_0" departPos="59.86" departSpeed="0.00" departDelay="0.82" arrival="-1.00" arrivalLane="" arrivalPos="-1.00" arrivalSpeed="-1.00" duration="3531.00" routeLength="795.17" waitingTime="3438.00" waitingCount="6" stopTime="0.00" timeLoss="3476.12" rerouteNo="0" devices="tripinfo_f_0_0.5" vType="type1" speedFactor="1.04" vaporized="end"/>
    <tripinfo id="f_0_1.5" depart="69.00" departLane="np16_nt1_0" departPos="51.42" departSpeed="0.00" departDelay="0.82" arrival="-1.00" arrivalLane="" arrivalPos="-1.00" arrivalSpeed="-1.00" duration="3531.00" routeLength="596.43" waitingTime="3402.00" waitingCount="12" stopTime="0.00" timeLoss="3486.12" rerouteNo="0" devices="tripinfo_f_0_1.5" vType="type1" speedFactor="0.87" vaporized="end"/>
    <tripinfo id="f_0_0.6" depart="82.00" departLane="np13_nt13_0" departPos="57.99" departSpeed="0.00" departDelay="0.18" arrival="-1.00" arrivalLane="" arrivalPos="-1.00" arrivalSpeed="-1.00" duration="3518.00" routeLength="789.54" waitingTime="3431.00" waitingCount="4" stopTime="0.00" timeLoss="3470.55" rerouteNo="0" devices="tripinfo_f_0_0.6" vType="type1" speedFactor="1.21" vaporized="end"/>
    <tripinfo id="f_0_1.6" depart="82.00" departLane="np16_nt1_0" departPos="41.42" departSpeed="0.00" departDelay="0.18" arrival="-1.00" arrivalLane="" arrivalPos="-1.00" arrivalSpeed="-1.00" duration="3518.00" routeLength="591.42" waitingTime="3394.00" waitingCount="11" stopTime="0.00" timeLoss="3483.65" rerouteNo="0" devices="tripinfo_f_0_1.6" vType="type1" speedFactor="1.11" vaporized="end"/>
    <tripinfo id="f_0_2.11" depart="90.00" departLane="np2_nt2_0" departPos="17.73" departSpeed="0.00" departDelay="0.00" arrival="-1.00" arrivalLane="" arrivalPos="-1.00" arrivalSpeed="-1.00" duration="3510.00" routeLength="436.55" waitingTime="3409.00" waitingCount="10" stopTime="0.00" timeLoss="3473.73" rerouteNo="0" devices="tripinfo_f_0_2.11" vType="type1" speedFactor="0.94" vaporized="end"/>
    <tripinfo id="f_0_0.7" depart="96.00" departLane="np13_nt13_0" departPos="55.86" departSpeed="0.00" departDelay="0.55" arrival="-1.00" arrivalLane="" arrivalPos="-1.00" arrivalSpeed="-1.00" duration="3504.00" routeLength="784.16" waitingTime="3408.00" waitingCount="8" stopTime="0.00" timeLoss="3447.35" rerouteNo="0" devices="tripinfo_f_0_0.7" vType="type1" speedFactor="0.98" vaporized="end"/>
    <tripinfo id="f_0_1.7" depart="96.00" departLane="np16_nt1_0" departPos="29.42" departSpeed="0.00" departDelay="0.55" arrival="-1.00" arrivalLane="" arrivalPos="-1.00" arrivalSpeed="-1.00" duration="3504.00" routeLength="595.92" waitingTime="3385.00" waitingCount="10" stopTime="0.00" timeLoss="3464.93" rerouteNo="0" devices="tripinfo_f_0_1.7" vType="type1" speedFactor="0.96" vaporized="end"/>
    <tripinfo id="f_0_2.12" depart="99.00" departLane="np2_nt2_0" departPos="30.50" departSpeed="0.00" departDelay="0.82" arrival="-1.00" arrivalLane="" arrivalPos="-1.00" arrivalSpeed="-1.00" duration="3501.00" routeLength="416.28" waitingTime="3393.00" waitingCount="11" stopTime="0.00" timeLoss="3465.50" rerouteNo="0" devices="tripinfo_f_0_2.12" vType="type1" speedFactor="0.89" vaporized="end"/>
    <tripinfo id="f_0_2.13" depart="107.00" departLane="np2_nt2_0" departPos="36.17" departSpeed="0.00" departDelay="0.63" arrival="-1.00" arrivalLane="" arrivalPos="-1.00" arrivalSpeed="-1.00" duration="3493.00" routeLength="395.61" waitingTime="3386.00" waitingCount="9" stopTime="0.00" timeLoss="3465.63" rerouteNo="0" devices="tripinfo_f_0_2.13" vType="type1" speedFactor="1.09" vaporized="end"/>
    <tripinfo id="f_0_0.8" depart="110.00" departLane="np13_nt13_0" departPos="64.84" departSpeed="0.00" departDelay="0.91" arrival="-1.00" arrivalLane="" arrivalPos="-1.00" arrivalSpeed="-1.00" duration="3490.00" routeLength="767.69" waitingTime="3394.00" waitingCount="7" stopTime="0.00" timeLoss="3437.69" rerouteNo="0" devices="tripinfo_f_0_0.8" vType="type1" speedFactor="1.04" vaporized="end"/>
    <tripinfo id="f_0_1.8" depart="110.00" departLane="np16_nt1_0" departPos="33.64" departSpeed="0.00" departDelay="0.91" arrival="-1.00" arrivalLane="" arrivalPos="-1.00" arrivalSpeed="-1.00" duration="3490.00" routeLength="554.20" waitingTime="3382.00" waitingCount="8" stopTime="0.00" timeLoss="3452.95" rerouteNo="0" devices="tripinfo_f_0_1.8" vType="type1" speedFactor="0.92" vaporized="end"/>
    <tripinfo id="f_0_2.14" depart="115.00" departLane="np2_nt2_0" departPos="25.99" departSpeed="0.00" departDelay="0.45" arrival="-1.00" arrivalLane="" arrivalPos="-1.00" arrivalSpeed="-1.00" duration="3485.00" routeLength="383.28" waitingTime="3376.00" waitingCount="9" stopTime="0.00" timeLoss="3450.69" rerouteNo="0" devices="tripinfo_f_0_2.14" vType="type1" speedFactor="0.84" vaporized="end"/>
    <tripinfo id="f_0_0.9" depart="123.00" departLane="np13_nt13_0" departPos="9.67" departSpeed="0.00" departDelay="0.28" arrival="-1.00" arrivalLane="" arrivalPos="-1.00" arrivalSpeed="-1.00" duration="3477.00" routeLength="815.36" waitingTime="3380.00" waitingCount="5" stopTime="0.00" timeLoss="3420.06" rerouteNo="0" devices="tripinfo_f_0_0.9" vType="type1" speedFactor="0.99" vaporized="end"/>
    <tripinfo id="f_0_1.9" depart="123.00" departLane="np16_nt1_0" departPos="18.36" departSpeed="0.00" departDelay="0.28" arrival="-1.00" arrivalLane="" arrivalPos="-1.00" arrivalSpeed="-1.00" duration="3477.00" routeLength="561.98" waitingTime="3364.00" waitingCount="7" stopTime="0.00" timeLoss="3445.05" rerouteNo="0" devices="tripinfo_f_0_1.9" vType="type1" speedFactor="1.08" vaporized="end"/>
    <tripinfo id="f_0_2.15" depart="123.00" departLane="np2_nt2_0" departPos="38.38" departSpeed="0.00" departDelay="0.27" arrival="-1.00" arrivalLane="" arrivalPos="-1.00" arrivalSpeed="-1.00" duration="3477.00" routeLength="363.39" waitingTime="3374.00" waitingCount="9" stopTime="0.00" timeLoss="3449.51" rerouteNo="0" devices="tripinfo_f_0_2.15" vType="type1" speedFactor="0.98" vaporized="end"/>
    <tripinfo id="f_0_2.16" depart="131.00" departLane="np2_nt2_0" departPos="20.68" departSpeed="0.00" departDelay="0.09" arrival="-1.00" arrivalLane="" arrivalPos="-1.00" arrivalSpeed="-1.00" duration="3469.00" routeLength="373.60" waitingTime="3367.00" waitingCount="8" stopTime="0.00" timeLoss="3439.46" rerouteNo="0" devices="tripinfo_f_0_2.16" vType="type1" speedFactor="0.95" vaporized="end"/>
    <tripinfo id="f_0_0.10" depart="137.00" departLane="np13_nt13_0" departPos="13.32" departSpeed="0.00" departDelay="0.64" arrival="-1.00" arrivalLane="" arrivalPos="-1.00" arrivalSpeed="-1.00" duration="3463.00" routeLength="804.20" waitingTime="3367.00" waitingCount="5" stopTime="0.00" timeLoss="3403.68" rerouteNo="0" devices="tripinfo_f_0_0.10" vType="type1" speedFactor="0.94" vaporized="end"/>
    <tripinfo id="f_0_1.10" depart="137.00" departLane="np16_nt1_0" departPos="1.83" departSpeed="0.00" departDelay="0.64" arrival="-1.00" arrivalLane="" arrivalPos="-1.00" arrivalSpeed="-1.00" duration="3463.00" routeLength="556.01" waitingTime="3347.00" waitingCount="8" stopTime="0.00" timeLoss="3430.08" rerouteNo="0" devices="tripinfo_f_0_1.10" vType="type1" speedFactor="1.00" vaporized="end"/>
    <tripinfo id="f_0_2.17" depart="140.00" departLane="np2_nt2_0" departPos="51.32" departSpeed="0.00" departDelay="0.91" arrival="-1.00" arrivalLane="" arrivalPos="-1.00" arrivalSpeed="-1.00" duration="3460.00" routeLength="335.45" waitingTime="3367.00" waitingCount="8" stopTime="0.00" timeLoss="3432.02" rerouteNo="0" devices="tripinfo_f_0_2.17" vType="type1" speedFactor="0.88" vaporized="end"/>
    <tripinfo id="f_0_2.18" depart="148.00" departLane="np2_nt2_0" departPos="3.12" departSpeed="0.00" departDelay="0.72" arrival="-1.00" arrivalLane="" arrivalPos="-1.00" arrivalSpeed="-1.00" duration="3452.00" routeLength="361.15" waitingTime="3347.00" waitingCount="5" stopTime="0.00" timeLoss="3424.04" rerouteNo="0" devices="tripinfo_f_0_2.18" vType="type1" speedFactor="0.97" vaporized="end"/>
    <tripinfo id="f_0_0.11" depart="150.00" departLane="np13_nt13_0" departPos="41.65" departSpeed="0.00" departDelay="0.00" arrival="-1.00" arrivalLane="" arrivalPos="-1.00" arrivalSpeed="-1.00" duration="3450.00" routeLength="768.37" waitingTime="3367.00" waitingCount="4" stopTime="0.00" timeLoss="3395.28" rerouteNo="0" devices="tripinfo_f_0_0.11" vType="type1" speedFactor="0.99" vaporized="end"/>
    <tripinfo id="f_0_1.11" depart="150.00" departLane="np16_nt1_0" departPos="8.02" departSpeed="0.00" departDelay="0.00" arrival="-1.00" arrivalLane="" arrivalPos="-1.00" arrivalSpeed="-1.00" duration="3450.00" routeLength="534.82" waitingTime="3340.00" waitingCount="8" stopTime="0.00" timeLoss="3421.52" rerouteNo="0" devices="tripinfo_f_0_1.11" vType="type1" speedFactor="1.11" vaporized="end"/>
    <tripinfo id="f_0_2.19" depart="156.00" departLane="np2_nt2_0" departPos="11.13" departSpeed="0.00" departDelay="0.54" arrival="-1.00" arrivalLane="" arrivalPos="-1.00" arrivalSpeed="-1.00" duration="3444.00" routeLength="345.63" waitingTime="3347.00" waitingCount="6" stopTime="0.00" timeLoss="3421.06" rerouteNo="0" devices="tripinfo_f_0_2.19" vType="type1" speedFactor="1.13" vaporized="end"/>