<?xml version="1.0" encoding="UTF-8"?>

<!-- generated on 2023-08-30 12:44:21 by Eclipse SUMO libsumo Version 1.18.0
<configuration xmlns:xsi="http://www.w3.org/2001/XMLSchema-instance" xsi:noNamespaceSchemaLocation="http://sumo.dlr.de/xsd/libsumoConfiguration.xsd">

    <input>
        <net-file value="/home/stefan/RESCO/./environments/arterial4x4/arterial4x4.net.xml"/>
        <route-files value="/home/stefan/RESCO/./environments/arterial4x4/arterial4x4_70.rou.xml"/>
    </input>

    <output>
        <tripinfo-output value="/home/stefan/results/ITRPO-tr0-arterial4x4-0-drq_norm-wait_norm/tripinfo_70.xml"/>
        <tripinfo-output.write-unfinished value="true"/>
    </output>

    <processing>
        <time-to-teleport value="-1"/>
    </processing>

    <report>
        <no-warnings value="True"/>
        <no-step-log value="True"/>
    </report>

    <random_number>
        <random value="true"/>
    </random_number>

</configuration>
-->

<tripinfos xmlns:xsi="http://www.w3.org/2001/XMLSchema-instance" xsi:noNamespaceSchemaLocation="http://sumo.dlr.de/xsd/tripinfo_file.xsd">
    <tripinfo id="f_0_2.0" depart="0.00" departLane="np2_nt2_0" departPos="40.54" departSpeed="0.00" departDelay="0.00" arrival="144.00" arrivalLane="nt15_np10_0" arrivalPos="75.00" arrivalSpeed="9.01" duration="144.00" routeLength="910.54" waitingTime="33.00" waitingCount="4" stopTime="0.00" timeLoss="60.55" rerouteNo="0" devices="tripinfo_f_0_2.0" vType="type1" speedFactor="0.92" vaporized=""/>
    <tripinfo id="f_0_0.0" depart="0.00" departLane="np13_nt13_0" departPos="46.34" departSpeed="0.00" departDelay="0.00" arrival="153.00" arrivalLane="nt4_np5_0" arrivalPos="75.00" arrivalSpeed="22.90" duration="153.00" routeLength="1301.55" waitingTime="44.00" waitingCount="5" stopTime="0.00" timeLoss="77.30" rerouteNo="0" devices="tripinfo_f_0_0.0" vType="type1" speedFactor="1.20" vaporized=""/>
    <tripinfo id="f_0_0.1" depart="14.00" departLane="np13_nt13_0" departPos="24.22" departSpeed="0.00" departDelay="0.36" arrival="155.00" arrivalLane="nt4_np5_0" arrivalPos="75.00" arrivalSpeed="22.26" duration="141.00" routeLength="1323.67" waitingTime="35.00" waitingCount="5" stopTime="0.00" timeLoss="65.70" rerouteNo="0" devices="tripinfo_f_0_0.1" vType="type1" speedFactor="1.23" vaporized=""/>
    <tripinfo id="f_0_3.0" depart="0.00" departLane="np3_nt3_0" departPos="40.14" departSpeed="0.00" departDelay="0.00" arrival="157.00" arrivalLane="nt14_np11_0" arrivalPos="75.00" arrivalSpeed="9.90" duration="157.00" routeLength="910.95" waitingTime="51.00" waitingCount="4" stopTime="0.00" timeLoss="79.56" rerouteNo="0" devices="tripinfo_f_0_3.0" vType="type1" speedFactor="0.98" vaporized=""/>
    <tripinfo id="f_0_2.1" depart="9.00" departLane="np2_nt2_0" departPos="27.06" departSpeed="0.00" departDelay="0.82" arrival="182.00" arrivalLane="nt15_np10_0" arrivalPos="75.00" arrivalSpeed="10.44" duration="173.00" routeLength="924.02" waitingTime="70.00" waitingCount="5" stopTime="0.00" timeLoss="97.80" rerouteNo="0" devices="tripinfo_f_0_2.1" vType="type1" speedFactor="1.02" vaporized=""/>
    <tripinfo id="f_0_3.1" depart="9.00" departLane="np3_nt3_0" departPos="21.09" departSpeed="0.00" departDelay="0.82" arrival="192.00" arrivalLane="nt14_np11_0" arrivalPos="75.00" arrivalSpeed="11.28" duration="183.00" routeLength="930.00" waitingTime="87.00" waitingCount="6" stopTime="0.00" timeLoss="112.57" rerouteNo="0" devices="tripinfo_f_0_3.1" vType="type1" speedFactor="1.12" vaporized=""/>
    <tripinfo id="f_0_2.2" depart="17.00" departLane="np2_nt2_0" departPos="46.44" departSpeed="0.00" departDelay="0.64" arrival="192.00" arrivalLane="nt15_np10_0" arrivalPos="75.00" arrivalSpeed="10.57" duration="175.00" routeLength="904.64" waitingTime="66.00" waitingCount="5" stopTime="0.00" timeLoss="96.49" rerouteNo="0" devices="tripinfo_f_0_2.2" vType="type1" speedFactor="0.97" vaporized=""/>
    <tripinfo id="f_0_3.2" depart="17.00" departLane="np3_nt3_0" departPos="29.46" departSpeed="0.00" departDelay="0.64" arrival="194.00" arrivalLane="nt14_np11_0" arrivalPos="75.00" arrivalSpeed="11.87" duration="177.00" routeLength="921.63" waitingTime="79.00" waitingCount="5" stopTime="0.00" timeLoss="107.43" rerouteNo="0" devices="tripinfo_f_0_3.2" vType="type1" speedFactor="1.11" vaporized=""/>
    <tripinfo id="f_0_1.0" depart="0.00" departLane="np16_nt1_0" departPos="32.18" departSpeed="0.00" departDelay="0.00" arrival="208.00" arrivalLane="nt16_np8_0" arrivalPos="75.00" arrivalSpeed="21.82" duration="208.00" routeLength="1315.70" waitingTime="78.00" waitingCount="8" stopTime="0.00" timeLoss="128.62" rerouteNo="0" devices="tripinfo_f_0_1.0" vType="type1" speedFactor="1.15" vaporized=""/>
    <tripinfo id="f_0_0.2" depart="28.00" departLane="np13_nt13_0" departPos="29.24" departSpeed="0.00" departDelay="0.73" arrival="214.00" arrivalLane="nt4_np5_0" arrivalPos="75.00" arrivalSpeed="15.97" duration="186.00" routeLength="1318.65" waitingTime="52.00" waitingCount="4" stopTime="0.00" timeLoss="78.27" rerouteNo="0" devices="tripinfo_f_0_0.2" vType="type1" speedFactor="0.85" vaporized=""/>
    <tripinfo id="f_0_0.3" depart="41.00" departLane="np13_nt13_0" departPos="34.59" departSpeed="0.00" departDelay="0.09" arrival="215.00" arrivalLane="nt4_np5_0" arrivalPos="75.00" arrivalSpeed="17.21" duration="174.00" routeLength="1313.30" waitingTime="46.00" waitingCount="5" stopTime="0.00" timeLoss="79.41" rerouteNo="0" devices="tripinfo_f_0_0.3" vType="type1" speedFactor="0.96" vaporized=""/>
    <tripinfo id="f_0_2.3" depart="25.00" departLane="np2_nt2_0" departPos="39.13" departSpeed="0.00" departDelay="0.45" arrival="217.00" arrivalLane="nt15_np10_0" arrivalPos="75.00" arrivalSpeed="10.53" duration="192.00" routeLength="911.95" waitingTime="72.00" waitingCount="8" stopTime="0.00" timeLoss="117.08" rerouteNo="0" devices="tripinfo_f_0_2.3" vType="type1" speedFactor="1.02" vaporized=""/>
    <tripinfo id="f_0_0.4" depart="55.00" departLane="np13_nt13_0" departPos="43.37" departSpeed="0.00" departDelay="0.46" arrival="217.00" arrivalLane="nt4_np5_0" arrivalPos="75.00" arrivalSpeed="17.85" duration="162.00" routeLength="1304.52" waitingTime="24.00" waitingCount="4" stopTime="0.00" timeLoss="66.83" rerouteNo="0" devices="tripinfo_f_0_0.4" vType="type1" speedFactor="0.96" vaporized=""/>
    <tripinfo id="f_0_1.1" depart="14.00" departLane="np16_nt1_0" departPos="63.40" departSpeed="0.00" departDelay="0.36" arrival="218.00" arrivalLane="nt16_np8_0" arrivalPos="75.00" arrivalSpeed="17.73" duration="204.00" routeLength="1284.48" waitingTime="55.00" waitingCount="8" stopTime="0.00" timeLoss="112.76" rerouteNo="0" devices="tripinfo_f_0_1.1" vType="type1" speedFactor="0.99" vaporized=""/>
    <tripinfo id="f_0_2.4" depart="33.00" departLane="np2_nt2_0" departPos="10.06" departSpeed="0.00" departDelay="0.27" arrival="227.00" arrivalLane="nt15_np10_0" arrivalPos="75.00" arrivalSpeed="10.43" duration="194.00" routeLength="941.02" waitingTime="71.00" waitingCount="8" stopTime="0.00" timeLoss="115.00" rerouteNo="0" devices="tripinfo_f_0_2.4" vType="type1" speedFactor="1.00" vaporized=""/>
    <tripinfo id="f_0_2.5" depart="41.00" departLane="np2_nt2_0" departPos="10.20" departSpeed="0.00" departDelay="0.09" arrival="248.00" arrivalLane="nt15_np10_0" arrivalPos="75.00" arrivalSpeed="9.71" duration="207.00" routeLength="940.88" waitingTime="67.00" waitingCount="8" stopTime="0.00" timeLoss="122.78" rerouteNo="0" devices="tripinfo_f_0_2.5" vType="type1" speedFactor="0.94" vaporized=""/>
    <tripinfo id="f_0_2.6" depart="50.00" departLane="np2_nt2_0" departPos="40.58" departSpeed="0.00" departDelay="0.91" arrival="250.00" arrivalLane="nt15_np10_0" arrivalPos="75.00" arrivalSpeed="11.95" duration="200.00" routeLength="910.50" waitingTime="69.00" waitingCount="8" stopTime="0.00" timeLoss="133.07" rerouteNo="0" devices="tripinfo_f_0_2.6" vType="type1" speedFactor="1.15" vaporized=""/>
    <tripinfo id="f_0_2.7" depart="58.00" departLane="np2_nt2_0" departPos="2.32" departSpeed="0.00" departDelay="0.73" arrival="252.00" arrivalLane="nt15_np10_0" arrivalPos="75.00" arrivalSpeed="9.64" duration="194.00" routeLength="948.76" waitingTime="48.00" waitingCount="8" stopTime="0.00" timeLoss="108.18" rerouteNo="0" devices="tripinfo_f_0_2.7" vType="type1" speedFactor="0.93" vaporized=""/>
    <tripinfo id="f_0_3.3" depart="25.00" departLane="np3_nt3_0" departPos="29.83" departSpeed="0.00" departDelay="0.45" arrival="253.00" arrivalLane="nt14_np11_0" arrivalPos="75.00" arrivalSpeed="9.09" duration="228.00" routeLength="921.26" waitingTime="121.00" waitingCount="3" stopTime="0.00" timeLoss="146.36" rerouteNo="0" devices="tripinfo_f_0_3.3" vType="type1" speedFactor="0.94" vaporized=""/>
    <tripinfo id="f_0_1.2" depart="28.00" departLane="np16_nt1_0" departPos="64.32" departSpeed="0.00" departDelay="0.73" arrival="259.00" arrivalLane="nt16_np8_0" arrivalPos="75.00" arrivalSpeed="16.17" duration="231.00" routeLength="1283.56" waitingTime="72.00" waitingCount="8" stopTime="0.00" timeLoss="126.22" rerouteNo="0" devices="tripinfo_f_0_1.2" vType="type1" speedFactor="0.86" vaporized=""/>
    <tripinfo id="f_0_2.8" depart="66.00" departLane="np2_nt2_0" departPos="28.70" departSpeed="0.00" departDelay="0.54" arrival="274.00" arrivalLane="nt15_np10_0" arrivalPos="75.00" arrivalSpeed="8.04" duration="208.00" routeLength="922.38" waitingTime="50.00" waitingCount="10" stopTime="0.00" timeLoss="117.84" rerouteNo="0" devices="tripinfo_f_0_2.8" vType="type1" speedFactor="0.85" vaporized=""/>
    <tripinfo id="f_0_2.9" depart="74.00" departLane="np2_nt2_0" departPos="17.18" departSpeed="0.00" departDelay="0.36" arrival="276.00" arrivalLane="nt15_np10_0" arrivalPos="75.00" arrivalSpeed="8.57" duration="202.00" routeLength="933.90" waitingTime="45.00" waitingCount="8" stopTime="0.00" timeLoss="120.01" rerouteNo="0" devices="tripinfo_f_0_2.9" vType="type1" speedFactor="0.95" vaporized=""/>
    <tripinfo id="f_0_0.5" depart="69.00" departLane="np13_nt13_0" departPos="43.57" departSpeed="0.00" departDelay="0.82" arrival="284.00" arrivalLane="nt4_np5_0" arrivalPos="75.00" arrivalSpeed="18.28" duration="215.00" routeLength="1304.32" waitingTime="91.00" waitingCount="5" stopTime="0.00" timeLoss="123.01" rerouteNo="0" devices="tripinfo_f_0_0.5" vType="type1" speedFactor="0.99" vaporized=""/>
    <tripinfo id="f_0_3.4" depart="33.00" departLane="np3_nt3_0" departPos="25.47" departSpeed="0.00" departDelay="0.27" arrival="287.00" arrivalLane="nt14_np11_0" arrivalPos="75.00" arrivalSpeed="10.59" duration="254.00" routeLength="925.62" waitingTime="144.00" waitingCount="6" stopTime="0.00" timeLoss="176.71" rerouteNo="0" devices="tripinfo_f_0_3.4" vType="type1" speedFactor="1.01" vaporized=""/>
    <tripinfo id="f_0_1.3" depart="41.00" departLane="np16_nt1_0" departPos="43.00" departSpeed="0.00" departDelay="0.09" arrival="288.00" arrivalLane="nt16_np8_0" arrivalPos="75.00" arrivalSpeed="19.62" duration="247.00" routeLength="1304.88" waitingTime="83.00" waitingCount="8" stopTime="0.00" timeLoss="158.11" rerouteNo="0" devices="tripinfo_f_0_1.3" vType="type1" speedFactor="1.03" vaporized=""/>
    <tripinfo id="f_0_1.4" depart="55.00" departLane="np16_nt1_0" departPos="33.39" departSpeed="0.00" departDelay="0.46" arrival="290.00" arrivalLane="nt16_np8_0" arrivalPos="75.00" arrivalSpeed="22.04" duration="235.00" routeLength="1314.49" waitingTime="61.00" waitingCount="8" stopTime="0.00" timeLoss="155.13" rerouteNo="0" devices="tripinfo_f_0_1.4" vType="type1" speedFactor="1.15" vaporized=""/>
    <tripinfo id="f_0_1.5" depart="69.00" departLane="np16_nt1_0" departPos="13.97" departSpeed="0.00" departDelay="0.82" arrival="313.00" arrivalLane="nt16_np8_0" arrivalPos="75.00" arrivalSpeed="17.75" duration="244.00" routeLength="1333.91" waitingTime="84.00" waitingCount="8" stopTime="0.00" timeLoss="142.35" rerouteNo="0" devices="tripinfo_f_0_1.5" vType="type1" speedFactor="0.91" vaporized=""/>
    <tripinfo id="f_0_3.5" depart="41.00" departLane="np3_nt3_0" departPos="21.06" departSpeed="0.00" departDelay="0.09" arrival="333.00" arrivalLane="nt14_np11_0" arrivalPos="75.00" arrivalSpeed="9.22" duration="292.00" routeLength="930.03" waitingTime="167.00" waitingCount="8" stopTime="0.00" timeLoss="206.56" rerouteNo="0" devices="tripinfo_f_0_3.5" vType="type1" speedFactor="0.92" vaporized=""/>
    <tripinfo id="f_0_3.6" depart="50.00" departLane="np3_nt3_0" departPos="18.03" departSpeed="0.00" departDelay="0.91" arrival="336.00" arrivalLane="nt14_np11_0" arrivalPos="75.00" arrivalSpeed="7.79" duration="286.00" routeLength="933.06" waitingTime="153.00" waitingCount="7" stopTime="0.00" timeLoss="189.73" rerouteNo="0" devices="tripinfo_f_0_3.6" vType="type1" speedFactor="0.81" vaporized=""/>
    <tripinfo id="f_0_3.7" depart="58.00" departLane="np3_nt3_0" departPos="1.29" departSpeed="0.00" departDelay="0.73" arrival="342.00" arrivalLane="nt14_np11_0" arrivalPos="75.00" arrivalSpeed="10.91" duration="284.00" routeLength="949.80" waitingTime="145.00" waitingCount="10" stopTime="0.00" timeLoss="206.30" rerouteNo="0" devices="tripinfo_f_0_3.7" vType="type1" speedFactor="1.03" vaporized=""/>
    <tripinfo id="f_0_2.10" depart="82.00" departLane="np2_nt2_0" departPos="9.40" departSpeed="0.00" departDelay="0.18" arrival="342.00" arrivalLane="nt15_np10_0" arrivalPos="75.00" arrivalSpeed="8.90" duration="260.00" routeLength="941.68" waitingTime="123.00" waitingCount="9" stopTime="0.00" timeLoss="178.35" rerouteNo="0" devices="tripinfo_f_0_2.10" vType="type1" speedFactor="0.97" vaporized=""/>
    <tripinfo id="f_0_0.6" depart="82.00" departLane="np13_nt13_0" departPos="15.13" departSpeed="0.00" departDelay="0.18" arrival="343.00" arrivalLane="nt4_np5_0" arrivalPos="75.00" arrivalSpeed="21.74" duration="261.00" routeLength="1332.76" waitingTime="131.00" waitingCount="6" stopTime="0.00" timeLoss="175.70" rerouteNo="0" devices="tripinfo_f_0_0.6" vType="type1" speedFactor="1.09" vaporized=""/>
    <tripinfo id="f_0_3.8" depart="66.00" departLane="np3_nt3_0" departPos="4.05" departSpeed="0.00" departDelay="0.54" arrival="345.00" arrivalLane="nt14_np11_0" arrivalPos="75.00" arrivalSpeed="10.37" duration="279.00" routeLength="947.04" waitingTime="143.00" waitingCount="8" stopTime="0.00" timeLoss="195.61" rerouteNo="0" devices="tripinfo_f_0_3.8" vType="type1" speedFactor="0.96" vaporized=""/>
    <tripinfo id="f_0_2.11" depart="90.00" departLane="np2_nt2_0" departPos="29.86" departSpeed="0.00" departDelay="0.00" arrival="346.00" arrivalLane="nt15_np10_0" arrivalPos="75.00" arrivalSpeed="7.52" duration="256.00" routeLength="921.22" waitingTime="109.00" waitingCount="8" stopTime="0.00" timeLoss="167.55" rerouteNo="0" devices="tripinfo_f_0_2.11" vType="type1" speedFactor="0.88" vaporized=""/>
    <tripinfo id="f_0_0.7" depart="96.00" departLane="np13_nt13_0" departPos="37.00" departSpeed="0.00" departDelay="0.55" arrival="354.00" arrivalLane="nt4_np5_0" arrivalPos="75.00" arrivalSpeed="17.78" duration="258.00" routeLength="1310.89" waitingTime="114.00" waitingCount="6" stopTime="0.00" timeLoss="155.58" rerouteNo="0" devices="tripinfo_f_0_0.7" vType="type1" speedFactor="0.90" vaporized=""/>
    <tripinfo id="f_0_0.8" depart="110.00" departLane="np13_nt13_0" departPos="13.09" departSpeed="0.00" departDelay="0.91" arrival="355.00" arrivalLane="nt4_np5_0" arrivalPos="75.00" arrivalSpeed="20.76" duration="245.00" routeLength="1334.80" waitingTime="113.00" waitingCount="5" stopTime="0.00" timeLoss="160.62" rerouteNo="0" devices="tripinfo_f_0_0.8" vType="type1" speedFactor="1.10" vaporized=""/>
    <tripinfo id="f_0_2.12" depart="99.00" departLane="np2_nt2_0" departPos="48.72" departSpeed="0.00" departDelay="0.82" arrival="366.00" arrivalLane="nt15_np10_0" arrivalPos="75.00" arrivalSpeed="10.94" duration="267.00" routeLength="902.36" waitingTime="123.00" waitingCount="11" stopTime="0.00" timeLoss="202.44" rerouteNo="0" devices="tripinfo_f_0_2.12" vType="type1" speedFactor="1.18" vaporized=""/>
    <tripinfo id="f_0_3.9" depart="74.00" departLane="np3_nt3_0" departPos="17.23" departSpeed="0.00" departDelay="0.36" arrival="367.00" arrivalLane="nt14_np11_0" arrivalPos="75.00" arrivalSpeed="9.72" duration="293.00" routeLength="933.86" waitingTime="151.00" waitingCount="8" stopTime="0.00" timeLoss="218.89" rerouteNo="0" devices="tripinfo_f_0_3.9" vType="type1" speedFactor="1.07" vaporized=""/>
    <tripinfo id="f_0_0.9" depart="123.00" departLane="np13_nt13_0" departPos="13.53" departSpeed="0.00" departDelay="0.28" arrival="374.00" arrivalLane="nt4_np5_0" arrivalPos="75.00" arrivalSpeed="18.23" duration="251.00" routeLength="1334.36" waitingTime="109.00" waitingCount="8" stopTime="0.00" timeLoss="159.54" rerouteNo="0" devices="tripinfo_f_0_0.9" vType="type1" speedFactor="1.02" vaporized=""/>
    <tripinfo id="f_0_0.10" depart="137.00" departLane="np13_nt13_0" departPos="18.81" departSpeed="0.00" departDelay="0.64" arrival="375.00" arrivalLane="nt4_np5_0" arrivalPos="75.00" arrivalSpeed="22.91" duration="238.00" routeLength="1329.08" waitingTime="116.00" waitingCount="6" stopTime="0.00" timeLoss="159.90" rerouteNo="0" devices="tripinfo_f_0_0.10" vType="type1" speedFactor="1.18" vaporized=""/>
    <tripinfo id="f_0_1.6" depart="82.00" departLane="np16_nt1_0" departPos="39.93" departSpeed="0.00" departDelay="0.18" arrival="377.00" arrivalLane="nt16_np8_0" arrivalPos="75.00" arrivalSpeed="19.28" duration="295.00" routeLength="1307.95" waitingTime="129.00" waitingCount="12" stopTime="0.00" timeLoss="207.38" rerouteNo="0" devices="tripinfo_f_0_1.6" vType="type1" speedFactor="1.04" vaporized=""/>
    <tripinfo id="f_0_0.11" depart="150.00" departLane="np13_nt13_0" departPos="44.26" departSpeed="0.00" departDelay="0.00" arrival="377.00" arrivalLane="nt4_np5_0" arrivalPos="75.00" arrivalSpeed="20.20" duration="227.00" routeLength="1303.63" waitingTime="91.00" waitingCount="6" stopTime="0.00" timeLoss="140.01" rerouteNo="0" devices="tripinfo_f_0_0.11" vType="type1" speedFactor="1.05" vaporized=""/>
    <tripinfo id="f_0_0.12" depart="164.00" departLane="np13_nt13_0" departPos="30.32" departSpeed="0.00" departDelay="0.37" arrival="379.00" arrivalLane="nt4_np5_0" arrivalPos="75.00" arrivalSpeed="20.07" duration="215.00" routeLength="1317.57" waitingTime="82.00" waitingCount="8" stopTime="0.00" timeLoss="125.59" rerouteNo="0" devices="tripinfo_f_0_0.12" vType="type1" speedFactor="1.02" vaporized=""/>
    <tripinfo id="f_0_1.7" depart="96.00" departLane="np16_nt1_0" departPos="42.51" departSpeed="0.00" departDelay="0.55" arrival="381.00" arrivalLane="nt16_np8_0" arrivalPos="75.00" arrivalSpeed="21.58" duration="285.00" routeLength="1305.37" waitingTime="121.00" waitingCount="12" stopTime="0.00" timeLoss="203.54" rerouteNo="0" devices="tripinfo_f_0_1.7" vType="type1" speedFactor="1.11" vaporized=""/>
    <tripinfo id="f_0_3.10" depart="82.00" departLane="np3_nt3_0" departPos="8.90" departSpeed="0.00" departDelay="0.18" arrival="393.00" arrivalLane="nt14_np11_0" arrivalPos="75.00" arrivalSpeed="8.79" duration="311.00" routeLength="942.19" waitingTime="163.00" waitingCount="9" stopTime="0.00" timeLoss="229.61" rerouteNo="0" devices="tripinfo_f_0_3.10" vType="type1" speedFactor="0.98" vaporized=""/>
    <tripinfo id="f_0_3.11" depart="90.00" departLane="np3_nt3_0" departPos="2.05" departSpeed="0.00" departDelay="0.00" arrival="395.00" arrivalLane="nt14_np11_0" arrivalPos="75.00" arrivalSpeed="8.41" duration="305.00" routeLength="949.04" waitingTime="149.00" waitingCount="8" stopTime="0.00" timeLoss="217.11" rerouteNo="0" devices="tripinfo_f_0_3.11" vType="type1" speedFactor="0.91" vaporized=""/>
    <tripinfo id="f_0_0.13" depart="178.00" departLane="np13_nt13_0" departPos="46.55" departSpeed="0.00" departDelay="0.73" arrival="399.00" arrivalLane="nt4_np5_0" arrivalPos="75.00" arrivalSpeed="13.68" duration="221.00" routeLength="1301.34" waitingTime="68.00" waitingCount="6" stopTime="0.00" timeLoss="101.81" rerouteNo="0" devices="tripinfo_f_0_0.13" vType="type1" speedFactor="0.76" vaporized=""/>
    <tripinfo id="f_0_0.14" depart="191.00" departLane="np13_nt13_0" departPos="5.30" departSpeed="0.00" departDelay="0.10" arrival="401.00" arrivalLane="nt4_np5_0" arrivalPos="75.00" arrivalSpeed="20.26" duration="210.00" routeLength="1342.59" waitingTime="64.00" waitingCount="7" stopTime="0.00" timeLoss="119.81" rerouteNo="0" devices="tripinfo_f_0_0.14" vType="type1" speedFactor="1.03" vaporized=""/>
    <tripinfo id="f_0_0.15" depart="205.00" departLane="np13_nt13_0" departPos="11.60" departSpeed="0.00" departDelay="0.46" arrival="402.00" arrivalLane="nt4_np5_0" arrivalPos="75.00" arrivalSpeed="16.88" duration="197.00" routeLength="1336.29" waitingTime="52.00" waitingCount="10" stopTime="0.00" timeLoss="99.75" rerouteNo="0" devices="tripinfo_f_0_0.15" vType="type1" speedFactor="0.95" vaporized=""/>
    <tripinfo id="f_0_0.16" depart="219.00" departLane="np13_nt13_0" departPos="30.80" departSpeed="0.00" departDelay="0.82" arrival="405.00" arrivalLane="nt4_np5_0" arrivalPos="75.00" arrivalSpeed="20.38" duration="186.00" routeLength="1317.09" waitingTime="64.00" waitingCount="6" stopTime="0.00" timeLoss="98.89" rerouteNo="0" devices="tripinfo_f_0_0.16" vType="type1" speedFactor="1.06" vaporized=""/>
    <tripinfo id="f_0_3.16" depart="182.00" departLane="np3_nt3_0" departPos="47.09" departSpeed="0.00" departDelay="51.09" arrival="406.00" arrivalLane="nt14_np11_0" arrivalPos="75.00" arrivalSpeed="11.34" duration="224.00" routeLength="904.00" waitingTime="113.00" waitingCount="7" stopTime="0.00" timeLoss="161.56" rerouteNo="0" devices="tripinfo_f_0_3.16" vType="type1" speedFactor="1.21" vaporized=""/>
    <tripinfo id="f_0_0.17" depart="232.00" departLane="np13_nt13_0" departPos="35.40" departSpeed="0.00" departDelay="0.19" arrival="414.00" arrivalLane="nt4_np5_0" arrivalPos="75.00" arrivalSpeed="15.54" duration="182.00" routeLength="1312.49" waitingTime="45.00" waitingCount="5" stopTime="0.00" timeLoss="79.28" rerouteNo="0" devices="tripinfo_f_0_0.17" vType="type1" speedFactor="0.89" vaporized=""/>
    <tripinfo id="f_0_0.18" depart="246.00" departLane="np13_nt13_0" departPos="46.33" departSpeed="0.00" departDelay="0.55" arrival="415.00" arrivalLane="nt4_np5_0" arrivalPos="75.00" arrivalSpeed="17.55" duration="169.00" routeLength="1301.56" waitingTime="38.00" waitingCount="4" stopTime="0.00" timeLoss="78.15" rerouteNo="0" devices="tripinfo_f_0_0.18" vType="type1" speedFactor="1.00" vaporized=""/>
    <tripinfo id="f_0_0.19" depart="260.00" departLane="np13_nt13_0" departPos="29.03" departSpeed="0.00" departDelay="0.92" arrival="417.00" arrivalLane="nt4_np5_0" arrivalPos="75.00" arrivalSpeed="18.09" duration="157.00" routeLength="1318.86" waitingTime="31.00" waitingCount="4" stopTime="0.00" timeLoss="63.58" rerouteNo="0" devices="tripinfo_f_0_0.19" vType="type1" speedFactor="0.99" vaporized=""/>
    <tripinfo id="f_0_0.20" depart="273.00" departLane="np13_nt13_0" departPos="48.35" departSpeed="0.00" departDelay="0.28" arrival="427.00" arrivalLane="nt4_np5_0" arrivalPos="75.00" arrivalSpeed="22.09" duration="154.00" routeLength="1299.54" waitingTime="37.00" waitingCount="5" stopTime="0.00" timeLoss="72.04" rerouteNo="0" devices="tripinfo_f_0_0.20" vType="type1" speedFactor="1.12" vaporized=""/>
    <tripinfo id="f_0_0.21" depart="287.00" departLane="np13_nt13_0" departPos="45.07" departSpeed="0.00" departDelay="0.64" arrival="432.00" arrivalLane="nt4_np5_0" arrivalPos="75.00" arrivalSpeed="19.22" duration="145.00" routeLength="1302.82" waitingTime="32.00" waitingCount="2" stopTime="0.00" timeLoss="58.09" rerouteNo="0" devices="tripinfo_f_0_0.21" vType="type1" speedFactor="1.06" vaporized=""/>
    <tripinfo id="f_0_3.12" depart="133.00" departLane="np3_nt3_0" departPos="0.02" departSpeed="0.00" departDelay="34.82" arrival="436.00" arrivalLane="nt14_np11_0" arrivalPos="75.00" arrivalSpeed="12.01" duration="303.00" routeLength="951.07" waitingTime="194.00" waitingCount="7" stopTime="0.00" timeLoss="236.67" rerouteNo="0" devices="tripinfo_f_0_3.12" vType="type1" speedFactor="1.21" vaporized=""/>
    <tripinfo id="f_0_2.25" depart="205.00" departLane="np2_nt2_0" departPos="18.83" departSpeed="0.00" departDelay="0.45" arrival="438.00" arrivalLane="nt15_np10_0" arrivalPos="75.00" arrivalSpeed="9.78" duration="233.00" routeLength="932.25" waitingTime="110.00" waitingCount="8" stopTime="0.00" timeLoss="151.22" rerouteNo="0" devices="tripinfo_f_0_2.25" vType="type1" speedFactor="0.96" vaporized=""/>
    <tripinfo id="f_0_2.13" depart="107.00" departLane="np2_nt2_0" departPos="31.68" departSpeed="0.00" departDelay="0.63" arrival="439.00" arrivalLane="nt15_np10_0" arrivalPos="75.00" arrivalSpeed="12.04" duration="332.00" routeLength="919.40" waitingTime="174.00" waitingCount="13" stopTime="0.00" timeLoss="267.98" rerouteNo="0" devices="tripinfo_f_0_2.13" vType="type1" speedFactor="1.20" vaporized=""/>
    <tripinfo id="f_0_2.14" depart="115.00" departLane="np2_nt2_0" departPos="9.11" departSpeed="0.00" departDelay="0.45" arrival="446.00" arrivalLane="nt15_np10_0" arrivalPos="75.00" arrivalSpeed="9.90" duration="331.00" routeLength="941.97" waitingTime="172.00" waitingCount="14" stopTime="0.00" timeLoss="257.31" rerouteNo="0" devices="tripinfo_f_0_2.14" vType="type1" speedFactor="1.06" vaporized=""/>
    <tripinfo id="f_1_0.0" depart="300.00" departLane="np13_nt13_0" departPos="66.54" departSpeed="0.00" departDelay="0.00" arrival="448.00" arrivalLane="nt4_np5_0" arrivalPos="75.00" arrivalSpeed="16.78" duration="148.00" routeLength="1281.35" waitingTime="30.00" waitingCount="4" stopTime="0.00" timeLoss="54.00" rerouteNo="0" devices="tripinfo_f_1_0.0" vType="type1" speedFactor="0.95" vaporized=""/>
    <tripinfo id="f_0_2.15" depart="123.00" departLane="np2_nt2_0" departPos="26.44" departSpeed="0.00" departDelay="0.27" arrival="449.00" arrivalLane="nt15_np10_0" arrivalPos="75.00" arrivalSpeed="9.37" duration="326.00" routeLength="924.64" waitingTime="164.00" waitingCount="11" stopTime="0.00" timeLoss="244.16" rerouteNo="0" devices="tripinfo_f_0_2.15" vType="type1" speedFactor="0.94" vaporized=""/>
    <tripinfo id="f_0_2.16" depart="131.00" departLane="np2_nt2_0" departPos="18.87" departSpeed="0.00" departDelay="0.09" arrival="468.00" arrivalLane="nt15_np10_0" arrivalPos="75.00" arrivalSpeed="9.35" duration="337.00" routeLength="932.21" waitingTime="159.00" waitingCount="13" stopTime="0.00" timeLoss="247.71" rerouteNo="0" devices="tripinfo_f_0_2.16" vType="type1" speedFactor="0.87" vaporized=""/>
    <tripinfo id="f_0_1.14" depart="191.00" departLane="np16_nt1_0" departPos="7.35" departSpeed="0.00" departDelay="0.10" arrival="469.00" arrivalLane="nt16_np8_0" arrivalPos="75.00" arrivalSpeed="17.17" duration="278.00" routeLength="1340.53" waitingTime="120.00" waitingCount="10" stopTime="0.00" timeLoss="180.36" rerouteNo="0" devices="tripinfo_f_0_1.14" vType="type1" speedFactor="0.96" vaporized=""/>
    <tripinfo id="f_0_2.26" depart="213.00" departLane="np2_nt2_0" departPos="0.17" departSpeed="0.00" departDelay="0.27" arrival="488.00" arrivalLane="nt15_np10_0" arrivalPos="75.00" arrivalSpeed="10.12" duration="275.00" routeLength="950.91" waitingTime="136.00" waitingCount="12" stopTime="0.00" timeLoss="191.66" rerouteNo="0" devices="tripinfo_f_0_2.26" vType="type1" speedFactor="0.96" vaporized=""/>
    <tripinfo id="f_0_2.17" depart="140.00" departLane="np2_nt2_0" departPos="13.50" departSpeed="0.00" departDelay="0.91" arrival="490.00" arrivalLane="nt15_np10_0" arrivalPos="75.00" arrivalSpeed="9.01" duration="350.00" routeLength="937.58" waitingTime="198.00" waitingCount="12" stopTime="0.00" timeLoss="265.21" rerouteNo="0" devices="tripinfo_f_0_2.17" vType="type1" speedFactor="0.93" vaporized=""/>
    <tripinfo id="f_0_3.13" depart="135.00" departLane="np3_nt3_0" departPos="0.00" departSpeed="0.00" departDelay="28.63" arrival="496.00" arrivalLane="nt14_np11_0" arrivalPos="75.00" arrivalSpeed="11.63" duration="361.00" routeLength="951.09" waitingTime="242.00" waitingCount="7" stopTime="0.00" timeLoss="290.66" rerouteNo="0" devices="tripinfo_f_0_3.13" vType="type1" speedFactor="1.14" vaporized=""/>
    <tripinfo id="f_0_0.22" depart="300.00" departLane="np13_nt13_0" departPos="33.56" departSpeed="0.00" departDelay="0.01" arrival="499.00" arrivalLane="nt4_np5_0" arrivalPos="75.00" arrivalSpeed="16.36" duration="199.00" routeLength="1314.33" waitingTime="66.00" waitingCount="5" stopTime="0.00" timeLoss="98.28" rerouteNo="0" devices="tripinfo_f_0_0.22" vType="type1" speedFactor="0.91" vaporized=""/>
    <tripinfo id="f_1_0.1" depart="308.00" departLane="np13_nt13_0" departPos="46.37" departSpeed="0.00" departDelay="0.19" arrival="514.00" arrivalLane="nt4_np5_0" arrivalPos="75.00" arrivalSpeed="17.89" duration="206.00" routeLength="1301.52" waitingTime="70.00" waitingCount="7" stopTime="0.00" timeLoss="110.97" rerouteNo="0" devices="tripinfo_f_1_0.1" vType="type1" speedFactor="0.96" vaporized=""/>
    <tripinfo id="f_0_3.14" depart="138.00" departLane="np3_nt3_0" departPos="0.00" departSpeed="0.00" departDelay="23.45" arrival="521.00" arrivalLane="nt14_np11_0" arrivalPos="75.00" arrivalSpeed="11.83" duration="383.00" routeLength="951.09" waitingTime="257.00" waitingCount="9" stopTime="0.00" timeLoss="313.00" rerouteNo="0" devices="tripinfo_f_0_3.14" vType="type1" speedFactor="1.15" vaporized=""/>
    <tripinfo id="f_1_0.2" depart="316.00" departLane="np13_nt13_0" departPos="2.31" departSpeed="0.00" departDelay="0.38" arrival="523.00" arrivalLane="nt4_np5_0" arrivalPos="75.00" arrivalSpeed="18.43" duration="207.00" routeLength="1345.58" waitingTime="58.00" waitingCount="7" stopTime="0.00" timeLoss="109.17" rerouteNo="0" devices="tripinfo_f_1_0.2" vType="type1" speedFactor="0.95" vaporized=""/>