<?xml version="1.0" encoding="UTF-8"?>

<!-- generated on 2023-08-30 12:23:20 by Eclipse SUMO libsumo Version 1.18.0
<configuration xmlns:xsi="http://www.w3.org/2001/XMLSchema-instance" xsi:noNamespaceSchemaLocation="http://sumo.dlr.de/xsd/libsumoConfiguration.xsd">

    <input>
        <net-file value="/home/stefan/RESCO/./environments/arterial4x4/arterial4x4.net.xml"/>
        <route-files value="/home/stefan/RESCO/./environments/arterial4x4/arterial4x4_14.rou.xml"/>
    </input>

    <output>
        <tripinfo-output value="/home/stefan/results/ITRPO-tr0-arterial4x4-0-drq_norm-wait_norm/tripinfo_14.xml"/>
        <tripinfo-output.write-unfinished value="true"/>
    </output>

    <processing>
        <time-to-teleport value="-1"/>
    </processing>

    <report>
        <no-warnings value="True"/>
        <no-step-log value="True"/>
    </report>

    <random_number>
        <random value="true"/>
    </random_number>

</configuration>
-->

<tripinfos xmlns:xsi="http://www.w3.org/2001/XMLSchema-instance" xsi:noNamespaceSchemaLocation="http://sumo.dlr.de/xsd/tripinfo_file.xsd">
    <tripinfo id="f_0_3.0" depart="0.00" departLane="np3_nt3_0" departPos="52.46" departSpeed="0.00" departDelay="0.00" arrival="167.00" arrivalLane="nt14_np11_0" arrivalPos="75.00" arrivalSpeed="12.09" duration="167.00" routeLength="898.63" waitingTime="74.00" waitingCount="4" stopTime="0.00" timeLoss="100.70" rerouteNo="0" devices="tripinfo_f_0_3.0" vType="type1" speedFactor="1.14" vaporized=""/>
    <tripinfo id="f_0_3.1" depart="9.00" departLane="np3_nt3_0" departPos="37.93" departSpeed="0.00" departDelay="0.82" arrival="170.00" arrivalLane="nt14_np11_0" arrivalPos="75.00" arrivalSpeed="10.88" duration="161.00" routeLength="913.16" waitingTime="54.00" waitingCount="6" stopTime="0.00" timeLoss="83.57" rerouteNo="0" devices="tripinfo_f_0_3.1" vType="type1" speedFactor="0.99" vaporized=""/>
    <tripinfo id="f_0_3.2" depart="17.00" departLane="np3_nt3_0" departPos="0.48" departSpeed="0.00" departDelay="0.64" arrival="199.00" arrivalLane="nt14_np11_0" arrivalPos="75.00" arrivalSpeed="7.05" duration="182.00" routeLength="950.61" waitingTime="59.00" waitingCount="4" stopTime="0.00" timeLoss="86.94" rerouteNo="0" devices="tripinfo_f_0_3.2" vType="type1" speedFactor="0.84" vaporized=""/>
    <tripinfo id="f_0_3.3" depart="25.00" departLane="np3_nt3_0" departPos="31.59" departSpeed="0.00" departDelay="0.45" arrival="225.00" arrivalLane="nt14_np11_0" arrivalPos="75.00" arrivalSpeed="7.51" duration="200.00" routeLength="919.50" waitingTime="68.00" waitingCount="4" stopTime="0.00" timeLoss="100.20" rerouteNo="0" devices="tripinfo_f_0_3.3" vType="type1" speedFactor="0.77" vaporized=""/>
    <tripinfo id="f_0_3.4" depart="33.00" departLane="np3_nt3_0" departPos="16.91" departSpeed="0.00" departDelay="0.27" arrival="227.00" arrivalLane="nt14_np11_0" arrivalPos="75.00" arrivalSpeed="9.79" duration="194.00" routeLength="934.18" waitingTime="59.00" waitingCount="6" stopTime="0.00" timeLoss="108.88" rerouteNo="0" devices="tripinfo_f_0_3.4" vType="type1" speedFactor="0.92" vaporized=""/>
    <tripinfo id="f_0_2.0" depart="0.00" departLane="np2_nt2_0" departPos="59.92" departSpeed="0.00" departDelay="0.00" arrival="264.00" arrivalLane="nt15_np10_0" arrivalPos="75.00" arrivalSpeed="8.54" duration="264.00" routeLength="891.16" waitingTime="150.00" waitingCount="4" stopTime="0.00" timeLoss="178.02" rerouteNo="0" devices="tripinfo_f_0_2.0" vType="type1" speedFactor="0.87" vaporized=""/>
    <tripinfo id="f_0_2.1" depart="9.00" departLane="np2_nt2_0" departPos="44.60" departSpeed="0.00" departDelay="0.82" arrival="283.00" arrivalLane="nt15_np10_0" arrivalPos="75.00" arrivalSpeed="9.39" duration="274.00" routeLength="906.48" waitingTime="151.00" waitingCount="6" stopTime="0.00" timeLoss="191.15" rerouteNo="0" devices="tripinfo_f_0_2.1" vType="type1" speedFactor="0.92" vaporized=""/>
    <tripinfo id="f_0_1.0" depart="0.00" departLane="np16_nt1_0" departPos="67.29" departSpeed="0.00" departDelay="0.00" arrival="298.00" arrivalLane="nt16_np8_0" arrivalPos="75.00" arrivalSpeed="22.80" duration="298.00" routeLength="1280.59" waitingTime="178.00" waitingCount="10" stopTime="0.00" timeLoss="221.40" rerouteNo="0" devices="tripinfo_f_0_1.0" vType="type1" speedFactor="1.17" vaporized=""/>
    <tripinfo id="f_0_2.2" depart="17.00" departLane="np2_nt2_0" departPos="9.43" departSpeed="0.00" departDelay="0.64" arrival="303.00" arrivalLane="nt15_np10_0" arrivalPos="75.00" arrivalSpeed="9.80" duration="286.00" routeLength="941.65" waitingTime="148.00" waitingCount="11" stopTime="0.00" timeLoss="200.14" rerouteNo="0" devices="tripinfo_f_0_2.2" vType="type1" speedFactor="0.92" vaporized=""/>
    <tripinfo id="f_0_2.3" depart="25.00" departLane="np2_nt2_0" departPos="11.26" departSpeed="0.00" departDelay="0.45" arrival="305.00" arrivalLane="nt15_np10_0" arrivalPos="75.00" arrivalSpeed="9.45" duration="280.00" routeLength="939.82" waitingTime="139.00" waitingCount="8" stopTime="0.00" timeLoss="197.68" rerouteNo="0" devices="tripinfo_f_0_2.3" vType="type1" speedFactor="0.97" vaporized=""/>
    <tripinfo id="f_0_1.1" depart="14.00" departLane="np16_nt1_0" departPos="38.74" departSpeed="0.00" departDelay="0.36" arrival="329.00" arrivalLane="nt16_np8_0" arrivalPos="75.00" arrivalSpeed="18.53" duration="315.00" routeLength="1309.14" waitingTime="141.00" waitingCount="11" stopTime="0.00" timeLoss="221.16" rerouteNo="0" devices="tripinfo_f_0_1.1" vType="type1" speedFactor="0.98" vaporized=""/>
    <tripinfo id="f_0_1.2" depart="28.00" departLane="np16_nt1_0" departPos="26.78" departSpeed="0.00" departDelay="0.73" arrival="330.00" arrivalLane="nt16_np8_0" arrivalPos="75.00" arrivalSpeed="19.45" duration="302.00" routeLength="1321.10" waitingTime="131.00" waitingCount="12" stopTime="0.00" timeLoss="211.77" rerouteNo="0" devices="tripinfo_f_0_1.2" vType="type1" speedFactor="1.02" vaporized=""/>
    <tripinfo id="f_0_2.4" depart="33.00" departLane="np2_nt2_0" departPos="0.50" departSpeed="0.00" departDelay="0.27" arrival="363.00" arrivalLane="nt15_np10_0" arrivalPos="75.00" arrivalSpeed="8.74" duration="330.00" routeLength="950.58" waitingTime="157.00" waitingCount="12" stopTime="0.00" timeLoss="243.42" rerouteNo="0" devices="tripinfo_f_0_2.4" vType="type1" speedFactor="0.93" vaporized=""/>
    <tripinfo id="f_0_2.5" depart="41.00" departLane="np2_nt2_0" departPos="31.65" departSpeed="0.00" departDelay="0.09" arrival="398.00" arrivalLane="nt15_np10_0" arrivalPos="75.00" arrivalSpeed="8.92" duration="357.00" routeLength="919.43" waitingTime="212.00" waitingCount="10" stopTime="0.00" timeLoss="279.46" rerouteNo="0" devices="tripinfo_f_0_2.5" vType="type1" speedFactor="1.00" vaporized=""/>
    <tripinfo id="f_0_2.6" depart="50.00" departLane="np2_nt2_0" departPos="9.40" departSpeed="0.00" departDelay="0.91" arrival="401.00" arrivalLane="nt15_np10_0" arrivalPos="75.00" arrivalSpeed="7.26" duration="351.00" routeLength="941.68" waitingTime="198.00" waitingCount="9" stopTime="0.00" timeLoss="260.45" rerouteNo="0" devices="tripinfo_f_0_2.6" vType="type1" speedFactor="0.88" vaporized=""/>
    <tripinfo id="f_0_2.7" depart="58.00" departLane="np2_nt2_0" departPos="11.09" departSpeed="0.00" departDelay="0.73" arrival="403.00" arrivalLane="nt15_np10_0" arrivalPos="75.00" arrivalSpeed="9.92" duration="345.00" routeLength="939.99" waitingTime="198.00" waitingCount="10" stopTime="0.00" timeLoss="267.28" rerouteNo="0" devices="tripinfo_f_0_2.7" vType="type1" speedFactor="1.02" vaporized=""/>
    <tripinfo id="f_0_2.8" depart="66.00" departLane="np2_nt2_0" departPos="22.93" departSpeed="0.00" departDelay="0.54" arrival="405.00" arrivalLane="nt15_np10_0" arrivalPos="75.00" arrivalSpeed="10.72" duration="339.00" routeLength="928.15" waitingTime="193.00" waitingCount="10" stopTime="0.00" timeLoss="267.93" rerouteNo="0" devices="tripinfo_f_0_2.8" vType="type1" speedFactor="1.10" vaporized=""/>
    <tripinfo id="f_0_0.0" depart="0.00" departLane="np13_nt13_0" departPos="60.51" departSpeed="0.00" departDelay="0.00" arrival="445.00" arrivalLane="nt4_np5_0" arrivalPos="75.00" arrivalSpeed="21.07" duration="445.00" routeLength="1287.38" waitingTime="335.00" waitingCount="5" stopTime="0.00" timeLoss="367.81" rerouteNo="0" devices="tripinfo_f_0_0.0" vType="type1" speedFactor="1.17" vaporized=""/>
    <tripinfo id="f_0_2.9" depart="74.00" departLane="np2_nt2_0" departPos="30.49" departSpeed="0.00" departDelay="0.36" arrival="457.00" arrivalLane="nt15_np10_0" arrivalPos="75.00" arrivalSpeed="10.47" duration="383.00" routeLength="920.59" waitingTime="241.00" waitingCount="9" stopTime="0.00" timeLoss="306.77" rerouteNo="0" devices="tripinfo_f_0_2.9" vType="type1" speedFactor="1.02" vaporized=""/>
    <tripinfo id="f_0_0.1" depart="14.00" departLane="np13_nt13_0" departPos="38.30" departSpeed="0.00" departDelay="0.36" arrival="462.00" arrivalLane="nt4_np5_0" arrivalPos="75.00" arrivalSpeed="18.17" duration="448.00" routeLength="1309.59" waitingTime="325.00" waitingCount="6" stopTime="0.00" timeLoss="354.49" rerouteNo="0" devices="tripinfo_f_0_0.1" vType="type1" speedFactor="0.98" vaporized=""/>
    <tripinfo id="f_0_0.2" depart="28.00" departLane="np13_nt13_0" departPos="39.26" departSpeed="0.00" departDelay="0.73" arrival="484.00" arrivalLane="nt4_np5_0" arrivalPos="75.00" arrivalSpeed="17.96" duration="456.00" routeLength="1308.63" waitingTime="314.00" waitingCount="10" stopTime="0.00" timeLoss="359.19" rerouteNo="0" devices="tripinfo_f_0_0.2" vType="type1" speedFactor="0.95" vaporized=""/>
    <tripinfo id="f_0_0.3" depart="41.00" departLane="np13_nt13_0" departPos="22.73" departSpeed="0.00" departDelay="0.09" arrival="485.00" arrivalLane="nt4_np5_0" arrivalPos="75.00" arrivalSpeed="18.34" duration="444.00" routeLength="1325.16" waitingTime="285.00" waitingCount="11" stopTime="0.00" timeLoss="348.21" rerouteNo="0" devices="tripinfo_f_0_0.3" vType="type1" speedFactor="0.96" vaporized=""/>
    <tripinfo id="f_0_0.4" depart="55.00" departLane="np13_nt13_0" departPos="23.56" departSpeed="0.00" departDelay="0.46" arrival="487.00" arrivalLane="nt4_np5_0" arrivalPos="75.00" arrivalSpeed="21.25" duration="432.00" routeLength="1324.33" waitingTime="265.00" waitingCount="12" stopTime="0.00" timeLoss="348.41" rerouteNo="0" devices="tripinfo_f_0_0.4" vType="type1" speedFactor="1.10" vaporized=""/>
    <tripinfo id="f_0_0.5" depart="69.00" departLane="np13_nt13_0" departPos="7.11" departSpeed="0.00" departDelay="0.82" arrival="498.00" arrivalLane="nt4_np5_0" arrivalPos="75.00" arrivalSpeed="19.64" duration="429.00" routeLength="1340.78" waitingTime="257.00" waitingCount="13" stopTime="0.00" timeLoss="338.39" rerouteNo="0" devices="tripinfo_f_0_0.5" vType="type1" speedFactor="1.03" vaporized=""/>
    <tripinfo id="f_0_3.5" depart="41.00" departLane="np3_nt3_0" departPos="18.90" departSpeed="0.00" departDelay="0.09" arrival="588.00" arrivalLane="nt14_np11_0" arrivalPos="75.00" arrivalSpeed="8.92" duration="547.00" routeLength="932.19" waitingTime="425.00" waitingCount="5" stopTime="0.00" timeLoss="461.64" rerouteNo="0" devices="tripinfo_f_0_3.5" vType="type1" speedFactor="0.92" vaporized=""/>
    <tripinfo id="f_0_3.6" depart="50.00" departLane="np3_nt3_0" departPos="26.32" departSpeed="0.00" departDelay="0.91" arrival="632.00" arrivalLane="nt14_np11_0" arrivalPos="75.00" arrivalSpeed="8.68" duration="582.00" routeLength="924.77" waitingTime="466.00" waitingCount="7" stopTime="0.00" timeLoss="504.37" rerouteNo="0" devices="tripinfo_f_0_3.6" vType="type1" speedFactor="1.00" vaporized=""/>
    <tripinfo id="f_0_3.7" depart="58.00" departLane="np3_nt3_0" departPos="17.24" departSpeed="0.00" departDelay="0.73" arrival="678.00" arrivalLane="nt14_np11_0" arrivalPos="75.00" arrivalSpeed="8.83" duration="620.00" routeLength="933.85" waitingTime="489.00" waitingCount="10" stopTime="0.00" timeLoss="534.73" rerouteNo="0" devices="tripinfo_f_0_3.7" vType="type1" speedFactor="0.91" vaporized=""/>
    <tripinfo id="f_0_3.8" depart="66.00" departLane="np3_nt3_0" departPos="18.12" departSpeed="0.00" departDelay="0.54" arrival="681.00" arrivalLane="nt14_np11_0" arrivalPos="75.00" arrivalSpeed="10.34" duration="615.00" routeLength="932.97" waitingTime="474.00" waitingCount="9" stopTime="0.00" timeLoss="537.05" rerouteNo="0" devices="tripinfo_f_0_3.8" vType="type1" speedFactor="1.02" vaporized=""/>
    <tripinfo id="f_0_3.9" depart="74.00" departLane="np3_nt3_0" departPos="8.94" departSpeed="0.00" departDelay="0.36" arrival="683.00" arrivalLane="nt14_np11_0" arrivalPos="75.00" arrivalSpeed="9.54" duration="609.00" routeLength="942.15" waitingTime="461.00" waitingCount="10" stopTime="0.00" timeLoss="529.27" rerouteNo="0" devices="tripinfo_f_0_3.9" vType="type1" speedFactor="0.99" vaporized=""/>
    <tripinfo id="f_0_3.10" depart="82.00" departLane="np3_nt3_0" departPos="9.51" departSpeed="0.00" departDelay="0.18" arrival="686.00" arrivalLane="nt14_np11_0" arrivalPos="75.00" arrivalSpeed="7.46" duration="604.00" routeLength="941.58" waitingTime="440.00" waitingCount="9" stopTime="0.00" timeLoss="508.71" rerouteNo="0" devices="tripinfo_f_0_3.10" vType="type1" speedFactor="0.83" vaporized=""/>
    <tripinfo id="f_0_3.11" depart="90.00" departLane="np3_nt3_0" departPos="4.83" departSpeed="0.00" departDelay="0.00" arrival="713.00" arrivalLane="nt14_np11_0" arrivalPos="75.00" arrivalSpeed="7.33" duration="623.00" routeLength="946.26" waitingTime="462.00" waitingCount="11" stopTime="0.00" timeLoss="533.44" rerouteNo="0" devices="tripinfo_f_0_3.11" vType="type1" speedFactor="0.88" vaporized=""/>
    <tripinfo id="f_0_3.12" depart="99.00" departLane="np3_nt3_0" departPos="8.65" departSpeed="0.00" departDelay="0.82" arrival="715.00" arrivalLane="nt14_np11_0" arrivalPos="75.00" arrivalSpeed="11.01" duration="616.00" routeLength="942.44" waitingTime="481.00" waitingCount="10" stopTime="0.00" timeLoss="541.63" rerouteNo="0" devices="tripinfo_f_0_3.12" vType="type1" speedFactor="1.07" vaporized=""/>
    <tripinfo id="f_0_3.13" depart="107.00" departLane="np3_nt3_0" departPos="0.00" departSpeed="0.00" departDelay="0.63" arrival="717.00" arrivalLane="nt14_np11_0" arrivalPos="75.00" arrivalSpeed="11.10" duration="610.00" routeLength="951.09" waitingTime="467.00" waitingCount="11" stopTime="0.00" timeLoss="535.16" rerouteNo="0" devices="tripinfo_f_0_3.13" vType="type1" speedFactor="1.07" vaporized=""/>
    <tripinfo id="f_0_3.21" depart="490.00" departLane="np3_nt3_0" departPos="64.39" departSpeed="0.00" departDelay="318.18" arrival="719.00" arrivalLane="nt14_np11_0" arrivalPos="75.00" arrivalSpeed="9.83" duration="229.00" routeLength="886.70" waitingTime="119.00" waitingCount="8" stopTime="0.00" timeLoss="158.01" rerouteNo="0" devices="tripinfo_f_0_3.21" vType="type1" speedFactor="1.05" vaporized=""/>
    <tripinfo id="f_0_3.14" depart="438.00" departLane="np3_nt3_0" departPos="0.00" departSpeed="0.00" departDelay="323.45" arrival="721.00" arrivalLane="nt14_np11_0" arrivalPos="75.00" arrivalSpeed="10.45" duration="283.00" routeLength="951.09" waitingTime="126.00" waitingCount="14" stopTime="0.00" timeLoss="207.49" rerouteNo="0" devices="tripinfo_f_0_3.14" vType="type1" speedFactor="1.06" vaporized=""/>
    <tripinfo id="f_0_3.15" depart="453.00" departLane="np3_nt3_0" departPos="0.00" departSpeed="0.00" departDelay="330.27" arrival="723.00" arrivalLane="nt14_np11_0" arrivalPos="75.00" arrivalSpeed="10.79" duration="270.00" routeLength="951.09" waitingTime="119.00" waitingCount="13" stopTime="0.00" timeLoss="195.77" rerouteNo="0" devices="tripinfo_f_0_3.15" vType="type1" speedFactor="1.08" vaporized=""/>
    <tripinfo id="f_0_3.16" depart="467.00" departLane="np3_nt3_0" departPos="0.00" departSpeed="0.00" departDelay="336.09" arrival="736.00" arrivalLane="nt14_np11_0" arrivalPos="75.00" arrivalSpeed="11.43" duration="269.00" routeLength="951.09" waitingTime="115.00" waitingCount="11" stopTime="0.00" timeLoss="199.48" rerouteNo="0" devices="tripinfo_f_0_3.16" vType="type1" speedFactor="1.15" vaporized=""/>
    <tripinfo id="f_0_3.17" depart="470.00" departLane="np3_nt3_0" departPos="0.80" departSpeed="0.00" departDelay="330.91" arrival="738.00" arrivalLane="nt14_np11_0" arrivalPos="75.00" arrivalSpeed="10.83" duration="268.00" routeLength="950.29" waitingTime="111.00" waitingCount="12" stopTime="0.00" timeLoss="201.40" rerouteNo="0" devices="tripinfo_f_0_3.17" vType="type1" speedFactor="1.21" vaporized=""/>
    <tripinfo id="f_0_3.18" depart="473.00" departLane="np3_nt3_0" departPos="1.94" departSpeed="0.00" departDelay="325.72" arrival="747.00" arrivalLane="nt14_np11_0" arrivalPos="75.00" arrivalSpeed="10.20" duration="274.00" routeLength="949.15" waitingTime="105.00" waitingCount="13" stopTime="0.00" timeLoss="197.73" rerouteNo="0" devices="tripinfo_f_0_3.18" vType="type1" speedFactor="1.04" vaporized=""/>
    <tripinfo id="f_0_3.19" depart="476.00" departLane="np3_nt3_0" departPos="0.00" departSpeed="0.00" departDelay="320.54" arrival="792.00" arrivalLane="nt14_np11_0" arrivalPos="75.00" arrivalSpeed="10.50" duration="316.00" routeLength="951.09" waitingTime="138.00" waitingCount="13" stopTime="0.00" timeLoss="237.74" rerouteNo="0" devices="tripinfo_f_0_3.19" vType="type1" speedFactor="1.02" vaporized=""/>
    <tripinfo id="f_0_3.20" depart="489.00" departLane="np3_nt3_0" departPos="0.00" departSpeed="0.00" departDelay="325.36" arrival="794.00" arrivalLane="nt14_np11_0" arrivalPos="75.00" arrivalSpeed="11.61" duration="305.00" routeLength="951.09" waitingTime="124.00" waitingCount="11" stopTime="0.00" timeLoss="237.22" rerouteNo="0" devices="tripinfo_f_0_3.20" vType="type1" speedFactor="1.18" vaporized=""/>
    <tripinfo id="f_0_3.22" depart="498.00" departLane="np3_nt3_0" departPos="0.50" departSpeed="0.00" departDelay="318.00" arrival="796.00" arrivalLane="nt14_np11_0" arrivalPos="75.00" arrivalSpeed="9.43" duration="298.00" routeLength="950.59" waitingTime="115.00" waitingCount="7" stopTime="0.00" timeLoss="221.64" rerouteNo="0" devices="tripinfo_f_0_3.22" vType="type1" speedFactor="1.05" vaporized=""/>
    <tripinfo id="f_0_3.23" depart="503.00" departLane="np3_nt3_0" departPos="0.00" departSpeed="0.00" departDelay="314.81" arrival="798.00" arrivalLane="nt14_np11_0" arrivalPos="75.00" arrivalSpeed="10.15" duration="295.00" routeLength="951.09" waitingTime="112.00" waitingCount="8" stopTime="0.00" timeLoss="221.27" rerouteNo="0" devices="tripinfo_f_0_3.23" vType="type1" speedFactor="1.08" vaporized=""/>
    <tripinfo id="f_0_3.24" depart="512.00" departLane="np3_nt3_0" departPos="0.56" departSpeed="0.00" departDelay="315.63" arrival="801.00" arrivalLane="nt14_np11_0" arrivalPos="75.00" arrivalSpeed="10.45" duration="289.00" routeLength="950.53" waitingTime="106.00" waitingCount="7" stopTime="0.00" timeLoss="209.40" rerouteNo="0" devices="tripinfo_f_0_3.24" vType="type1" speedFactor="1.01" vaporized=""/>
    <tripinfo id="f_0_3.25" depart="515.00" departLane="np3_nt3_0" departPos="0.05" departSpeed="0.00" departDelay="310.45" arrival="804.00" arrivalLane="nt14_np11_0" arrivalPos="75.00" arrivalSpeed="7.79" duration="289.00" routeLength="951.04" waitingTime="102.00" waitingCount="7" stopTime="0.00" timeLoss="201.51" rerouteNo="0" devices="tripinfo_f_0_3.25" vType="type1" speedFactor="0.91" vaporized=""/>
    <tripinfo id="f_0_3.26" depart="518.00" departLane="np3_nt3_0" departPos="2.22" departSpeed="0.00" departDelay="305.27" arrival="806.00" arrivalLane="nt14_np11_0" arrivalPos="75.00" arrivalSpeed="8.73" duration="288.00" routeLength="948.87" waitingTime="92.00" waitingCount="7" stopTime="0.00" timeLoss="200.41" rerouteNo="0" devices="tripinfo_f_0_3.26" vType="type1" speedFactor="0.91" vaporized=""/>
    <tripinfo id="f_0_3.27" depart="520.00" departLane="np3_nt3_0" departPos="1.34" departSpeed="0.00" departDelay="299.09" arrival="808.00" arrivalLane="nt14_np11_0" arrivalPos="75.00" arrivalSpeed="12.69" duration="288.00" routeLength="949.75" waitingTime="104.00" waitingCount="8" stopTime="0.00" timeLoss="225.65" rerouteNo="0" devices="tripinfo_f_0_3.27" vType="type1" speedFactor="1.28" vaporized=""/>
    <tripinfo id="f_0_3.29" depart="523.00" departLane="np3_nt3_0" departPos="10.37" departSpeed="0.00" departDelay="285.72" arrival="810.00" arrivalLane="nt14_np11_0" arrivalPos="75.00" arrivalSpeed="11.11" duration="287.00" routeLength="940.72" waitingTime="94.00" waitingCount="9" stopTime="0.00" timeLoss="210.26" rerouteNo="0" devices="tripinfo_f_0_3.29" vType="type1" speedFactor="1.04" vaporized=""/>
    <tripinfo id="f_0_3.30" depart="526.00" departLane="np3_nt3_0" departPos="18.53" departSpeed="0.00" departDelay="280.54" arrival="812.00" arrivalLane="nt14_np11_0" arrivalPos="75.00" arrivalSpeed="10.49" duration="286.00" routeLength="932.56" waitingTime="84.00" waitingCount="10" stopTime="0.00" timeLoss="215.45" rerouteNo="0" devices="tripinfo_f_0_3.30" vType="type1" speedFactor="1.11" vaporized=""/>
    <tripinfo id="f_0_3.28" depart="522.00" departLane="np3_nt3_0" departPos="0.00" departSpeed="0.00" departDelay="292.90" arrival="814.00" arrivalLane="nt14_np11_0" arrivalPos="75.00" arrivalSpeed="9.55" duration="292.00" routeLength="951.09" waitingTime="75.00" waitingCount="11" stopTime="0.00" timeLoss="213.05" rerouteNo="0" devices="tripinfo_f_0_3.28" vType="type1" speedFactor="1.01" vaporized=""/>
    <tripinfo id="f_0_3.31" depart="527.00" departLane="np3_nt3_0" departPos="0.00" departSpeed="0.00" departDelay="273.36" arrival="816.00" arrivalLane="nt14_np11_0" arrivalPos="75.00" arrivalSpeed="8.83" duration="289.00" routeLength="951.09" waitingTime="63.00" waitingCount="10" stopTime="0.00" timeLoss="204.09" rerouteNo="0" devices="tripinfo_f_0_3.31" vType="type1" speedFactor="0.94" vaporized=""/>
    <tripinfo id="f_0_3.32" depart="531.00" departLane="np3_nt3_0" departPos="0.19" departSpeed="0.00" departDelay="269.18" arrival="838.00" arrivalLane="nt14_np11_0" arrivalPos="75.00" arrivalSpeed="9.14" duration="307.00" routeLength="950.90" waitingTime="77.00" waitingCount="9" stopTime="0.00" timeLoss="214.52" rerouteNo="0" devices="tripinfo_f_0_3.32" vType="type1" speedFactor="0.86" vaporized=""/>
    <tripinfo id="f_0_3.33" depart="533.00" departLane="np3_nt3_0" departPos="0.00" departSpeed="0.00" departDelay="262.99" arrival="841.00" arrivalLane="nt14_np11_0" arrivalPos="75.00" arrivalSpeed="8.65" duration="308.00" routeLength="951.09" waitingTime="76.00" waitingCount="8" stopTime="0.00" timeLoss="220.89" rerouteNo="0" devices="tripinfo_f_0_3.33" vType="type1" speedFactor="0.92" vaporized=""/>
    <tripinfo id="f_0_3.34" depart="536.00" departLane="np3_nt3_0" departPos="0.00" departSpeed="0.00" departDelay="257.81" arrival="842.00" arrivalLane="nt14_np11_0" arrivalPos="75.00" arrivalSpeed="12.05" duration="306.00" routeLength="951.09" waitingTime="77.00" waitingCount="10" stopTime="0.00" timeLoss="239.04" rerouteNo="0" devices="tripinfo_f_0_3.34" vType="type1" speedFactor="1.18" vaporized=""/>
    <tripinfo id="f_1_3.9" depart="568.00" departLane="np3_nt3_0" departPos="0.00" departSpeed="0.00" departDelay="225.92" arrival="846.00" arrivalLane="nt14_np11_0" arrivalPos="75.00" arrivalSpeed="7.28" duration="278.00" routeLength="951.09" waitingTime="75.00" waitingCount="11" stopTime="0.00" timeLoss="181.88" rerouteNo="0" devices="tripinfo_f_1_3.9" vType="type1" speedFactor="0.83" vaporized=""/>
    <tripinfo id="f_0_3.35" depart="539.00" departLane="np3_nt3_0" departPos="0.00" departSpeed="0.00" departDelay="252.63" arrival="853.00" arrivalLane="nt14_np11_0" arrivalPos="75.00" arrivalSpeed="9.88" duration="314.00" routeLength="951.09" waitingTime="75.00" waitingCount="10" stopTime="0.00" timeLoss="231.39" rerouteNo="0" devices="tripinfo_f_0_3.35" vType="type1" speedFactor="0.97" vaporized=""/>
    <tripinfo id="f_1_3.11" depart="571.00" departLane="np3_nt3_0" departPos="0.00" departSpeed="0.00" departDelay="219.57" arrival="855.00" arrivalLane="nt14_np11_0" arrivalPos="75.00" arrivalSpeed="11.62" duration="284.00" routeLength="951.09" waitingTime="76.00" waitingCount="11" stopTime="0.00" timeLoss="211.02" rerouteNo="0" devices="tripinfo_f_1_3.11" vType="type1" speedFactor="1.10" vaporized=""/>
    <tripinfo id="f_0_3.36" depart="542.00" departLane="np3_nt3_0" departPos="0.00" departSpeed="0.00" departDelay="247.45" arrival="863.00" arrivalLane="nt14_np11_0" arrivalPos="75.00" arrivalSpeed="10.10" duration="321.00" routeLength="951.09" waitingTime="79.00" waitingCount="10" stopTime="0.00" timeLoss="251.24" rerouteNo="0" devices="tripinfo_f_0_3.36" vType="type1" speedFactor="1.14" vaporized=""/>
    <tripinfo id="f_1_3.13" depart="578.00" departLane="np3_nt3_0" departPos="0.00" departSpeed="0.00" departDelay="217.22" arrival="867.00" arrivalLane="nt14_np11_0" arrivalPos="75.00" arrivalSpeed="11.56" duration="289.00" routeLength="951.09" waitingTime="79.00" waitingCount="12" stopTime="0.00" timeLoss="215.95" rerouteNo="0" devices="tripinfo_f_1_3.13" vType="type1" speedFactor="1.10" vaporized=""/>
    <tripinfo id="f_1_3.0" depart="545.00" departLane="np3_nt3_0" departPos="6.05" departSpeed="0.00" departDelay="245.00" arrival="877.00" arrivalLane="nt14_np11_0" arrivalPos="75.00" arrivalSpeed="7.80" duration="332.00" routeLength="945.04" waitingTime="79.00" waitingCount="8" stopTime="0.00" timeLoss="240.42" rerouteNo="0" devices="tripinfo_f_1_3.0" vType="type1" speedFactor="0.87" vaporized=""/>
    <tripinfo id="f_1_3.15" depart="584.00" departLane="np3_nt3_0" departPos="0.00" departSpeed="0.00" departDelay="213.87" arrival="878.00" arrivalLane="nt14_np11_0" arrivalPos="75.00" arrivalSpeed="11.62" duration="294.00" routeLength="951.09" waitingTime="74.00" waitingCount="11" stopTime="0.00" timeLoss="221.03" rerouteNo="0" devices="tripinfo_f_1_3.15" vType="type1" speedFactor="1.09" vaporized=""/>
    <tripinfo id="f_1_3.1" depart="547.00" departLane="np3_nt3_0" departPos="0.00" departSpeed="0.00" departDelay="242.32" arrival="890.00" arrivalLane="nt14_np11_0" arrivalPos="75.00" arrivalSpeed="7.15" duration="343.00" routeLength="951.09" waitingTime="74.00" waitingCount="11" stopTime="0.00" timeLoss="247.49" rerouteNo="0" devices="tripinfo_f_1_3.1" vType="type1" speedFactor="0.84" vaporized=""/>
    <tripinfo id="f_1_3.16" depart="587.00" departLane="np3_nt3_0" departPos="0.00" departSpeed="0.00" departDelay="212.20" arrival="892.00" arrivalLane="nt14_np11_0" arrivalPos="75.00" arrivalSpeed="10.60" duration="305.00" routeLength="951.09" waitingTime="80.00" waitingCount="10" stopTime="0.00" timeLoss="232.62" rerouteNo="0" devices="tripinfo_f_1_3.16" vType="type1" speedFactor="1.11" vaporized=""/>
    <tripinfo id="f_1_3.2" depart="549.00" departLane="np3_nt3_0" departPos="0.00" departSpeed="0.00" departDelay="239.65" arrival="894.00" arrivalLane="nt14_np11_0" arrivalPos="75.00" arrivalSpeed="9.28" duration="345.00" routeLength="951.09" waitingTime="74.00" waitingCount="10" stopTime="0.00" timeLoss="252.14" rerouteNo="0" devices="tripinfo_f_1_3.2" vType="type1" speedFactor="0.86" vaporized=""/>
    <tripinfo id="f_1_3.18" depart="593.00" departLane="np3_nt3_0" departPos="0.00" departSpeed="0.00" departDelay="208.85" arrival="896.00" arrivalLane="nt14_np11_0" arrivalPos="75.00" arrivalSpeed="10.54" duration="303.00" routeLength="951.09" waitingTime="89.00" waitingCount="8" stopTime="0.00" timeLoss="222.44" rerouteNo="0" devices="tripinfo_f_1_3.18" vType="type1" speedFactor="1.00" vaporized=""/>
    <tripinfo id="f_1_3.5" depart="557.00" departLane="np3_nt3_0" departPos="29.72" departSpeed="0.00" departDelay="233.62" arrival="898.00" arrivalLane="nt14_np11_0" arrivalPos="75.00" arrivalSpeed="10.18" duration="341.00" routeLength="921.37" waitingTime="86.00" waitingCount="8" stopTime="0.00" timeLoss="265.26" rerouteNo="0" devices="tripinfo_f_1_3.5" vType="type1" speedFactor="1.02" vaporized=""/>
    <tripinfo id="f_1_3.20" depart="598.00" departLane="np3_nt3_0" departPos="1.43" departSpeed="0.00" departDelay="204.50" arrival="938.00" arrivalLane="nt14_np11_0" arrivalPos="75.00" arrivalSpeed="8.07" duration="340.00" routeLength="949.66" waitingTime="137.00" waitingCount="10" stopTime="0.00" timeLoss="256.69" rerouteNo="0" devices="tripinfo_f_1_3.20" vType="type1" speedFactor="0.96" vaporized=""/>
    <tripinfo id="f_1_3.3" depart="552.00" departLane="np3_nt3_0" departPos="0.00" departSpeed="0.00" departDelay="237.97" arrival="951.00" arrivalLane="nt14_np11_0" arrivalPos="75.00" arrivalSpeed="7.13" duration="399.00" routeLength="951.09" waitingTime="143.00" waitingCount="10" stopTime="0.00" timeLoss="301.21" rerouteNo="0" devices="tripinfo_f_1_3.3" vType="type1" speedFactor="0.82" vaporized=""/>
    <tripinfo id="f_1_3.23" depart="606.00" departLane="np3_nt3_0" departPos="1.35" departSpeed="0.00" departDelay="198.47" arrival="953.00" arrivalLane="nt14_np11_0" arrivalPos="75.00" arrivalSpeed="9.52" duration="347.00" routeLength="949.74" waitingTime="135.00" waitingCount="9" stopTime="0.00" timeLoss="271.72" rerouteNo="0" devices="tripinfo_f_1_3.23" vType="type1" speedFactor="1.06" vaporized=""/>
    <tripinfo id="f_1_3.10" depart="569.00" departLane="np3_nt3_0" departPos="62.94" departSpeed="0.00" departDelay="222.25" arrival="955.00" arrivalLane="nt14_np11_0" arrivalPos="75.00" arrivalSpeed="10.27" duration="386.00" routeLength="888.15" waitingTime="144.00" waitingCount="9" stopTime="0.00" timeLoss="310.05" rerouteNo="0" devices="tripinfo_f_1_3.10" vType="type1" speedFactor="0.98" vaporized=""/>
    <tripinfo id="f_1_3.25" depart="609.00" departLane="np3_nt3_0" departPos="9.48" departSpeed="0.00" departDelay="192.12" arrival="973.00" arrivalLane="nt14_np11_0" arrivalPos="75.00" arrivalSpeed="10.64" duration="364.00" routeLength="941.61" waitingTime="177.00" waitingCount="11" stopTime="0.00" timeLoss="296.30" rerouteNo="0" devices="tripinfo_f_1_3.25" vType="type1" speedFactor="1.16" vaporized=""/>