<?xml version="1.0" encoding="UTF-8"?>

<!-- generated on 2023-08-30 12:35:29 by Eclipse SUMO libsumo Version 1.18.0
<configuration xmlns:xsi="http://www.w3.org/2001/XMLSchema-instance" xsi:noNamespaceSchemaLocation="http://sumo.dlr.de/xsd/libsumoConfiguration.xsd">

    <input>
        <net-file value="/home/stefan/RESCO/./environments/arterial4x4/arterial4x4.net.xml"/>
        <route-files value="/home/stefan/RESCO/./environments/arterial4x4/arterial4x4_46.rou.xml"/>
    </input>

    <output>
        <tripinfo-output value="/home/stefan/results/ITRPO-tr0-arterial4x4-0-drq_norm-wait_norm/tripinfo_46.xml"/>
        <tripinfo-output.write-unfinished value="true"/>
    </output>

    <processing>
        <time-to-teleport value="-1"/>
    </processing>

    <report>
        <no-warnings value="True"/>
        <no-step-log value="True"/>
    </report>

    <random_number>
        <random value="true"/>
    </random_number>

</configuration>
-->

<tripinfos xmlns:xsi="http://www.w3.org/2001/XMLSchema-instance" xsi:noNamespaceSchemaLocation="http://sumo.dlr.de/xsd/tripinfo_file.xsd">
    <tripinfo id="f_0_3.0" depart="0.00" departLane="np3_nt3_0" departPos="1.48" departSpeed="0.00" departDelay="0.00" arrival="144.00" arrivalLane="nt14_np11_0" arrivalPos="75.00" arrivalSpeed="8.56" duration="144.00" routeLength="949.61" waitingTime="24.00" waitingCount="3" stopTime="0.00" timeLoss="48.85" rerouteNo="0" devices="tripinfo_f_0_3.0" vType="type1" speedFactor="0.84" vaporized=""/>
    <tripinfo id="f_0_0.0" depart="0.00" departLane="np13_nt13_0" departPos="17.23" departSpeed="0.00" departDelay="0.00" arrival="173.00" arrivalLane="nt4_np5_0" arrivalPos="75.00" arrivalSpeed="16.45" duration="173.00" routeLength="1330.66" waitingTime="37.00" waitingCount="4" stopTime="0.00" timeLoss="67.54" rerouteNo="0" devices="tripinfo_f_0_0.0" vType="type1" speedFactor="0.88" vaporized=""/>
    <tripinfo id="f_0_0.1" depart="14.00" departLane="np13_nt13_0" departPos="29.77" departSpeed="0.00" departDelay="0.36" arrival="174.00" arrivalLane="nt4_np5_0" arrivalPos="75.00" arrivalSpeed="20.65" duration="160.00" routeLength="1318.12" waitingTime="32.00" waitingCount="4" stopTime="0.00" timeLoss="75.95" rerouteNo="0" devices="tripinfo_f_0_0.1" vType="type1" speedFactor="1.10" vaporized=""/>
    <tripinfo id="f_0_2.0" depart="0.00" departLane="np2_nt2_0" departPos="52.98" departSpeed="0.00" departDelay="0.00" arrival="216.00" arrivalLane="nt15_np10_0" arrivalPos="75.00" arrivalSpeed="7.08" duration="216.00" routeLength="898.10" waitingTime="85.00" waitingCount="5" stopTime="0.00" timeLoss="115.68" rerouteNo="0" devices="tripinfo_f_0_2.0" vType="type1" speedFactor="0.75" vaporized=""/>
    <tripinfo id="f_0_3.1" depart="9.00" departLane="np3_nt3_0" departPos="24.19" departSpeed="0.00" departDelay="0.82" arrival="224.00" arrivalLane="nt14_np11_0" arrivalPos="75.00" arrivalSpeed="8.65" duration="215.00" routeLength="926.90" waitingTime="114.00" waitingCount="3" stopTime="0.00" timeLoss="132.95" rerouteNo="0" devices="tripinfo_f_0_3.1" vType="type1" speedFactor="0.95" vaporized=""/>
    <tripinfo id="f_0_1.0" depart="0.00" departLane="np16_nt1_0" departPos="23.11" departSpeed="0.00" departDelay="0.00" arrival="225.00" arrivalLane="nt16_np8_0" arrivalPos="75.00" arrivalSpeed="16.71" duration="225.00" routeLength="1324.77" waitingTime="79.00" waitingCount="4" stopTime="0.00" timeLoss="122.18" rerouteNo="0" devices="tripinfo_f_0_1.0" vType="type1" speedFactor="0.89" vaporized=""/>
    <tripinfo id="f_0_3.2" depart="17.00" departLane="np3_nt3_0" departPos="37.36" departSpeed="0.00" departDelay="0.64" arrival="226.00" arrivalLane="nt14_np11_0" arrivalPos="75.00" arrivalSpeed="11.22" duration="209.00" routeLength="913.73" waitingTime="109.00" waitingCount="3" stopTime="0.00" timeLoss="135.19" rerouteNo="0" devices="tripinfo_f_0_3.2" vType="type1" speedFactor="1.04" vaporized=""/>
    <tripinfo id="f_0_0.2" depart="28.00" departLane="np13_nt13_0" departPos="29.53" departSpeed="0.00" departDelay="0.73" arrival="234.00" arrivalLane="nt4_np5_0" arrivalPos="75.00" arrivalSpeed="18.97" duration="206.00" routeLength="1318.36" waitingTime="72.00" waitingCount="7" stopTime="0.00" timeLoss="110.09" rerouteNo="0" devices="tripinfo_f_0_0.2" vType="type1" speedFactor="0.96" vaporized=""/>
    <tripinfo id="f_0_0.3" depart="41.00" departLane="np13_nt13_0" departPos="31.98" departSpeed="0.00" departDelay="0.09" arrival="235.00" arrivalLane="nt4_np5_0" arrivalPos="75.00" arrivalSpeed="19.12" duration="194.00" routeLength="1315.91" waitingTime="56.00" waitingCount="8" stopTime="0.00" timeLoss="103.84" rerouteNo="0" devices="tripinfo_f_0_0.3" vType="type1" speedFactor="1.01" vaporized=""/>
    <tripinfo id="f_0_2.1" depart="9.00" departLane="np2_nt2_0" departPos="27.71" departSpeed="0.00" departDelay="0.82" arrival="253.00" arrivalLane="nt15_np10_0" arrivalPos="75.00" arrivalSpeed="7.87" duration="244.00" routeLength="923.37" waitingTime="118.00" waitingCount="5" stopTime="0.00" timeLoss="158.13" rerouteNo="0" devices="tripinfo_f_0_2.1" vType="type1" speedFactor="0.90" vaporized=""/>
    <tripinfo id="f_0_0.4" depart="55.00" departLane="np13_nt13_0" departPos="5.61" departSpeed="0.00" departDelay="0.46" arrival="294.00" arrivalLane="nt4_np5_0" arrivalPos="75.00" arrivalSpeed="21.16" duration="239.00" routeLength="1342.28" waitingTime="120.00" waitingCount="7" stopTime="0.00" timeLoss="157.50" rerouteNo="0" devices="tripinfo_f_0_0.4" vType="type1" speedFactor="1.15" vaporized=""/>
    <tripinfo id="f_0_3.3" depart="25.00" departLane="np3_nt3_0" departPos="46.21" departSpeed="0.00" departDelay="0.45" arrival="332.00" arrivalLane="nt14_np11_0" arrivalPos="75.00" arrivalSpeed="9.38" duration="307.00" routeLength="904.88" waitingTime="208.00" waitingCount="4" stopTime="0.00" timeLoss="234.66" rerouteNo="0" devices="tripinfo_f_0_3.3" vType="type1" speedFactor="1.05" vaporized=""/>
    <tripinfo id="f_0_3.4" depart="33.00" departLane="np3_nt3_0" departPos="5.57" departSpeed="0.00" departDelay="0.27" arrival="335.00" arrivalLane="nt14_np11_0" arrivalPos="75.00" arrivalSpeed="10.11" duration="302.00" routeLength="945.52" waitingTime="181.00" waitingCount="6" stopTime="0.00" timeLoss="217.17" rerouteNo="0" devices="tripinfo_f_0_3.4" vType="type1" speedFactor="0.94" vaporized=""/>
    <tripinfo id="f_0_3.5" depart="41.00" departLane="np3_nt3_0" departPos="18.66" departSpeed="0.00" departDelay="0.09" arrival="336.00" arrivalLane="nt14_np11_0" arrivalPos="75.00" arrivalSpeed="13.07" duration="295.00" routeLength="932.43" waitingTime="171.00" waitingCount="6" stopTime="0.00" timeLoss="230.50" rerouteNo="0" devices="tripinfo_f_0_3.5" vType="type1" speedFactor="1.21" vaporized=""/>
    <tripinfo id="f_0_3.6" depart="50.00" departLane="np3_nt3_0" departPos="6.38" departSpeed="0.00" departDelay="0.91" arrival="339.00" arrivalLane="nt14_np11_0" arrivalPos="75.00" arrivalSpeed="9.22" duration="289.00" routeLength="944.71" waitingTime="151.00" waitingCount="7" stopTime="0.00" timeLoss="204.87" rerouteNo="0" devices="tripinfo_f_0_3.6" vType="type1" speedFactor="0.94" vaporized=""/>
    <tripinfo id="f_0_3.7" depart="58.00" departLane="np3_nt3_0" departPos="9.30" departSpeed="0.00" departDelay="0.73" arrival="348.00" arrivalLane="nt14_np11_0" arrivalPos="75.00" arrivalSpeed="8.50" duration="290.00" routeLength="941.79" waitingTime="154.00" waitingCount="7" stopTime="0.00" timeLoss="203.38" rerouteNo="0" devices="tripinfo_f_0_3.7" vType="type1" speedFactor="0.92" vaporized=""/>
    <tripinfo id="f_0_3.8" depart="66.00" departLane="np3_nt3_0" departPos="1.95" departSpeed="0.00" departDelay="0.54" arrival="373.00" arrivalLane="nt14_np11_0" arrivalPos="75.00" arrivalSpeed="8.64" duration="307.00" routeLength="949.14" waitingTime="172.00" waitingCount="8" stopTime="0.00" timeLoss="215.95" rerouteNo="0" devices="tripinfo_f_0_3.8" vType="type1" speedFactor="0.87" vaporized=""/>
    <tripinfo id="f_0_3.9" depart="74.00" departLane="np3_nt3_0" departPos="0.00" departSpeed="0.00" departDelay="0.36" arrival="398.00" arrivalLane="nt14_np11_0" arrivalPos="75.00" arrivalSpeed="9.70" duration="324.00" routeLength="951.09" waitingTime="182.00" waitingCount="10" stopTime="0.00" timeLoss="244.41" rerouteNo="0" devices="tripinfo_f_0_3.9" vType="type1" speedFactor="1.01" vaporized=""/>
    <tripinfo id="f_0_3.10" depart="137.00" departLane="np3_nt3_0" departPos="1.47" departSpeed="0.00" departDelay="55.18" arrival="399.00" arrivalLane="nt14_np11_0" arrivalPos="75.00" arrivalSpeed="12.23" duration="262.00" routeLength="949.62" waitingTime="141.00" waitingCount="7" stopTime="0.00" timeLoss="190.74" rerouteNo="0" devices="tripinfo_f_0_3.10" vType="type1" speedFactor="1.12" vaporized=""/>
    <tripinfo id="f_0_3.11" depart="141.00" departLane="np3_nt3_0" departPos="0.00" departSpeed="0.00" departDelay="51.00" arrival="402.00" arrivalLane="nt14_np11_0" arrivalPos="75.00" arrivalSpeed="8.82" duration="261.00" routeLength="951.09" waitingTime="126.00" waitingCount="7" stopTime="0.00" timeLoss="177.41" rerouteNo="0" devices="tripinfo_f_0_3.11" vType="type1" speedFactor="0.96" vaporized=""/>
    <tripinfo id="f_0_3.12" depart="163.00" departLane="np3_nt3_0" departPos="0.00" departSpeed="0.00" departDelay="64.82" arrival="421.00" arrivalLane="nt14_np11_0" arrivalPos="75.00" arrivalSpeed="10.77" duration="258.00" routeLength="951.09" waitingTime="131.00" waitingCount="7" stopTime="0.00" timeLoss="188.17" rerouteNo="0" devices="tripinfo_f_0_3.12" vType="type1" speedFactor="1.15" vaporized=""/>
    <tripinfo id="f_0_3.13" depart="217.00" departLane="np3_nt3_0" departPos="0.00" departSpeed="0.00" departDelay="110.63" arrival="438.00" arrivalLane="nt14_np11_0" arrivalPos="75.00" arrivalSpeed="9.01" duration="221.00" routeLength="951.09" waitingTime="102.00" waitingCount="6" stopTime="0.00" timeLoss="140.01" rerouteNo="0" devices="tripinfo_f_0_3.13" vType="type1" speedFactor="0.99" vaporized=""/>
    <tripinfo id="f_0_3.14" depart="220.00" departLane="np3_nt3_0" departPos="0.00" departSpeed="0.00" departDelay="105.45" arrival="439.00" arrivalLane="nt14_np11_0" arrivalPos="75.00" arrivalSpeed="9.71" duration="219.00" routeLength="951.09" waitingTime="94.00" waitingCount="7" stopTime="0.00" timeLoss="142.69" rerouteNo="0" devices="tripinfo_f_0_3.14" vType="type1" speedFactor="1.05" vaporized=""/>
    <tripinfo id="f_0_3.15" depart="222.00" departLane="np3_nt3_0" departPos="0.00" departSpeed="0.00" departDelay="99.27" arrival="507.00" arrivalLane="nt14_np11_0" arrivalPos="75.00" arrivalSpeed="11.50" duration="285.00" routeLength="951.09" waitingTime="158.00" waitingCount="7" stopTime="0.00" timeLoss="208.54" rerouteNo="0" devices="tripinfo_f_0_3.15" vType="type1" speedFactor="1.05" vaporized=""/>
    <tripinfo id="f_0_3.16" depart="226.00" departLane="np3_nt3_0" departPos="0.00" departSpeed="0.00" departDelay="95.09" arrival="509.00" arrivalLane="nt14_np11_0" arrivalPos="75.00" arrivalSpeed="10.49" duration="283.00" routeLength="951.09" waitingTime="150.00" waitingCount="8" stopTime="0.00" timeLoss="201.29" rerouteNo="0" devices="tripinfo_f_0_3.16" vType="type1" speedFactor="0.97" vaporized=""/>
    <tripinfo id="f_0_3.17" depart="247.00" departLane="np3_nt3_0" departPos="0.00" departSpeed="0.00" departDelay="107.91" arrival="527.00" arrivalLane="nt14_np11_0" arrivalPos="75.00" arrivalSpeed="10.65" duration="280.00" routeLength="951.09" waitingTime="144.00" waitingCount="9" stopTime="0.00" timeLoss="205.49" rerouteNo="0" devices="tripinfo_f_0_3.17" vType="type1" speedFactor="1.08" vaporized=""/>
    <tripinfo id="f_0_3.18" depart="251.00" departLane="np3_nt3_0" departPos="0.47" departSpeed="0.00" departDelay="103.72" arrival="531.00" arrivalLane="nt14_np11_0" arrivalPos="75.00" arrivalSpeed="8.80" duration="280.00" routeLength="950.62" waitingTime="119.00" waitingCount="10" stopTime="0.00" timeLoss="183.22" rerouteNo="0" devices="tripinfo_f_0_3.18" vType="type1" speedFactor="0.83" vaporized=""/>
    <tripinfo id="f_0_3.19" depart="287.00" departLane="np3_nt3_0" departPos="0.00" departSpeed="0.00" departDelay="131.54" arrival="533.00" arrivalLane="nt14_np11_0" arrivalPos="75.00" arrivalSpeed="9.88" duration="246.00" routeLength="951.09" waitingTime="90.00" waitingCount="10" stopTime="0.00" timeLoss="167.42" rerouteNo="0" devices="tripinfo_f_0_3.19" vType="type1" speedFactor="1.02" vaporized=""/>
    <tripinfo id="f_0_3.20" depart="290.00" departLane="np3_nt3_0" departPos="0.00" departSpeed="0.00" departDelay="126.36" arrival="535.00" arrivalLane="nt14_np11_0" arrivalPos="75.00" arrivalSpeed="11.57" duration="245.00" routeLength="951.09" waitingTime="101.00" waitingCount="11" stopTime="0.00" timeLoss="180.62" rerouteNo="0" devices="tripinfo_f_0_3.20" vType="type1" speedFactor="1.26" vaporized=""/>
    <tripinfo id="f_0_3.21" depart="294.00" departLane="np3_nt3_0" departPos="0.00" departSpeed="0.00" departDelay="122.18" arrival="541.00" arrivalLane="nt14_np11_0" arrivalPos="75.00" arrivalSpeed="12.92" duration="247.00" routeLength="951.09" waitingTime="101.00" waitingCount="13" stopTime="0.00" timeLoss="179.11" rerouteNo="0" devices="tripinfo_f_0_3.21" vType="type1" speedFactor="1.19" vaporized=""/>
    <tripinfo id="f_0_3.22" depart="337.00" departLane="np3_nt3_0" departPos="0.00" departSpeed="0.00" departDelay="157.00" arrival="544.00" arrivalLane="nt14_np11_0" arrivalPos="75.00" arrivalSpeed="9.60" duration="207.00" routeLength="951.09" waitingTime="53.00" waitingCount="10" stopTime="0.00" timeLoss="129.74" rerouteNo="0" devices="tripinfo_f_0_3.22" vType="type1" speedFactor="1.04" vaporized=""/>
    <tripinfo id="f_0_3.23" depart="341.00" departLane="np3_nt3_0" departPos="0.00" departSpeed="0.00" departDelay="152.81" arrival="549.00" arrivalLane="nt14_np11_0" arrivalPos="75.00" arrivalSpeed="8.24" duration="208.00" routeLength="951.09" waitingTime="37.00" waitingCount="7" stopTime="0.00" timeLoss="113.52" rerouteNo="0" devices="tripinfo_f_0_3.23" vType="type1" speedFactor="0.85" vaporized=""/>
    <tripinfo id="f_0_3.24" depart="352.00" departLane="np3_nt3_0" departPos="0.00" departSpeed="0.00" departDelay="155.63" arrival="551.00" arrivalLane="nt14_np11_0" arrivalPos="75.00" arrivalSpeed="9.66" duration="199.00" routeLength="951.09" waitingTime="67.00" waitingCount="7" stopTime="0.00" timeLoss="115.95" rerouteNo="0" devices="tripinfo_f_0_3.24" vType="type1" speedFactor="0.96" vaporized=""/>
    <tripinfo id="f_0_3.25" depart="355.00" departLane="np3_nt3_0" departPos="0.00" departSpeed="0.00" departDelay="150.45" arrival="554.00" arrivalLane="nt14_np11_0" arrivalPos="75.00" arrivalSpeed="8.06" duration="199.00" routeLength="951.09" waitingTime="61.00" waitingCount="6" stopTime="0.00" timeLoss="110.14" rerouteNo="0" devices="tripinfo_f_0_3.25" vType="type1" speedFactor="0.90" vaporized=""/>
    <tripinfo id="f_0_3.26" depart="358.00" departLane="np3_nt3_0" departPos="0.00" departSpeed="0.00" departDelay="145.27" arrival="562.00" arrivalLane="nt14_np11_0" arrivalPos="75.00" arrivalSpeed="10.94" duration="204.00" routeLength="951.09" waitingTime="70.00" waitingCount="8" stopTime="0.00" timeLoss="128.69" rerouteNo="0" devices="tripinfo_f_0_3.26" vType="type1" speedFactor="1.06" vaporized=""/>
    <tripinfo id="f_0_3.33" depart="392.00" departLane="np3_nt3_0" departPos="59.71" departSpeed="0.00" departDelay="121.99" arrival="575.00" arrivalLane="nt14_np11_0" arrivalPos="75.00" arrivalSpeed="11.32" duration="183.00" routeLength="891.38" waitingTime="85.00" waitingCount="9" stopTime="0.00" timeLoss="123.79" rerouteNo="0" devices="tripinfo_f_0_3.33" vType="type1" speedFactor="1.25" vaporized=""/>
    <tripinfo id="f_0_3.27" depart="360.00" departLane="np3_nt3_0" departPos="0.00" departSpeed="0.00" departDelay="139.09" arrival="604.00" arrivalLane="nt14_np11_0" arrivalPos="75.00" arrivalSpeed="9.38" duration="244.00" routeLength="951.09" waitingTime="104.00" waitingCount="8" stopTime="0.00" timeLoss="154.11" rerouteNo="0" devices="tripinfo_f_0_3.27" vType="type1" speedFactor="0.90" vaporized=""/>
    <tripinfo id="f_0_3.28" depart="363.00" departLane="np3_nt3_0" departPos="0.00" departSpeed="0.00" departDelay="133.90" arrival="606.00" arrivalLane="nt14_np11_0" arrivalPos="75.00" arrivalSpeed="10.49" duration="243.00" routeLength="951.09" waitingTime="97.00" waitingCount="10" stopTime="0.00" timeLoss="162.08" rerouteNo="0" devices="tripinfo_f_0_3.28" vType="type1" speedFactor="0.99" vaporized=""/>
    <tripinfo id="f_0_3.30" depart="374.00" departLane="np3_nt3_0" departPos="14.17" departSpeed="0.00" departDelay="128.54" arrival="696.00" arrivalLane="nt14_np11_0" arrivalPos="75.00" arrivalSpeed="6.72" duration="322.00" routeLength="936.92" waitingTime="156.00" waitingCount="10" stopTime="0.00" timeLoss="212.65" rerouteNo="0" devices="tripinfo_f_0_3.30" vType="type1" speedFactor="0.72" vaporized=""/>
    <tripinfo id="f_0_3.29" depart="372.00" departLane="np3_nt3_0" departPos="0.00" departSpeed="0.00" departDelay="134.72" arrival="698.00" arrivalLane="nt14_np11_0" arrivalPos="75.00" arrivalSpeed="11.16" duration="326.00" routeLength="951.09" waitingTime="158.00" waitingCount="11" stopTime="0.00" timeLoss="258.49" rerouteNo="0" devices="tripinfo_f_0_3.29" vType="type1" speedFactor="1.19" vaporized=""/>
    <tripinfo id="f_0_3.31" depart="377.00" departLane="np3_nt3_0" departPos="0.00" departSpeed="0.00" departDelay="123.36" arrival="706.00" arrivalLane="nt14_np11_0" arrivalPos="75.00" arrivalSpeed="11.62" duration="329.00" routeLength="951.09" waitingTime="160.00" waitingCount="12" stopTime="0.00" timeLoss="259.24" rerouteNo="0" devices="tripinfo_f_0_3.31" vType="type1" speedFactor="1.15" vaporized=""/>
    <tripinfo id="f_0_3.32" depart="380.00" departLane="np3_nt3_0" departPos="0.00" departSpeed="0.00" departDelay="118.18" arrival="709.00" arrivalLane="nt14_np11_0" arrivalPos="75.00" arrivalSpeed="11.04" duration="329.00" routeLength="951.09" waitingTime="149.00" waitingCount="12" stopTime="0.00" timeLoss="249.53" rerouteNo="0" devices="tripinfo_f_0_3.32" vType="type1" speedFactor="1.01" vaporized=""/>
    <tripinfo id="f_0_3.34" depart="399.00" departLane="np3_nt3_0" departPos="0.00" departSpeed="0.00" departDelay="120.81" arrival="712.00" arrivalLane="nt14_np11_0" arrivalPos="75.00" arrivalSpeed="9.16" duration="313.00" routeLength="951.09" waitingTime="134.00" waitingCount="13" stopTime="0.00" timeLoss="227.33" rerouteNo="0" devices="tripinfo_f_0_3.34" vType="type1" speedFactor="0.93" vaporized=""/>
    <tripinfo id="f_0_3.35" depart="404.00" departLane="np3_nt3_0" departPos="0.00" departSpeed="0.00" departDelay="117.63" arrival="714.00" arrivalLane="nt14_np11_0" arrivalPos="75.00" arrivalSpeed="9.64" duration="310.00" routeLength="951.09" waitingTime="149.00" waitingCount="14" stopTime="0.00" timeLoss="231.57" rerouteNo="0" devices="tripinfo_f_0_3.35" vType="type1" speedFactor="1.02" vaporized=""/>
    <tripinfo id="f_0_3.36" depart="422.00" departLane="np3_nt3_0" departPos="0.00" departSpeed="0.00" departDelay="127.45" arrival="753.00" arrivalLane="nt14_np11_0" arrivalPos="75.00" arrivalSpeed="8.14" duration="331.00" routeLength="951.09" waitingTime="160.00" waitingCount="13" stopTime="0.00" timeLoss="247.12" rerouteNo="0" devices="tripinfo_f_0_3.36" vType="type1" speedFactor="0.95" vaporized=""/>
    <tripinfo id="f_1_3.0" depart="426.00" departLane="np3_nt3_0" departPos="0.80" departSpeed="0.00" departDelay="126.00" arrival="755.00" arrivalLane="nt14_np11_0" arrivalPos="75.00" arrivalSpeed="8.19" duration="329.00" routeLength="950.29" waitingTime="150.00" waitingCount="13" stopTime="0.00" timeLoss="245.31" rerouteNo="0" devices="tripinfo_f_1_3.0" vType="type1" speedFactor="0.96" vaporized=""/>
    <tripinfo id="f_1_3.1" depart="430.00" departLane="np3_nt3_0" departPos="0.00" departSpeed="0.00" departDelay="125.32" arrival="760.00" arrivalLane="nt14_np11_0" arrivalPos="75.00" arrivalSpeed="11.48" duration="330.00" routeLength="951.09" waitingTime="141.00" waitingCount="13" stopTime="0.00" timeLoss="262.73" rerouteNo="0" devices="tripinfo_f_1_3.1" vType="type1" speedFactor="1.19" vaporized=""/>
    <tripinfo id="f_1_3.4" depart="456.00" departLane="np3_nt3_0" departPos="25.27" departSpeed="0.00" departDelay="137.30" arrival="764.00" arrivalLane="nt14_np11_0" arrivalPos="75.00" arrivalSpeed="10.82" duration="308.00" routeLength="925.82" waitingTime="123.00" waitingCount="13" stopTime="0.00" timeLoss="231.74" rerouteNo="0" devices="tripinfo_f_1_3.4" vType="type1" speedFactor="1.02" vaporized=""/>
    <tripinfo id="f_1_3.3" depart="454.00" departLane="np3_nt3_0" departPos="10.67" departSpeed="0.00" departDelay="139.97" arrival="774.00" arrivalLane="nt14_np11_0" arrivalPos="75.00" arrivalSpeed="9.71" duration="320.00" routeLength="940.42" waitingTime="116.00" waitingCount="13" stopTime="0.00" timeLoss="231.56" rerouteNo="0" devices="tripinfo_f_1_3.3" vType="type1" speedFactor="0.89" vaporized=""/>
    <tripinfo id="f_1_3.2" depart="453.00" departLane="np3_nt3_0" departPos="0.00" departSpeed="0.00" departDelay="143.65" arrival="776.00" arrivalLane="nt14_np11_0" arrivalPos="75.00" arrivalSpeed="12.18" duration="323.00" routeLength="951.09" waitingTime="110.00" waitingCount="13" stopTime="0.00" timeLoss="251.76" rerouteNo="0" devices="tripinfo_f_1_3.2" vType="type1" speedFactor="1.13" vaporized=""/>
    <tripinfo id="f_1_3.5" depart="458.00" departLane="np3_nt3_0" departPos="0.74" departSpeed="0.00" departDelay="134.62" arrival="777.00" arrivalLane="nt14_np11_0" arrivalPos="75.00" arrivalSpeed="11.26" duration="319.00" routeLength="950.35" waitingTime="108.00" waitingCount="12" stopTime="0.00" timeLoss="247.21" rerouteNo="0" devices="tripinfo_f_1_3.5" vType="type1" speedFactor="1.10" vaporized=""/>
    <tripinfo id="f_1_3.6" depart="463.00" departLane="np3_nt3_0" departPos="0.00" departSpeed="0.00" departDelay="134.95" arrival="780.00" arrivalLane="nt14_np11_0" arrivalPos="75.00" arrivalSpeed="9.08" duration="317.00" routeLength="951.09" waitingTime="104.00" waitingCount="11" stopTime="0.00" timeLoss="237.32" rerouteNo="0" devices="tripinfo_f_1_3.6" vType="type1" speedFactor="1.01" vaporized=""/>
    <tripinfo id="f_1_3.7" depart="488.00" departLane="np3_nt3_0" departPos="0.82" departSpeed="0.00" departDelay="155.27" arrival="787.00" arrivalLane="nt14_np11_0" arrivalPos="75.00" arrivalSpeed="9.64" duration="299.00" routeLength="950.27" waitingTime="91.00" waitingCount="11" stopTime="0.00" timeLoss="218.99" rerouteNo="0" devices="tripinfo_f_1_3.7" vType="type1" speedFactor="1.00" vaporized=""/>
    <tripinfo id="f_1_3.8" depart="491.00" departLane="np3_nt3_0" departPos="0.05" departSpeed="0.00" departDelay="153.60" arrival="789.00" arrivalLane="nt14_np11_0" arrivalPos="75.00" arrivalSpeed="10.91" duration="298.00" routeLength="951.04" waitingTime="81.00" waitingCount="9" stopTime="0.00" timeLoss="222.74" rerouteNo="0" devices="tripinfo_f_1_3.8" vType="type1" speedFactor="1.06" vaporized=""/>
    <tripinfo id="f_1_3.10" depart="494.00" departLane="np3_nt3_0" departPos="9.14" departSpeed="0.00" departDelay="147.25" arrival="791.00" arrivalLane="nt14_np11_0" arrivalPos="75.00" arrivalSpeed="10.62" duration="297.00" routeLength="941.95" waitingTime="85.00" waitingCount="11" stopTime="0.00" timeLoss="223.48" rerouteNo="0" devices="tripinfo_f_1_3.10" vType="type1" speedFactor="1.08" vaporized=""/>
    <tripinfo id="f_1_3.9" depart="493.00" departLane="np3_nt3_0" departPos="0.00" departSpeed="0.00" departDelay="150.92" arrival="793.00" arrivalLane="nt14_np11_0" arrivalPos="75.00" arrivalSpeed="9.46" duration="300.00" routeLength="951.09" waitingTime="78.00" waitingCount="10" stopTime="0.00" timeLoss="220.73" rerouteNo="0" devices="tripinfo_f_1_3.9" vType="type1" speedFactor="1.01" vaporized=""/>
    <tripinfo id="f_1_3.11" depart="498.00" departLane="np3_nt3_0" departPos="0.00" departSpeed="0.00" departDelay="146.57" arrival="795.00" arrivalLane="nt14_np11_0" arrivalPos="75.00" arrivalSpeed="13.17" duration="297.00" routeLength="951.09" waitingTime="75.00" waitingCount="12" stopTime="0.00" timeLoss="232.19" rerouteNo="0" devices="tripinfo_f_1_3.11" vType="type1" speedFactor="1.24" vaporized=""/>
    <tripinfo id="f_1_3.12" depart="501.00" departLane="np3_nt3_0" departPos="0.00" departSpeed="0.00" departDelay="144.90" arrival="799.00" arrivalLane="nt14_np11_0" arrivalPos="75.00" arrivalSpeed="8.64" duration="298.00" routeLength="951.09" waitingTime="62.00" waitingCount="9" stopTime="0.00" timeLoss="204.84" rerouteNo="0" devices="tripinfo_f_1_3.12" vType="type1" speedFactor="0.85" vaporized=""/>
    <tripinfo id="f_1_3.13" depart="505.00" departLane="np3_nt3_0" departPos="0.00" departSpeed="0.00" departDelay="144.22" arrival="801.00" arrivalLane="nt14_np11_0" arrivalPos="75.00" arrivalSpeed="8.67" duration="296.00" routeLength="951.09" waitingTime="66.00" waitingCount="11" stopTime="0.00" timeLoss="212.90" rerouteNo="0" devices="tripinfo_f_1_3.13" vType="type1" speedFactor="0.96" vaporized=""/>
    <tripinfo id="f_1_3.14" depart="517.00" departLane="np3_nt3_0" departPos="1.11" departSpeed="0.00" departDelay="151.55" arrival="803.00" arrivalLane="nt14_np11_0" arrivalPos="75.00" arrivalSpeed="11.94" duration="286.00" routeLength="949.98" waitingTime="55.00" waitingCount="8" stopTime="0.00" timeLoss="216.18" rerouteNo="0" devices="tripinfo_f_1_3.14" vType="type1" speedFactor="1.14" vaporized=""/>
    <tripinfo id="f_1_3.15" depart="520.00" departLane="np3_nt3_0" departPos="0.00" departSpeed="0.00" departDelay="149.87" arrival="806.00" arrivalLane="nt14_np11_0" arrivalPos="75.00" arrivalSpeed="8.31" duration="286.00" routeLength="951.09" waitingTime="48.00" waitingCount="7" stopTime="0.00" timeLoss="193.80" rerouteNo="0" devices="tripinfo_f_1_3.15" vType="type1" speedFactor="0.87" vaporized=""/>
    <tripinfo id="f_1_3.16" depart="522.00" departLane="np3_nt3_0" departPos="0.00" departSpeed="0.00" departDelay="147.20" arrival="808.00" arrivalLane="nt14_np11_0" arrivalPos="75.00" arrivalSpeed="11.22" duration="286.00" routeLength="951.09" waitingTime="44.00" waitingCount="7" stopTime="0.00" timeLoss="210.58" rerouteNo="0" devices="tripinfo_f_1_3.16" vType="type1" speedFactor="1.07" vaporized=""/>
    <tripinfo id="f_1_3.17" depart="525.00" departLane="np3_nt3_0" departPos="0.00" departSpeed="0.00" departDelay="145.52" arrival="810.00" arrivalLane="nt14_np11_0" arrivalPos="75.00" arrivalSpeed="9.22" duration="285.00" routeLength="951.09" waitingTime="38.00" waitingCount="7" stopTime="0.00" timeLoss="197.88" rerouteNo="0" devices="tripinfo_f_1_3.17" vType="type1" speedFactor="0.92" vaporized=""/>
    <tripinfo id="f_1_3.18" depart="533.00" departLane="np3_nt3_0" departPos="1.63" departSpeed="0.00" departDelay="148.85" arrival="812.00" arrivalLane="nt14_np11_0" arrivalPos="75.00" arrivalSpeed="8.15" duration="279.00" routeLength="949.46" waitingTime="52.00" waitingCount="7" stopTime="0.00" timeLoss="196.37" rerouteNo="0" devices="tripinfo_f_1_3.18" vType="type1" speedFactor="0.97" vaporized=""/>
    <tripinfo id="f_1_3.19" depart="535.00" departLane="np3_nt3_0" departPos="0.00" departSpeed="0.00" departDelay="146.17" arrival="814.00" arrivalLane="nt14_np11_0" arrivalPos="75.00" arrivalSpeed="7.77" duration="279.00" routeLength="951.09" waitingTime="55.00" waitingCount="7" stopTime="0.00" timeLoss="187.26" rerouteNo="0" devices="tripinfo_f_1_3.19" vType="type1" speedFactor="0.87" vaporized=""/>
    <tripinfo id="f_1_3.20" depart="538.00" departLane="np3_nt3_0" departPos="0.87" departSpeed="0.00" departDelay="144.50" arrival="816.00" arrivalLane="nt14_np11_0" arrivalPos="75.00" arrivalSpeed="9.06" duration="278.00" routeLength="950.22" waitingTime="54.00" waitingCount="8" stopTime="0.00" timeLoss="191.43" rerouteNo="0" devices="tripinfo_f_1_3.20" vType="type1" speedFactor="0.93" vaporized=""/>
    <tripinfo id="f_1_3.21" depart="540.00" departLane="np3_nt3_0" departPos="0.00" departSpeed="0.00" departDelay="141.82" arrival="818.00" arrivalLane="nt14_np11_0" arrivalPos="75.00" arrivalSpeed="9.83" duration="278.00" routeLength="951.09" waitingTime="52.00" waitingCount="8" stopTime="0.00" timeLoss="192.29" rerouteNo="0" devices="tripinfo_f_1_3.21" vType="type1" speedFactor="0.94" vaporized=""/>
    <tripinfo id="f_1_3.22" depart="543.00" departLane="np3_nt3_0" departPos="0.00" departSpeed="0.00" departDelay="140.15" arrival="820.00" arrivalLane="nt14_np11_0" arrivalPos="75.00" arrivalSpeed="9.58" duration="277.00" routeLength="951.09" waitingTime="50.00" waitingCount="9" stopTime="0.00" timeLoss="193.00" rerouteNo="0" devices="tripinfo_f_1_3.22" vType="type1" speedFactor="0.96" vaporized=""/>
    <tripinfo id="f_1_3.24" depart="546.00" departLane="np3_nt3_0" departPos="8.64" departSpeed="0.00" departDelay="133.80" arrival="822.00" arrivalLane="nt14_np11_0" arrivalPos="75.00" arrivalSpeed="10.29" duration="276.00" routeLength="942.45" waitingTime="49.00" waitingCount="9" stopTime="0.00" timeLoss="201.36" rerouteNo="0" devices="tripinfo_f_1_3.24" vType="type1" speedFactor="1.07" vaporized=""/>
    <tripinfo id="f_1_3.23" depart="545.00" departLane="np3_nt3_0" departPos="0.00" departSpeed="0.00" departDelay="137.47" arrival="823.00" arrivalLane="nt14_np11_0" arrivalPos="75.00" arrivalSpeed="10.79" duration="278.00" routeLength="951.09" waitingTime="38.00" waitingCount="7" stopTime="0.00" timeLoss="204.14" rerouteNo="0" devices="tripinfo_f_1_3.23" vType="type1" speedFactor="1.07" vaporized=""/>
    <tripinfo id="f_1_3.25" depart="550.00" departLane="np3_nt3_0" departPos="0.00" departSpeed="0.00" departDelay="133.12" arrival="826.00" arrivalLane="nt14_np11_0" arrivalPos="75.00" arrivalSpeed="8.67" duration="276.00" routeLength="951.09" waitingTime="49.00" waitingCount="8" stopTime="0.00" timeLoss="195.82" rerouteNo="0" devices="tripinfo_f_1_3.25" vType="type1" speedFactor="1.00" vaporized=""/>