<?xml version="1.0" encoding="UTF-8"?>

<!-- generated on 2023-08-30 12:43:37 by Eclipse SUMO libsumo Version 1.18.0
<configuration xmlns:xsi="http://www.w3.org/2001/XMLSchema-instance" xsi:noNamespaceSchemaLocation="http://sumo.dlr.de/xsd/libsumoConfiguration.xsd">

    <input>
        <net-file value="/home/stefan/RESCO/./environments/arterial4x4/arterial4x4.net.xml"/>
        <route-files value="/home/stefan/RESCO/./environments/arterial4x4/arterial4x4_68.rou.xml"/>
    </input>

    <output>
        <tripinfo-output value="/home/stefan/results/ITRPO-tr0-arterial4x4-0-drq_norm-wait_norm/tripinfo_68.xml"/>
        <tripinfo-output.write-unfinished value="true"/>
    </output>

    <processing>
        <time-to-teleport value="-1"/>
    </processing>

    <report>
        <no-warnings value="True"/>
        <no-step-log value="True"/>
    </report>

    <random_number>
        <random value="true"/>
    </random_number>

</configuration>
-->

<tripinfos xmlns:xsi="http://www.w3.org/2001/XMLSchema-instance" xsi:noNamespaceSchemaLocation="http://sumo.dlr.de/xsd/tripinfo_file.xsd">
    <tripinfo id="f_0_2.0" depart="0.00" departLane="np2_nt2_0" departPos="18.28" departSpeed="0.00" departDelay="0.00" arrival="91.00" arrivalLane="nt15_np10_0" arrivalPos="75.00" arrivalSpeed="10.03" duration="91.00" routeLength="932.80" waitingTime="3.00" waitingCount="1" stopTime="0.00" timeLoss="17.82" rerouteNo="0" devices="tripinfo_f_0_2.0" vType="type1" speedFactor="1.07" vaporized=""/>
    <tripinfo id="f_0_3.0" depart="0.00" departLane="np3_nt3_0" departPos="52.81" departSpeed="0.00" departDelay="0.00" arrival="121.00" arrivalLane="nt14_np11_0" arrivalPos="75.00" arrivalSpeed="11.55" duration="121.00" routeLength="898.28" waitingTime="29.00" waitingCount="4" stopTime="0.00" timeLoss="52.33" rerouteNo="0" devices="tripinfo_f_0_3.0" vType="type1" speedFactor="1.09" vaporized=""/>
    <tripinfo id="f_0_2.1" depart="9.00" departLane="np2_nt2_0" departPos="53.24" departSpeed="0.00" departDelay="0.82" arrival="126.00" arrivalLane="nt15_np10_0" arrivalPos="75.00" arrivalSpeed="10.04" duration="117.00" routeLength="897.84" waitingTime="25.00" waitingCount="4" stopTime="0.00" timeLoss="50.01" rerouteNo="0" devices="tripinfo_f_0_2.1" vType="type1" speedFactor="1.11" vaporized=""/>
    <tripinfo id="f_0_2.2" depart="17.00" departLane="np2_nt2_0" departPos="46.23" departSpeed="0.00" departDelay="0.64" arrival="128.00" arrivalLane="nt15_np10_0" arrivalPos="75.00" arrivalSpeed="10.98" duration="111.00" routeLength="904.85" waitingTime="15.00" waitingCount="4" stopTime="0.00" timeLoss="40.11" rerouteNo="0" devices="tripinfo_f_0_2.2" vType="type1" speedFactor="1.07" vaporized=""/>
    <tripinfo id="f_0_3.1" depart="9.00" departLane="np3_nt3_0" departPos="16.85" departSpeed="0.00" departDelay="0.82" arrival="138.00" arrivalLane="nt14_np11_0" arrivalPos="75.00" arrivalSpeed="9.80" duration="129.00" routeLength="934.24" waitingTime="22.00" waitingCount="4" stopTime="0.00" timeLoss="46.08" rerouteNo="0" devices="tripinfo_f_0_3.1" vType="type1" speedFactor="0.94" vaporized=""/>
    <tripinfo id="f_0_3.2" depart="17.00" departLane="np3_nt3_0" departPos="53.70" departSpeed="0.00" departDelay="0.64" arrival="156.00" arrivalLane="nt14_np11_0" arrivalPos="75.00" arrivalSpeed="11.21" duration="139.00" routeLength="897.39" waitingTime="45.00" waitingCount="4" stopTime="0.00" timeLoss="69.48" rerouteNo="0" devices="tripinfo_f_0_3.2" vType="type1" speedFactor="1.09" vaporized=""/>
    <tripinfo id="f_0_2.3" depart="25.00" departLane="np2_nt2_0" departPos="44.03" departSpeed="0.00" departDelay="0.45" arrival="157.00" arrivalLane="nt15_np10_0" arrivalPos="75.00" arrivalSpeed="9.26" duration="132.00" routeLength="907.05" waitingTime="31.00" waitingCount="4" stopTime="0.00" timeLoss="59.21" rerouteNo="0" devices="tripinfo_f_0_2.3" vType="type1" speedFactor="1.05" vaporized=""/>
    <tripinfo id="f_0_0.0" depart="0.00" departLane="np13_nt13_0" departPos="1.46" departSpeed="0.00" departDelay="0.00" arrival="158.00" arrivalLane="nt4_np5_0" arrivalPos="75.00" arrivalSpeed="17.13" duration="158.00" routeLength="1346.43" waitingTime="32.00" waitingCount="5" stopTime="0.00" timeLoss="61.30" rerouteNo="0" devices="tripinfo_f_0_0.0" vType="type1" speedFactor="0.96" vaporized=""/>
    <tripinfo id="f_0_3.3" depart="25.00" departLane="np3_nt3_0" departPos="39.45" departSpeed="0.00" departDelay="0.45" arrival="158.00" arrivalLane="nt14_np11_0" arrivalPos="75.00" arrivalSpeed="9.66" duration="133.00" routeLength="911.64" waitingTime="36.00" waitingCount="3" stopTime="0.00" timeLoss="61.36" rerouteNo="0" devices="tripinfo_f_0_3.3" vType="type1" speedFactor="1.07" vaporized=""/>
    <tripinfo id="f_0_3.4" depart="33.00" departLane="np3_nt3_0" departPos="36.40" departSpeed="0.00" departDelay="0.27" arrival="182.00" arrivalLane="nt14_np11_0" arrivalPos="75.00" arrivalSpeed="10.97" duration="149.00" routeLength="914.69" waitingTime="42.00" waitingCount="4" stopTime="0.00" timeLoss="76.82" rerouteNo="0" devices="tripinfo_f_0_3.4" vType="type1" speedFactor="1.06" vaporized=""/>
    <tripinfo id="f_0_2.4" depart="33.00" departLane="np2_nt2_0" departPos="11.68" departSpeed="0.00" departDelay="0.27" arrival="186.00" arrivalLane="nt15_np10_0" arrivalPos="75.00" arrivalSpeed="10.95" duration="153.00" routeLength="939.40" waitingTime="47.00" waitingCount="5" stopTime="0.00" timeLoss="79.80" rerouteNo="0" devices="tripinfo_f_0_2.4" vType="type1" speedFactor="1.07" vaporized=""/>
    <tripinfo id="f_0_0.1" depart="14.00" departLane="np13_nt13_0" departPos="12.78" departSpeed="0.00" departDelay="0.36" arrival="193.00" arrivalLane="nt4_np5_0" arrivalPos="75.00" arrivalSpeed="18.91" duration="179.00" routeLength="1335.11" waitingTime="47.00" waitingCount="4" stopTime="0.00" timeLoss="89.89" rerouteNo="0" devices="tripinfo_f_0_0.1" vType="type1" speedFactor="1.03" vaporized=""/>
    <tripinfo id="f_0_2.5" depart="41.00" departLane="np2_nt2_0" departPos="16.25" departSpeed="0.00" departDelay="0.09" arrival="193.00" arrivalLane="nt15_np10_0" arrivalPos="75.00" arrivalSpeed="6.76" duration="152.00" routeLength="934.83" waitingTime="24.00" waitingCount="3" stopTime="0.00" timeLoss="51.57" rerouteNo="0" devices="tripinfo_f_0_2.5" vType="type1" speedFactor="0.78" vaporized=""/>
    <tripinfo id="f_0_0.2" depart="28.00" departLane="np13_nt13_0" departPos="23.43" departSpeed="0.00" departDelay="0.73" arrival="195.00" arrivalLane="nt4_np5_0" arrivalPos="75.00" arrivalSpeed="19.39" duration="167.00" routeLength="1324.46" waitingTime="42.00" waitingCount="5" stopTime="0.00" timeLoss="78.99" rerouteNo="0" devices="tripinfo_f_0_0.2" vType="type1" speedFactor="1.05" vaporized=""/>
    <tripinfo id="f_0_0.3" depart="41.00" departLane="np13_nt13_0" departPos="52.32" departSpeed="0.00" departDelay="0.09" arrival="197.00" arrivalLane="nt4_np5_0" arrivalPos="75.00" arrivalSpeed="19.40" duration="156.00" routeLength="1295.57" waitingTime="29.00" waitingCount="5" stopTime="0.00" timeLoss="68.59" rerouteNo="0" devices="tripinfo_f_0_0.3" vType="type1" speedFactor="1.04" vaporized=""/>
    <tripinfo id="f_0_0.4" depart="55.00" departLane="np13_nt13_0" departPos="62.14" departSpeed="0.00" departDelay="0.46" arrival="199.00" arrivalLane="nt4_np5_0" arrivalPos="75.00" arrivalSpeed="19.28" duration="144.00" routeLength="1285.75" waitingTime="25.00" waitingCount="4" stopTime="0.00" timeLoss="53.35" rerouteNo="0" devices="tripinfo_f_0_0.4" vType="type1" speedFactor="1.00" vaporized=""/>
    <tripinfo id="f_0_1.0" depart="0.00" departLane="np16_nt1_0" departPos="32.13" departSpeed="0.00" departDelay="0.00" arrival="203.00" arrivalLane="nt16_np8_0" arrivalPos="75.00" arrivalSpeed="17.30" duration="203.00" routeLength="1315.75" waitingTime="75.00" waitingCount="5" stopTime="0.00" timeLoss="106.32" rerouteNo="0" devices="tripinfo_f_0_1.0" vType="type1" speedFactor="0.94" vaporized=""/>
    <tripinfo id="f_0_1.1" depart="14.00" departLane="np16_nt1_0" departPos="6.81" departSpeed="0.00" departDelay="0.36" arrival="205.00" arrivalLane="nt16_np8_0" arrivalPos="75.00" arrivalSpeed="16.29" duration="191.00" routeLength="1341.07" waitingTime="32.00" waitingCount="5" stopTime="0.00" timeLoss="90.31" rerouteNo="0" devices="tripinfo_f_0_1.1" vType="type1" speedFactor="0.92" vaporized=""/>
    <tripinfo id="f_0_1.2" depart="28.00" departLane="np16_nt1_0" departPos="16.08" departSpeed="0.00" departDelay="0.73" arrival="207.00" arrivalLane="nt16_np8_0" arrivalPos="75.00" arrivalSpeed="18.05" duration="179.00" routeLength="1331.80" waitingTime="24.00" waitingCount="4" stopTime="0.00" timeLoss="83.37" rerouteNo="0" devices="tripinfo_f_0_1.2" vType="type1" speedFactor="0.97" vaporized=""/>
    <tripinfo id="f_0_2.6" depart="50.00" departLane="np2_nt2_0" departPos="57.41" departSpeed="0.00" departDelay="0.91" arrival="211.00" arrivalLane="nt15_np10_0" arrivalPos="75.00" arrivalSpeed="6.20" duration="161.00" routeLength="893.67" waitingTime="22.00" waitingCount="4" stopTime="0.00" timeLoss="55.04" rerouteNo="0" devices="tripinfo_f_0_2.6" vType="type1" speedFactor="0.71" vaporized=""/>
    <tripinfo id="f_0_3.5" depart="41.00" departLane="np3_nt3_0" departPos="28.40" departSpeed="0.00" departDelay="0.09" arrival="213.00" arrivalLane="nt14_np11_0" arrivalPos="75.00" arrivalSpeed="9.67" duration="172.00" routeLength="922.69" waitingTime="70.00" waitingCount="3" stopTime="0.00" timeLoss="93.58" rerouteNo="0" devices="tripinfo_f_0_3.5" vType="type1" speedFactor="0.98" vaporized=""/>
    <tripinfo id="f_0_2.7" depart="58.00" departLane="np2_nt2_0" departPos="36.89" departSpeed="0.00" departDelay="0.73" arrival="213.00" arrivalLane="nt15_np10_0" arrivalPos="75.00" arrivalSpeed="9.30" duration="155.00" routeLength="914.19" waitingTime="16.00" waitingCount="4" stopTime="0.00" timeLoss="81.57" rerouteNo="0" devices="tripinfo_f_0_2.7" vType="type1" speedFactor="1.05" vaporized=""/>
    <tripinfo id="f_0_2.8" depart="66.00" departLane="np2_nt2_0" departPos="53.90" departSpeed="0.00" departDelay="0.54" arrival="217.00" arrivalLane="nt15_np10_0" arrivalPos="75.00" arrivalSpeed="10.86" duration="151.00" routeLength="897.18" waitingTime="38.00" waitingCount="6" stopTime="0.00" timeLoss="79.19" rerouteNo="0" devices="tripinfo_f_0_2.8" vType="type1" speedFactor="1.05" vaporized=""/>
    <tripinfo id="f_0_2.9" depart="74.00" departLane="np2_nt2_0" departPos="14.09" departSpeed="0.00" departDelay="0.36" arrival="221.00" arrivalLane="nt15_np10_0" arrivalPos="75.00" arrivalSpeed="8.25" duration="147.00" routeLength="936.99" waitingTime="22.00" waitingCount="3" stopTime="0.00" timeLoss="59.14" rerouteNo="0" devices="tripinfo_f_0_2.9" vType="type1" speedFactor="0.90" vaporized=""/>
    <tripinfo id="f_0_2.10" depart="82.00" departLane="np2_nt2_0" departPos="60.20" departSpeed="0.00" departDelay="0.18" arrival="222.00" arrivalLane="nt15_np10_0" arrivalPos="75.00" arrivalSpeed="11.55" duration="140.00" routeLength="890.88" waitingTime="19.00" waitingCount="3" stopTime="0.00" timeLoss="72.80" rerouteNo="0" devices="tripinfo_f_0_2.10" vType="type1" speedFactor="1.11" vaporized=""/>
    <tripinfo id="f_0_3.6" depart="50.00" departLane="np3_nt3_0" departPos="40.03" departSpeed="0.00" departDelay="0.91" arrival="232.00" arrivalLane="nt14_np11_0" arrivalPos="75.00" arrivalSpeed="9.41" duration="182.00" routeLength="911.06" waitingTime="79.00" waitingCount="6" stopTime="0.00" timeLoss="107.41" rerouteNo="0" devices="tripinfo_f_0_3.6" vType="type1" speedFactor="1.03" vaporized=""/>
    <tripinfo id="f_0_3.7" depart="58.00" departLane="np3_nt3_0" departPos="20.23" departSpeed="0.00" departDelay="0.73" arrival="234.00" arrivalLane="nt14_np11_0" arrivalPos="75.00" arrivalSpeed="9.06" duration="176.00" routeLength="930.86" waitingTime="70.00" waitingCount="6" stopTime="0.00" timeLoss="99.13" rerouteNo="0" devices="tripinfo_f_0_3.7" vType="type1" speedFactor="1.01" vaporized=""/>
    <tripinfo id="f_0_1.3" depart="41.00" departLane="np16_nt1_0" departPos="22.16" departSpeed="0.00" departDelay="0.09" arrival="248.00" arrivalLane="nt16_np8_0" arrivalPos="75.00" arrivalSpeed="20.24" duration="207.00" routeLength="1325.72" waitingTime="64.00" waitingCount="7" stopTime="0.00" timeLoss="120.64" rerouteNo="0" devices="tripinfo_f_0_1.3" vType="type1" speedFactor="1.07" vaporized=""/>
    <tripinfo id="f_0_1.4" depart="55.00" departLane="np16_nt1_0" departPos="20.19" departSpeed="0.00" departDelay="0.46" arrival="250.00" arrivalLane="nt16_np8_0" arrivalPos="75.00" arrivalSpeed="20.31" duration="195.00" routeLength="1327.69" waitingTime="60.00" waitingCount="7" stopTime="0.00" timeLoss="109.04" rerouteNo="0" devices="tripinfo_f_0_1.4" vType="type1" speedFactor="1.08" vaporized=""/>
    <tripinfo id="f_0_3.8" depart="66.00" departLane="np3_nt3_0" departPos="0.87" departSpeed="0.00" departDelay="0.54" arrival="267.00" arrivalLane="nt14_np11_0" arrivalPos="75.00" arrivalSpeed="10.78" duration="201.00" routeLength="950.22" waitingTime="82.00" waitingCount="7" stopTime="0.00" timeLoss="125.47" rerouteNo="0" devices="tripinfo_f_0_3.8" vType="type1" speedFactor="1.06" vaporized=""/>
    <tripinfo id="f_0_3.9" depart="74.00" departLane="np3_nt3_0" departPos="17.03" departSpeed="0.00" departDelay="0.36" arrival="284.00" arrivalLane="nt14_np11_0" arrivalPos="75.00" arrivalSpeed="7.45" duration="210.00" routeLength="934.06" waitingTime="78.00" waitingCount="8" stopTime="0.00" timeLoss="120.54" rerouteNo="0" devices="tripinfo_f_0_3.9" vType="type1" speedFactor="0.88" vaporized=""/>
    <tripinfo id="f_0_1.5" depart="69.00" departLane="np16_nt1_0" departPos="49.64" departSpeed="0.00" departDelay="0.82" arrival="289.00" arrivalLane="nt16_np8_0" arrivalPos="75.00" arrivalSpeed="18.25" duration="220.00" routeLength="1298.24" waitingTime="79.00" waitingCount="8" stopTime="0.00" timeLoss="127.53" rerouteNo="0" devices="tripinfo_f_0_1.5" vType="type1" speedFactor="0.98" vaporized=""/>
    <tripinfo id="f_0_2.11" depart="90.00" departLane="np2_nt2_0" departPos="28.66" departSpeed="0.00" departDelay="0.00" arrival="300.00" arrivalLane="nt15_np10_0" arrivalPos="75.00" arrivalSpeed="8.33" duration="210.00" routeLength="922.42" waitingTime="81.00" waitingCount="6" stopTime="0.00" timeLoss="125.65" rerouteNo="0" devices="tripinfo_f_0_2.11" vType="type1" speedFactor="0.92" vaporized=""/>
    <tripinfo id="f_0_2.12" depart="99.00" departLane="np2_nt2_0" departPos="39.78" departSpeed="0.00" departDelay="0.82" arrival="309.00" arrivalLane="nt15_np10_0" arrivalPos="75.00" arrivalSpeed="11.12" duration="210.00" routeLength="911.30" waitingTime="98.00" waitingCount="7" stopTime="0.00" timeLoss="140.22" rerouteNo="0" devices="tripinfo_f_0_2.12" vType="type1" speedFactor="1.10" vaporized=""/>
    <tripinfo id="f_0_0.5" depart="69.00" departLane="np13_nt13_0" departPos="35.37" departSpeed="0.00" departDelay="0.82" arrival="319.00" arrivalLane="nt4_np5_0" arrivalPos="75.00" arrivalSpeed="15.45" duration="250.00" routeLength="1312.52" waitingTime="113.00" waitingCount="5" stopTime="0.00" timeLoss="147.23" rerouteNo="0" devices="tripinfo_f_0_0.5" vType="type1" speedFactor="0.89" vaporized=""/>
    <tripinfo id="f_0_1.6" depart="82.00" departLane="np16_nt1_0" departPos="55.78" departSpeed="0.00" departDelay="0.18" arrival="319.00" arrivalLane="nt16_np8_0" arrivalPos="75.00" arrivalSpeed="17.36" duration="237.00" routeLength="1292.10" waitingTime="98.00" waitingCount="7" stopTime="0.00" timeLoss="142.16" rerouteNo="0" devices="tripinfo_f_0_1.6" vType="type1" speedFactor="0.96" vaporized=""/>
    <tripinfo id="f_0_3.10" depart="82.00" departLane="np3_nt3_0" departPos="23.33" departSpeed="0.00" departDelay="0.18" arrival="323.00" arrivalLane="nt14_np11_0" arrivalPos="75.00" arrivalSpeed="8.88" duration="241.00" routeLength="927.76" waitingTime="106.00" waitingCount="10" stopTime="0.00" timeLoss="160.29" rerouteNo="0" devices="tripinfo_f_0_3.10" vType="type1" speedFactor="0.97" vaporized=""/>
    <tripinfo id="f_0_3.11" depart="90.00" departLane="np3_nt3_0" departPos="10.12" departSpeed="0.00" departDelay="0.00" arrival="325.00" arrivalLane="nt14_np11_0" arrivalPos="75.00" arrivalSpeed="9.82" duration="235.00" routeLength="940.97" waitingTime="90.00" waitingCount="8" stopTime="0.00" timeLoss="154.05" rerouteNo="0" devices="tripinfo_f_0_3.11" vType="type1" speedFactor="0.98" vaporized=""/>
    <tripinfo id="f_0_3.12" depart="99.00" departLane="np3_nt3_0" departPos="7.34" departSpeed="0.00" departDelay="0.82" arrival="328.00" arrivalLane="nt14_np11_0" arrivalPos="75.00" arrivalSpeed="8.03" duration="229.00" routeLength="943.75" waitingTime="93.00" waitingCount="8" stopTime="0.00" timeLoss="139.52" rerouteNo="0" devices="tripinfo_f_0_3.12" vType="type1" speedFactor="0.89" vaporized=""/>
    <tripinfo id="f_0_3.13" depart="107.00" departLane="np3_nt3_0" departPos="0.00" departSpeed="0.00" departDelay="0.63" arrival="330.00" arrivalLane="nt14_np11_0" arrivalPos="75.00" arrivalSpeed="11.52" duration="223.00" routeLength="951.09" waitingTime="94.00" waitingCount="7" stopTime="0.00" timeLoss="147.93" rerouteNo="0" devices="tripinfo_f_0_3.13" vType="type1" speedFactor="1.08" vaporized=""/>
    <tripinfo id="f_0_2.13" depart="107.00" departLane="np2_nt2_0" departPos="31.63" departSpeed="0.00" departDelay="0.63" arrival="343.00" arrivalLane="nt15_np10_0" arrivalPos="75.00" arrivalSpeed="8.31" duration="236.00" routeLength="919.45" waitingTime="109.00" waitingCount="7" stopTime="0.00" timeLoss="152.35" rerouteNo="0" devices="tripinfo_f_0_2.13" vType="type1" speedFactor="0.92" vaporized=""/>
    <tripinfo id="f_0_2.14" depart="115.00" departLane="np2_nt2_0" departPos="61.25" departSpeed="0.00" departDelay="0.45" arrival="345.00" arrivalLane="nt15_np10_0" arrivalPos="75.00" arrivalSpeed="11.45" duration="230.00" routeLength="889.83" waitingTime="101.00" waitingCount="7" stopTime="0.00" timeLoss="158.49" rerouteNo="0" devices="tripinfo_f_0_2.14" vType="type1" speedFactor="1.04" vaporized=""/>
    <tripinfo id="f_0_3.14" depart="115.00" departLane="np3_nt3_0" departPos="4.88" departSpeed="0.00" departDelay="0.45" arrival="346.00" arrivalLane="nt14_np11_0" arrivalPos="75.00" arrivalSpeed="11.31" duration="231.00" routeLength="946.21" waitingTime="100.00" waitingCount="8" stopTime="0.00" timeLoss="164.20" rerouteNo="0" devices="tripinfo_f_0_3.14" vType="type1" speedFactor="1.19" vaporized=""/>
    <tripinfo id="f_0_0.6" depart="82.00" departLane="np13_nt13_0" departPos="56.28" departSpeed="0.00" departDelay="0.18" arrival="359.00" arrivalLane="nt4_np5_0" arrivalPos="75.00" arrivalSpeed="18.21" duration="277.00" routeLength="1291.61" waitingTime="145.00" waitingCount="7" stopTime="0.00" timeLoss="183.86" rerouteNo="0" devices="tripinfo_f_0_0.6" vType="type1" speedFactor="0.98" vaporized=""/>
    <tripinfo id="f_0_3.15" depart="123.00" departLane="np3_nt3_0" departPos="0.00" departSpeed="0.00" departDelay="0.27" arrival="359.00" arrivalLane="nt14_np11_0" arrivalPos="75.00" arrivalSpeed="9.81" duration="236.00" routeLength="951.09" waitingTime="89.00" waitingCount="9" stopTime="0.00" timeLoss="147.44" rerouteNo="0" devices="tripinfo_f_0_3.15" vType="type1" speedFactor="0.90" vaporized=""/>
    <tripinfo id="f_0_0.7" depart="96.00" departLane="np13_nt13_0" departPos="32.09" departSpeed="0.00" departDelay="0.55" arrival="360.00" arrivalLane="nt4_np5_0" arrivalPos="75.00" arrivalSpeed="19.52" duration="264.00" routeLength="1315.80" waitingTime="132.00" waitingCount="8" stopTime="0.00" timeLoss="179.70" rerouteNo="0" devices="tripinfo_f_0_0.7" vType="type1" speedFactor="1.09" vaporized=""/>
    <tripinfo id="f_0_0.8" depart="110.00" departLane="np13_nt13_0" departPos="14.33" departSpeed="0.00" departDelay="0.91" arrival="362.00" arrivalLane="nt4_np5_0" arrivalPos="75.00" arrivalSpeed="17.95" duration="252.00" routeLength="1333.56" waitingTime="107.00" waitingCount="7" stopTime="0.00" timeLoss="160.88" rerouteNo="0" devices="tripinfo_f_0_0.8" vType="type1" speedFactor="1.01" vaporized=""/>
    <tripinfo id="f_0_0.9" depart="123.00" departLane="np13_nt13_0" departPos="22.91" departSpeed="0.00" departDelay="0.28" arrival="364.00" arrivalLane="nt4_np5_0" arrivalPos="75.00" arrivalSpeed="19.49" duration="241.00" routeLength="1324.98" waitingTime="99.00" waitingCount="6" stopTime="0.00" timeLoss="150.82" rerouteNo="0" devices="tripinfo_f_0_0.9" vType="type1" speedFactor="1.02" vaporized=""/>
    <tripinfo id="f_0_1.7" depart="96.00" departLane="np16_nt1_0" departPos="32.91" departSpeed="0.00" departDelay="0.55" arrival="368.00" arrivalLane="nt16_np8_0" arrivalPos="75.00" arrivalSpeed="20.10" duration="272.00" routeLength="1314.97" waitingTime="111.00" waitingCount="10" stopTime="0.00" timeLoss="186.97" rerouteNo="0" devices="tripinfo_f_0_1.7" vType="type1" speedFactor="1.09" vaporized=""/>
    <tripinfo id="f_0_1.8" depart="110.00" departLane="np16_nt1_0" departPos="50.50" departSpeed="0.00" departDelay="0.91" arrival="370.00" arrivalLane="nt16_np8_0" arrivalPos="75.00" arrivalSpeed="17.67" duration="260.00" routeLength="1297.38" waitingTime="101.00" waitingCount="9" stopTime="0.00" timeLoss="163.16" rerouteNo="0" devices="tripinfo_f_0_1.8" vType="type1" speedFactor="0.94" vaporized=""/>
    <tripinfo id="f_0_0.10" depart="137.00" departLane="np13_nt13_0" departPos="58.84" departSpeed="0.00" departDelay="0.64" arrival="373.00" arrivalLane="nt4_np5_0" arrivalPos="75.00" arrivalSpeed="20.39" duration="236.00" routeLength="1289.05" waitingTime="104.00" waitingCount="8" stopTime="0.00" timeLoss="152.70" rerouteNo="0" devices="tripinfo_f_0_0.10" vType="type1" speedFactor="1.08" vaporized=""/>
    <tripinfo id="f_0_0.11" depart="150.00" departLane="np13_nt13_0" departPos="28.69" departSpeed="0.00" departDelay="0.00" arrival="375.00" arrivalLane="nt4_np5_0" arrivalPos="75.00" arrivalSpeed="20.22" duration="225.00" routeLength="1319.20" waitingTime="85.00" waitingCount="8" stopTime="0.00" timeLoss="135.40" rerouteNo="0" devices="tripinfo_f_0_0.11" vType="type1" speedFactor="1.03" vaporized=""/>
    <tripinfo id="f_0_0.12" depart="164.00" departLane="np13_nt13_0" departPos="7.84" departSpeed="0.00" departDelay="0.37" arrival="384.00" arrivalLane="nt4_np5_0" arrivalPos="75.00" arrivalSpeed="16.30" duration="220.00" routeLength="1340.05" waitingTime="64.00" waitingCount="7" stopTime="0.00" timeLoss="117.78" rerouteNo="0" devices="tripinfo_f_0_0.12" vType="type1" speedFactor="0.91" vaporized=""/>
    <tripinfo id="f_0_3.16" depart="131.00" departLane="np3_nt3_0" departPos="2.95" departSpeed="0.00" departDelay="0.09" arrival="390.00" arrivalLane="nt14_np11_0" arrivalPos="75.00" arrivalSpeed="7.21" duration="259.00" routeLength="948.14" waitingTime="105.00" waitingCount="9" stopTime="0.00" timeLoss="160.90" rerouteNo="0" devices="tripinfo_f_0_3.16" vType="type1" speedFactor="0.82" vaporized=""/>
    <tripinfo id="f_0_3.17" depart="140.00" departLane="np3_nt3_0" departPos="0.00" departSpeed="0.00" departDelay="0.91" arrival="391.00" arrivalLane="nt14_np11_0" arrivalPos="75.00" arrivalSpeed="9.66" duration="251.00" routeLength="951.09" waitingTime="118.00" waitingCount="9" stopTime="0.00" timeLoss="172.52" rerouteNo="0" devices="tripinfo_f_0_3.17" vType="type1" speedFactor="1.02" vaporized=""/>
    <tripinfo id="f_0_0.13" depart="178.00" departLane="np13_nt13_0" departPos="44.93" departSpeed="0.00" departDelay="0.73" arrival="394.00" arrivalLane="nt4_np5_0" arrivalPos="75.00" arrivalSpeed="19.03" duration="216.00" routeLength="1302.96" waitingTime="60.00" waitingCount="10" stopTime="0.00" timeLoss="122.70" rerouteNo="0" devices="tripinfo_f_0_0.13" vType="type1" speedFactor="0.98" vaporized=""/>
    <tripinfo id="f_0_0.14" depart="191.00" departLane="np13_nt13_0" departPos="14.91" departSpeed="0.00" departDelay="0.10" arrival="395.00" arrivalLane="nt4_np5_0" arrivalPos="75.00" arrivalSpeed="20.06" duration="204.00" routeLength="1332.98" waitingTime="56.00" waitingCount="9" stopTime="0.00" timeLoss="121.69" rerouteNo="0" devices="tripinfo_f_0_0.14" vType="type1" speedFactor="1.12" vaporized=""/>
    <tripinfo id="f_0_0.15" depart="205.00" departLane="np13_nt13_0" departPos="41.41" departSpeed="0.00" departDelay="0.46" arrival="403.00" arrivalLane="nt4_np5_0" arrivalPos="75.00" arrivalSpeed="21.25" duration="198.00" routeLength="1306.48" waitingTime="50.00" waitingCount="9" stopTime="0.00" timeLoss="115.75" rerouteNo="0" devices="tripinfo_f_0_0.15" vType="type1" speedFactor="1.11" vaporized=""/>
    <tripinfo id="f_0_0.16" depart="219.00" departLane="np13_nt13_0" departPos="57.73" departSpeed="0.00" departDelay="0.82" arrival="405.00" arrivalLane="nt4_np5_0" arrivalPos="75.00" arrivalSpeed="19.56" duration="186.00" routeLength="1290.16" waitingTime="44.00" waitingCount="8" stopTime="0.00" timeLoss="96.67" rerouteNo="0" devices="tripinfo_f_0_0.16" vType="type1" speedFactor="1.01" vaporized=""/>
    <tripinfo id="f_0_3.18" depart="148.00" departLane="np3_nt3_0" departPos="17.80" departSpeed="0.00" departDelay="0.72" arrival="406.00" arrivalLane="nt14_np11_0" arrivalPos="75.00" arrivalSpeed="9.97" duration="258.00" routeLength="933.29" waitingTime="128.00" waitingCount="11" stopTime="0.00" timeLoss="186.58" rerouteNo="0" devices="tripinfo_f_0_3.18" vType="type1" speedFactor="1.09" vaporized=""/>
    <tripinfo id="f_0_0.17" depart="232.00" departLane="np13_nt13_0" departPos="39.18" departSpeed="0.00" departDelay="0.19" arrival="407.00" arrivalLane="nt4_np5_0" arrivalPos="75.00" arrivalSpeed="17.20" duration="175.00" routeLength="1308.71" waitingTime="30.00" waitingCount="9" stopTime="0.00" timeLoss="78.17" rerouteNo="0" devices="tripinfo_f_0_0.17" vType="type1" speedFactor="0.94" vaporized=""/>
    <tripinfo id="f_0_0.18" depart="246.00" departLane="np13_nt13_0" departPos="56.88" departSpeed="0.00" departDelay="0.55" arrival="408.00" arrivalLane="nt4_np5_0" arrivalPos="75.00" arrivalSpeed="19.28" duration="162.00" routeLength="1291.01" waitingTime="27.00" waitingCount="6" stopTime="0.00" timeLoss="70.21" rerouteNo="0" devices="tripinfo_f_0_0.18" vType="type1" speedFactor="0.98" vaporized=""/>
    <tripinfo id="f_0_0.19" depart="260.00" departLane="np13_nt13_0" departPos="37.48" departSpeed="0.00" departDelay="0.92" arrival="410.00" arrivalLane="nt4_np5_0" arrivalPos="75.00" arrivalSpeed="20.45" duration="150.00" routeLength="1310.41" waitingTime="13.00" waitingCount="6" stopTime="0.00" timeLoss="66.85" rerouteNo="0" devices="tripinfo_f_0_0.19" vType="type1" speedFactor="1.10" vaporized=""/>
    <tripinfo id="f_0_2.15" depart="123.00" departLane="np2_nt2_0" departPos="18.81" departSpeed="0.00" departDelay="0.27" arrival="418.00" arrivalLane="nt15_np10_0" arrivalPos="75.00" arrivalSpeed="11.05" duration="295.00" routeLength="932.27" waitingTime="143.00" waitingCount="9" stopTime="0.00" timeLoss="217.35" rerouteNo="0" devices="tripinfo_f_0_2.15" vType="type1" speedFactor="1.02" vaporized=""/>
    <tripinfo id="f_0_2.16" depart="131.00" departLane="np2_nt2_0" departPos="40.72" departSpeed="0.00" departDelay="0.09" arrival="431.00" arrivalLane="nt15_np10_0" arrivalPos="75.00" arrivalSpeed="11.26" duration="300.00" routeLength="910.36" waitingTime="155.00" waitingCount="9" stopTime="0.00" timeLoss="232.92" rerouteNo="0" devices="tripinfo_f_0_2.16" vType="type1" speedFactor="1.13" vaporized=""/>
    <tripinfo id="f_0_0.20" depart="273.00" departLane="np13_nt13_0" departPos="31.34" departSpeed="0.00" departDelay="0.28" arrival="433.00" arrivalLane="nt4_np5_0" arrivalPos="75.00" arrivalSpeed="19.32" duration="160.00" routeLength="1316.55" waitingTime="32.00" waitingCount="4" stopTime="0.00" timeLoss="66.82" rerouteNo="0" devices="tripinfo_f_0_0.20" vType="type1" speedFactor="0.98" vaporized=""/>
    <tripinfo id="f_0_2.17" depart="140.00" departLane="np2_nt2_0" departPos="6.27" departSpeed="0.00" departDelay="0.91" arrival="434.00" arrivalLane="nt15_np10_0" arrivalPos="75.00" arrivalSpeed="9.66" duration="294.00" routeLength="944.81" waitingTime="131.00" waitingCount="10" stopTime="0.00" timeLoss="214.38" rerouteNo="0" devices="tripinfo_f_0_2.17" vType="type1" speedFactor="1.00" vaporized=""/>
    <tripinfo id="f_0_2.18" depart="148.00" departLane="np2_nt2_0" departPos="25.82" departSpeed="0.00" departDelay="0.72" arrival="447.00" arrivalLane="nt15_np10_0" arrivalPos="75.00" arrivalSpeed="9.47" duration="299.00" routeLength="925.26" waitingTime="119.00" waitingCount="11" stopTime="0.00" timeLoss="219.61" rerouteNo="0" devices="tripinfo_f_0_2.18" vType="type1" speedFactor="0.98" vaporized=""/>
    <tripinfo id="f_0_1.9" depart="123.00" departLane="np16_nt1_0" departPos="48.42" departSpeed="0.00" departDelay="0.28" arrival="448.00" arrivalLane="nt16_np8_0" arrivalPos="75.00" arrivalSpeed="17.76" duration="325.00" routeLength="1299.46" waitingTime="135.00" waitingCount="11" stopTime="0.00" timeLoss="230.81" rerouteNo="0" devices="tripinfo_f_0_1.9" vType="type1" speedFactor="0.96" vaporized=""/>
    <tripinfo id="f_0_0.21" depart="287.00" departLane="np13_nt13_0" departPos="44.50" departSpeed="0.00" departDelay="0.64" arrival="454.00" arrivalLane="nt4_np5_0" arrivalPos="75.00" arrivalSpeed="16.88" duration="167.00" routeLength="1303.39" waitingTime="33.00" waitingCount="6" stopTime="0.00" timeLoss="69.51" rerouteNo="0" devices="tripinfo_f_0_0.21" vType="type1" speedFactor="0.93" vaporized=""/>
    <tripinfo id="f_0_2.19" depart="156.00" departLane="np2_nt2_0" departPos="18.91" departSpeed="0.00" departDelay="0.54" arrival="458.00" arrivalLane="nt15_np10_0" arrivalPos="75.00" arrivalSpeed="8.10" duration="302.00" routeLength="932.17" waitingTime="109.00" waitingCount="13" stopTime="0.00" timeLoss="214.78" rerouteNo="0" devices="tripinfo_f_0_2.19" vType="type1" speedFactor="0.90" vaporized=""/>