<?xml version="1.0" encoding="UTF-8"?>

<!-- generated on 2023-08-30 12:30:15 by Eclipse SUMO libsumo Version 1.18.0
<configuration xmlns:xsi="http://www.w3.org/2001/XMLSchema-instance" xsi:noNamespaceSchemaLocation="http://sumo.dlr.de/xsd/libsumoConfiguration.xsd">

    <input>
        <net-file value="/home/stefan/RESCO/./environments/arterial4x4/arterial4x4.net.xml"/>
        <route-files value="/home/stefan/RESCO/./environments/arterial4x4/arterial4x4_32.rou.xml"/>
    </input>

    <output>
        <tripinfo-output value="/home/stefan/results/ITRPO-tr0-arterial4x4-0-drq_norm-wait_norm/tripinfo_32.xml"/>
        <tripinfo-output.write-unfinished value="true"/>
    </output>

    <processing>
        <time-to-teleport value="-1"/>
    </processing>

    <report>
        <no-warnings value="True"/>
        <no-step-log value="True"/>
    </report>

    <random_number>
        <random value="true"/>
    </random_number>

</configuration>
-->

<tripinfos xmlns:xsi="http://www.w3.org/2001/XMLSchema-instance" xsi:noNamespaceSchemaLocation="http://sumo.dlr.de/xsd/tripinfo_file.xsd">
    <tripinfo id="f_0_2.0" depart="0.00" departLane="np2_nt2_0" departPos="47.10" departSpeed="0.00" departDelay="0.00" arrival="134.00" arrivalLane="nt15_np10_0" arrivalPos="75.00" arrivalSpeed="7.83" duration="134.00" routeLength="903.98" waitingTime="21.00" waitingCount="4" stopTime="0.00" timeLoss="48.94" rerouteNo="0" devices="tripinfo_f_0_2.0" vType="type1" speedFactor="0.89" vaporized=""/>
    <tripinfo id="f_0_1.0" depart="0.00" departLane="np16_nt1_0" departPos="47.75" departSpeed="0.00" departDelay="0.00" arrival="144.00" arrivalLane="nt16_np8_0" arrivalPos="75.00" arrivalSpeed="20.30" duration="144.00" routeLength="1300.13" waitingTime="17.00" waitingCount="5" stopTime="0.00" timeLoss="62.03" rerouteNo="0" devices="tripinfo_f_0_1.0" vType="type1" speedFactor="1.11" vaporized=""/>
    <tripinfo id="f_0_2.1" depart="9.00" departLane="np2_nt2_0" departPos="15.93" departSpeed="0.00" departDelay="0.82" arrival="146.00" arrivalLane="nt15_np10_0" arrivalPos="75.00" arrivalSpeed="10.68" duration="137.00" routeLength="935.15" waitingTime="35.00" waitingCount="5" stopTime="0.00" timeLoss="65.35" rerouteNo="0" devices="tripinfo_f_0_2.1" vType="type1" speedFactor="1.10" vaporized=""/>
    <tripinfo id="f_0_0.0" depart="0.00" departLane="np13_nt13_0" departPos="63.13" departSpeed="0.00" departDelay="0.00" arrival="179.00" arrivalLane="nt4_np5_0" arrivalPos="75.00" arrivalSpeed="20.17" duration="179.00" routeLength="1284.76" waitingTime="55.00" waitingCount="6" stopTime="0.00" timeLoss="91.81" rerouteNo="0" devices="tripinfo_f_0_0.0" vType="type1" speedFactor="1.04" vaporized=""/>
    <tripinfo id="f_0_2.2" depart="17.00" departLane="np2_nt2_0" departPos="51.31" departSpeed="0.00" departDelay="0.64" arrival="181.00" arrivalLane="nt15_np10_0" arrivalPos="75.00" arrivalSpeed="6.18" duration="164.00" routeLength="899.77" waitingTime="34.00" waitingCount="4" stopTime="0.00" timeLoss="65.01" rerouteNo="0" devices="tripinfo_f_0_2.2" vType="type1" speedFactor="0.76" vaporized=""/>
    <tripinfo id="f_0_2.3" depart="25.00" departLane="np2_nt2_0" departPos="57.46" departSpeed="0.00" departDelay="0.45" arrival="183.00" arrivalLane="nt15_np10_0" arrivalPos="75.00" arrivalSpeed="7.93" duration="158.00" routeLength="893.62" waitingTime="38.00" waitingCount="6" stopTime="0.00" timeLoss="73.18" rerouteNo="0" devices="tripinfo_f_0_2.3" vType="type1" speedFactor="0.88" vaporized=""/>
    <tripinfo id="f_0_0.1" depart="14.00" departLane="np13_nt13_0" departPos="11.94" departSpeed="0.00" departDelay="0.36" arrival="203.00" arrivalLane="nt4_np5_0" arrivalPos="75.00" arrivalSpeed="22.26" duration="189.00" routeLength="1335.95" waitingTime="58.00" waitingCount="7" stopTime="0.00" timeLoss="111.65" rerouteNo="0" devices="tripinfo_f_0_0.1" vType="type1" speedFactor="1.20" vaporized=""/>
    <tripinfo id="f_0_1.1" depart="14.00" departLane="np16_nt1_0" departPos="1.91" departSpeed="0.00" departDelay="0.36" arrival="204.00" arrivalLane="nt16_np8_0" arrivalPos="75.00" arrivalSpeed="18.97" duration="190.00" routeLength="1345.97" waitingTime="41.00" waitingCount="7" stopTime="0.00" timeLoss="102.22" rerouteNo="0" devices="tripinfo_f_0_1.1" vType="type1" speedFactor="1.07" vaporized=""/>
    <tripinfo id="f_0_0.2" depart="28.00" departLane="np13_nt13_0" departPos="31.28" departSpeed="0.00" departDelay="0.73" arrival="205.00" arrivalLane="nt4_np5_0" arrivalPos="75.00" arrivalSpeed="19.35" duration="177.00" routeLength="1316.61" waitingTime="48.00" waitingCount="5" stopTime="0.00" timeLoss="86.89" rerouteNo="0" devices="tripinfo_f_0_0.2" vType="type1" speedFactor="1.03" vaporized=""/>
    <tripinfo id="f_0_3.0" depart="0.00" departLane="np3_nt3_0" departPos="20.48" departSpeed="0.00" departDelay="0.00" arrival="212.00" arrivalLane="nt14_np11_0" arrivalPos="75.00" arrivalSpeed="10.80" duration="212.00" routeLength="930.61" waitingTime="113.00" waitingCount="4" stopTime="0.00" timeLoss="139.73" rerouteNo="0" devices="tripinfo_f_0_3.0" vType="type1" speedFactor="1.09" vaporized=""/>
    <tripinfo id="f_0_2.4" depart="33.00" departLane="np2_nt2_0" departPos="41.12" departSpeed="0.00" departDelay="0.27" arrival="213.00" arrivalLane="nt15_np10_0" arrivalPos="75.00" arrivalSpeed="9.69" duration="180.00" routeLength="909.96" waitingTime="53.00" waitingCount="7" stopTime="0.00" timeLoss="97.99" rerouteNo="0" devices="tripinfo_f_0_2.4" vType="type1" speedFactor="0.94" vaporized=""/>
    <tripinfo id="f_0_3.1" depart="9.00" departLane="np3_nt3_0" departPos="44.66" departSpeed="0.00" departDelay="0.82" arrival="214.00" arrivalLane="nt14_np11_0" arrivalPos="75.00" arrivalSpeed="9.58" duration="205.00" routeLength="906.43" waitingTime="98.00" waitingCount="5" stopTime="0.00" timeLoss="129.08" rerouteNo="0" devices="tripinfo_f_0_3.1" vType="type1" speedFactor="1.00" vaporized=""/>
    <tripinfo id="f_0_3.2" depart="17.00" departLane="np3_nt3_0" departPos="46.84" departSpeed="0.00" departDelay="0.64" arrival="223.00" arrivalLane="nt14_np11_0" arrivalPos="75.00" arrivalSpeed="8.42" duration="206.00" routeLength="904.25" waitingTime="91.00" waitingCount="7" stopTime="0.00" timeLoss="125.98" rerouteNo="0" devices="tripinfo_f_0_3.2" vType="type1" speedFactor="0.95" vaporized=""/>
    <tripinfo id="f_0_0.3" depart="41.00" departLane="np13_nt13_0" departPos="35.85" departSpeed="0.00" departDelay="0.09" arrival="224.00" arrivalLane="nt4_np5_0" arrivalPos="75.00" arrivalSpeed="14.71" duration="183.00" routeLength="1312.04" waitingTime="33.00" waitingCount="7" stopTime="0.00" timeLoss="72.34" rerouteNo="0" devices="tripinfo_f_0_0.3" vType="type1" speedFactor="0.83" vaporized=""/>
    <tripinfo id="f_0_3.3" depart="25.00" departLane="np3_nt3_0" departPos="29.03" departSpeed="0.00" departDelay="0.45" arrival="225.00" arrivalLane="nt14_np11_0" arrivalPos="75.00" arrivalSpeed="10.35" duration="200.00" routeLength="922.06" waitingTime="77.00" waitingCount="7" stopTime="0.00" timeLoss="119.44" rerouteNo="0" devices="tripinfo_f_0_3.3" vType="type1" speedFactor="0.96" vaporized=""/>
    <tripinfo id="f_0_0.4" depart="55.00" departLane="np13_nt13_0" departPos="19.09" departSpeed="0.00" departDelay="0.46" arrival="244.00" arrivalLane="nt4_np5_0" arrivalPos="75.00" arrivalSpeed="18.23" duration="189.00" routeLength="1328.80" waitingTime="46.00" waitingCount="7" stopTime="0.00" timeLoss="89.52" rerouteNo="0" devices="tripinfo_f_0_0.4" vType="type1" speedFactor="0.93" vaporized=""/>
    <tripinfo id="f_0_2.5" depart="41.00" departLane="np2_nt2_0" departPos="10.55" departSpeed="0.00" departDelay="0.09" arrival="251.00" arrivalLane="nt15_np10_0" arrivalPos="75.00" arrivalSpeed="12.24" duration="210.00" routeLength="940.53" waitingTime="93.00" waitingCount="7" stopTime="0.00" timeLoss="141.70" rerouteNo="0" devices="tripinfo_f_0_2.5" vType="type1" speedFactor="1.16" vaporized=""/>
    <tripinfo id="f_0_0.5" depart="69.00" departLane="np13_nt13_0" departPos="52.04" departSpeed="0.00" departDelay="0.82" arrival="273.00" arrivalLane="nt4_np5_0" arrivalPos="75.00" arrivalSpeed="21.26" duration="204.00" routeLength="1295.85" waitingTime="70.00" waitingCount="9" stopTime="0.00" timeLoss="119.73" rerouteNo="0" devices="tripinfo_f_0_0.5" vType="type1" speedFactor="1.07" vaporized=""/>
    <tripinfo id="f_0_3.4" depart="33.00" departLane="np3_nt3_0" departPos="25.59" departSpeed="0.00" departDelay="0.27" arrival="287.00" arrivalLane="nt14_np11_0" arrivalPos="75.00" arrivalSpeed="9.87" duration="254.00" routeLength="925.50" waitingTime="147.00" waitingCount="6" stopTime="0.00" timeLoss="178.10" rerouteNo="0" devices="tripinfo_f_0_3.4" vType="type1" speedFactor="1.02" vaporized=""/>
    <tripinfo id="f_0_3.5" depart="41.00" departLane="np3_nt3_0" departPos="24.51" departSpeed="0.00" departDelay="0.09" arrival="289.00" arrivalLane="nt14_np11_0" arrivalPos="75.00" arrivalSpeed="9.93" duration="248.00" routeLength="926.58" waitingTime="136.00" waitingCount="7" stopTime="0.00" timeLoss="178.45" rerouteNo="0" devices="tripinfo_f_0_3.5" vType="type1" speedFactor="1.11" vaporized=""/>
    <tripinfo id="f_0_3.6" depart="50.00" departLane="np3_nt3_0" departPos="5.11" departSpeed="0.00" departDelay="0.91" arrival="291.00" arrivalLane="nt14_np11_0" arrivalPos="75.00" arrivalSpeed="9.76" duration="241.00" routeLength="945.98" waitingTime="125.00" waitingCount="6" stopTime="0.00" timeLoss="166.66" rerouteNo="0" devices="tripinfo_f_0_3.6" vType="type1" speedFactor="1.08" vaporized=""/>
    <tripinfo id="f_0_2.6" depart="50.00" departLane="np2_nt2_0" departPos="42.64" departSpeed="0.00" departDelay="0.91" arrival="299.00" arrivalLane="nt15_np10_0" arrivalPos="75.00" arrivalSpeed="8.82" duration="249.00" routeLength="908.44" waitingTime="116.00" waitingCount="7" stopTime="0.00" timeLoss="159.00" rerouteNo="0" devices="tripinfo_f_0_2.6" vType="type1" speedFactor="0.85" vaporized=""/>
    <tripinfo id="f_0_1.2" depart="28.00" departLane="np16_nt1_0" departPos="66.89" departSpeed="0.00" departDelay="0.73" arrival="319.00" arrivalLane="nt16_np8_0" arrivalPos="75.00" arrivalSpeed="15.43" duration="291.00" routeLength="1280.99" waitingTime="146.00" waitingCount="8" stopTime="0.00" timeLoss="187.21" rerouteNo="0" devices="tripinfo_f_0_1.2" vType="type1" speedFactor="0.87" vaporized=""/>
    <tripinfo id="f_0_1.3" depart="41.00" departLane="np16_nt1_0" departPos="15.11" departSpeed="0.00" departDelay="0.09" arrival="320.00" arrivalLane="nt16_np8_0" arrivalPos="75.00" arrivalSpeed="19.11" duration="279.00" routeLength="1332.77" waitingTime="127.00" waitingCount="6" stopTime="0.00" timeLoss="198.59" rerouteNo="0" devices="tripinfo_f_0_1.3" vType="type1" speedFactor="1.15" vaporized=""/>
    <tripinfo id="f_0_0.6" depart="82.00" departLane="np13_nt13_0" departPos="27.50" departSpeed="0.00" departDelay="0.18" arrival="323.00" arrivalLane="nt4_np5_0" arrivalPos="75.00" arrivalSpeed="15.70" duration="241.00" routeLength="1320.39" waitingTime="103.00" waitingCount="3" stopTime="0.00" timeLoss="130.24" rerouteNo="0" devices="tripinfo_f_0_0.6" vType="type1" speedFactor="0.83" vaporized=""/>
    <tripinfo id="f_0_0.7" depart="96.00" departLane="np13_nt13_0" departPos="16.44" departSpeed="0.00" departDelay="0.55" arrival="324.00" arrivalLane="nt4_np5_0" arrivalPos="75.00" arrivalSpeed="17.49" duration="228.00" routeLength="1331.45" waitingTime="90.00" waitingCount="5" stopTime="0.00" timeLoss="133.28" rerouteNo="0" devices="tripinfo_f_0_0.7" vType="type1" speedFactor="0.97" vaporized=""/>
    <tripinfo id="f_0_0.8" depart="110.00" departLane="np13_nt13_0" departPos="18.29" departSpeed="0.00" departDelay="0.91" arrival="333.00" arrivalLane="nt4_np5_0" arrivalPos="75.00" arrivalSpeed="19.71" duration="223.00" routeLength="1329.60" waitingTime="83.00" waitingCount="4" stopTime="0.00" timeLoss="134.21" rerouteNo="0" devices="tripinfo_f_0_0.8" vType="type1" speedFactor="1.04" vaporized=""/>
    <tripinfo id="f_0_2.7" depart="58.00" departLane="np2_nt2_0" departPos="56.59" departSpeed="0.00" departDelay="0.73" arrival="337.00" arrivalLane="nt15_np10_0" arrivalPos="75.00" arrivalSpeed="9.72" duration="279.00" routeLength="894.49" waitingTime="149.00" waitingCount="9" stopTime="0.00" timeLoss="205.13" rerouteNo="0" devices="tripinfo_f_0_2.7" vType="type1" speedFactor="1.01" vaporized=""/>
    <tripinfo id="f_0_3.7" depart="58.00" departLane="np3_nt3_0" departPos="9.38" departSpeed="0.00" departDelay="0.73" arrival="348.00" arrivalLane="nt14_np11_0" arrivalPos="75.00" arrivalSpeed="9.80" duration="290.00" routeLength="941.71" waitingTime="158.00" waitingCount="9" stopTime="0.00" timeLoss="203.80" rerouteNo="0" devices="tripinfo_f_0_3.7" vType="type1" speedFactor="0.92" vaporized=""/>
    <tripinfo id="f_0_2.8" depart="66.00" departLane="np2_nt2_0" departPos="5.18" departSpeed="0.00" departDelay="0.54" arrival="348.00" arrivalLane="nt15_np10_0" arrivalPos="75.00" arrivalSpeed="9.60" duration="282.00" routeLength="945.90" waitingTime="138.00" waitingCount="7" stopTime="0.00" timeLoss="199.20" rerouteNo="0" devices="tripinfo_f_0_2.8" vType="type1" speedFactor="0.97" vaporized=""/>
    <tripinfo id="f_0_3.8" depart="66.00" departLane="np3_nt3_0" departPos="0.00" departSpeed="0.00" departDelay="0.54" arrival="350.00" arrivalLane="nt14_np11_0" arrivalPos="75.00" arrivalSpeed="8.57" duration="284.00" routeLength="951.09" waitingTime="147.00" waitingCount="9" stopTime="0.00" timeLoss="203.02" rerouteNo="0" devices="tripinfo_f_0_3.8" vType="type1" speedFactor="0.99" vaporized=""/>
    <tripinfo id="f_0_2.9" depart="74.00" departLane="np2_nt2_0" departPos="36.12" departSpeed="0.00" departDelay="0.36" arrival="350.00" arrivalLane="nt15_np10_0" arrivalPos="75.00" arrivalSpeed="10.25" duration="276.00" routeLength="914.96" waitingTime="140.00" waitingCount="8" stopTime="0.00" timeLoss="203.93" rerouteNo="0" devices="tripinfo_f_0_2.9" vType="type1" speedFactor="1.07" vaporized=""/>
    <tripinfo id="f_0_0.9" depart="123.00" departLane="np13_nt13_0" departPos="63.33" departSpeed="0.00" departDelay="0.28" arrival="357.00" arrivalLane="nt4_np5_0" arrivalPos="75.00" arrivalSpeed="17.85" duration="234.00" routeLength="1284.56" waitingTime="98.00" waitingCount="3" stopTime="0.00" timeLoss="138.97" rerouteNo="0" devices="tripinfo_f_0_0.9" vType="type1" speedFactor="0.95" vaporized=""/>
    <tripinfo id="f_0_1.4" depart="55.00" departLane="np16_nt1_0" departPos="54.09" departSpeed="0.00" departDelay="0.46" arrival="362.00" arrivalLane="nt16_np8_0" arrivalPos="75.00" arrivalSpeed="17.85" duration="307.00" routeLength="1293.79" waitingTime="140.00" waitingCount="10" stopTime="0.00" timeLoss="211.75" rerouteNo="0" devices="tripinfo_f_0_1.4" vType="type1" speedFactor="0.94" vaporized=""/>
    <tripinfo id="f_0_2.10" depart="82.00" departLane="np2_nt2_0" departPos="9.14" departSpeed="0.00" departDelay="0.18" arrival="364.00" arrivalLane="nt15_np10_0" arrivalPos="75.00" arrivalSpeed="8.08" duration="282.00" routeLength="941.94" waitingTime="124.00" waitingCount="10" stopTime="0.00" timeLoss="198.86" rerouteNo="0" devices="tripinfo_f_0_2.10" vType="type1" speedFactor="0.96" vaporized=""/>
    <tripinfo id="f_0_2.11" depart="90.00" departLane="np2_nt2_0" departPos="47.15" departSpeed="0.00" departDelay="0.00" arrival="366.00" arrivalLane="nt15_np10_0" arrivalPos="75.00" arrivalSpeed="10.59" duration="276.00" routeLength="903.93" waitingTime="117.00" waitingCount="10" stopTime="0.00" timeLoss="198.60" rerouteNo="0" devices="tripinfo_f_0_2.11" vType="type1" speedFactor="0.98" vaporized=""/>
    <tripinfo id="f_0_1.5" depart="69.00" departLane="np16_nt1_0" departPos="31.78" departSpeed="0.00" departDelay="0.82" arrival="369.00" arrivalLane="nt16_np8_0" arrivalPos="75.00" arrivalSpeed="19.16" duration="300.00" routeLength="1316.10" waitingTime="134.00" waitingCount="10" stopTime="0.00" timeLoss="209.86" rerouteNo="0" devices="tripinfo_f_0_1.5" vType="type1" speedFactor="1.02" vaporized=""/>
    <tripinfo id="f_0_0.10" depart="137.00" departLane="np13_nt13_0" departPos="41.04" departSpeed="0.00" departDelay="0.64" arrival="379.00" arrivalLane="nt4_np5_0" arrivalPos="75.00" arrivalSpeed="18.37" duration="242.00" routeLength="1306.85" waitingTime="104.00" waitingCount="7" stopTime="0.00" timeLoss="142.38" rerouteNo="0" devices="tripinfo_f_0_0.10" vType="type1" speedFactor="0.92" vaporized=""/>
    <tripinfo id="f_0_2.12" depart="99.00" departLane="np2_nt2_0" departPos="6.29" departSpeed="0.00" departDelay="0.82" arrival="381.00" arrivalLane="nt15_np10_0" arrivalPos="75.00" arrivalSpeed="11.94" duration="282.00" routeLength="944.79" waitingTime="119.00" waitingCount="9" stopTime="0.00" timeLoss="211.40" rerouteNo="0" devices="tripinfo_f_0_2.12" vType="type1" speedFactor="1.13" vaporized=""/>
    <tripinfo id="f_0_0.11" depart="150.00" departLane="np13_nt13_0" departPos="52.03" departSpeed="0.00" departDelay="0.00" arrival="381.00" arrivalLane="nt4_np5_0" arrivalPos="75.00" arrivalSpeed="17.76" duration="231.00" routeLength="1295.86" waitingTime="91.00" waitingCount="7" stopTime="0.00" timeLoss="132.56" rerouteNo="0" devices="tripinfo_f_0_0.11" vType="type1" speedFactor="0.92" vaporized=""/>
    <tripinfo id="f_0_2.13" depart="107.00" departLane="np2_nt2_0" departPos="5.86" departSpeed="0.00" departDelay="0.63" arrival="383.00" arrivalLane="nt15_np10_0" arrivalPos="75.00" arrivalSpeed="12.14" duration="276.00" routeLength="945.22" waitingTime="114.00" waitingCount="9" stopTime="0.00" timeLoss="205.53" rerouteNo="0" devices="tripinfo_f_0_2.13" vType="type1" speedFactor="1.13" vaporized=""/>
    <tripinfo id="f_0_1.6" depart="82.00" departLane="np16_nt1_0" departPos="33.04" departSpeed="0.00" departDelay="0.18" arrival="388.00" arrivalLane="nt16_np8_0" arrivalPos="75.00" arrivalSpeed="19.76" duration="306.00" routeLength="1314.84" waitingTime="121.00" waitingCount="10" stopTime="0.00" timeLoss="218.20" rerouteNo="0" devices="tripinfo_f_0_1.6" vType="type1" speedFactor="1.05" vaporized=""/>
    <tripinfo id="f_0_0.12" depart="164.00" departLane="np13_nt13_0" departPos="23.04" departSpeed="0.00" departDelay="0.37" arrival="398.00" arrivalLane="nt4_np5_0" arrivalPos="75.00" arrivalSpeed="19.60" duration="234.00" routeLength="1324.85" waitingTime="109.00" waitingCount="6" stopTime="0.00" timeLoss="148.78" rerouteNo="0" devices="tripinfo_f_0_0.12" vType="type1" speedFactor="1.08" vaporized=""/>
    <tripinfo id="f_0_3.9" depart="87.00" departLane="np3_nt3_0" departPos="0.00" departSpeed="0.00" departDelay="13.36" arrival="400.00" arrivalLane="nt14_np11_0" arrivalPos="75.00" arrivalSpeed="12.21" duration="313.00" routeLength="951.09" waitingTime="188.00" waitingCount="10" stopTime="0.00" timeLoss="246.52" rerouteNo="0" devices="tripinfo_f_0_3.9" vType="type1" speedFactor="1.20" vaporized=""/>
    <tripinfo id="f_0_1.7" depart="96.00" departLane="np16_nt1_0" departPos="15.59" departSpeed="0.00" departDelay="0.55" arrival="401.00" arrivalLane="nt16_np8_0" arrivalPos="75.00" arrivalSpeed="16.03" duration="305.00" routeLength="1332.29" waitingTime="104.00" waitingCount="11" stopTime="0.00" timeLoss="198.81" rerouteNo="0" devices="tripinfo_f_0_1.7" vType="type1" speedFactor="0.87" vaporized=""/>
    <tripinfo id="f_0_2.14" depart="115.00" departLane="np2_nt2_0" departPos="27.90" departSpeed="0.00" departDelay="0.45" arrival="403.00" arrivalLane="nt15_np10_0" arrivalPos="75.00" arrivalSpeed="10.20" duration="288.00" routeLength="923.18" waitingTime="98.00" waitingCount="11" stopTime="0.00" timeLoss="210.54" rerouteNo="0" devices="tripinfo_f_0_2.14" vType="type1" speedFactor="1.01" vaporized=""/>
    <tripinfo id="f_0_3.10" depart="90.00" departLane="np3_nt3_0" departPos="0.00" departSpeed="0.00" departDelay="8.18" arrival="404.00" arrivalLane="nt14_np11_0" arrivalPos="75.00" arrivalSpeed="11.26" duration="314.00" routeLength="951.09" waitingTime="183.00" waitingCount="10" stopTime="0.00" timeLoss="237.06" rerouteNo="0" devices="tripinfo_f_0_3.10" vType="type1" speedFactor="1.05" vaporized=""/>
    <tripinfo id="f_0_2.15" depart="123.00" departLane="np2_nt2_0" departPos="31.34" departSpeed="0.00" departDelay="0.27" arrival="405.00" arrivalLane="nt15_np10_0" arrivalPos="75.00" arrivalSpeed="10.64" duration="282.00" routeLength="919.74" waitingTime="98.00" waitingCount="11" stopTime="0.00" timeLoss="210.16" rerouteNo="0" devices="tripinfo_f_0_2.15" vType="type1" speedFactor="1.08" vaporized=""/>
    <tripinfo id="f_0_3.11" depart="94.00" departLane="np3_nt3_0" departPos="0.00" departSpeed="0.00" departDelay="4.00" arrival="406.00" arrivalLane="nt14_np11_0" arrivalPos="75.00" arrivalSpeed="10.19" duration="312.00" routeLength="951.09" waitingTime="176.00" waitingCount="11" stopTime="0.00" timeLoss="235.45" rerouteNo="0" devices="tripinfo_f_0_3.11" vType="type1" speedFactor="1.04" vaporized=""/>
    <tripinfo id="f_0_3.12" depart="113.00" departLane="np3_nt3_0" departPos="0.00" departSpeed="0.00" departDelay="14.82" arrival="408.00" arrivalLane="nt14_np11_0" arrivalPos="75.00" arrivalSpeed="9.91" duration="295.00" routeLength="951.09" waitingTime="158.00" waitingCount="9" stopTime="0.00" timeLoss="217.39" rerouteNo="0" devices="tripinfo_f_0_3.12" vType="type1" speedFactor="1.03" vaporized=""/>
    <tripinfo id="f_0_1.8" depart="110.00" departLane="np16_nt1_0" departPos="59.97" departSpeed="0.00" departDelay="0.91" arrival="421.00" arrivalLane="nt16_np8_0" arrivalPos="75.00" arrivalSpeed="16.78" duration="311.00" routeLength="1287.91" waitingTime="115.00" waitingCount="11" stopTime="0.00" timeLoss="206.14" rerouteNo="0" devices="tripinfo_f_0_1.8" vType="type1" speedFactor="0.87" vaporized=""/>
    <tripinfo id="f_0_3.13" depart="163.00" departLane="np3_nt3_0" departPos="0.00" departSpeed="0.00" departDelay="56.63" arrival="433.00" arrivalLane="nt14_np11_0" arrivalPos="75.00" arrivalSpeed="9.60" duration="270.00" routeLength="951.09" waitingTime="123.00" waitingCount="8" stopTime="0.00" timeLoss="182.26" rerouteNo="0" devices="tripinfo_f_0_3.13" vType="type1" speedFactor="0.91" vaporized=""/>
    <tripinfo id="f_0_0.13" depart="178.00" departLane="np13_nt13_0" departPos="52.50" departSpeed="0.00" departDelay="0.73" arrival="433.00" arrivalLane="nt4_np5_0" arrivalPos="75.00" arrivalSpeed="21.33" duration="255.00" routeLength="1295.39" waitingTime="129.00" waitingCount="6" stopTime="0.00" timeLoss="171.98" rerouteNo="0" devices="tripinfo_f_0_0.13" vType="type1" speedFactor="1.09" vaporized=""/>
    <tripinfo id="f_0_3.14" depart="165.00" departLane="np3_nt3_0" departPos="0.00" departSpeed="0.00" departDelay="50.45" arrival="435.00" arrivalLane="nt14_np11_0" arrivalPos="75.00" arrivalSpeed="9.71" duration="270.00" routeLength="951.09" waitingTime="116.00" waitingCount="10" stopTime="0.00" timeLoss="196.01" rerouteNo="0" devices="tripinfo_f_0_3.14" vType="type1" speedFactor="1.09" vaporized=""/>
    <tripinfo id="f_0_0.14" depart="191.00" departLane="np13_nt13_0" departPos="36.28" departSpeed="0.00" departDelay="0.10" arrival="435.00" arrivalLane="nt4_np5_0" arrivalPos="75.00" arrivalSpeed="18.11" duration="244.00" routeLength="1311.61" waitingTime="104.00" waitingCount="8" stopTime="0.00" timeLoss="149.19" rerouteNo="0" devices="tripinfo_f_0_0.14" vType="type1" speedFactor="0.96" vaporized=""/>
    <tripinfo id="f_0_0.15" depart="205.00" departLane="np13_nt13_0" departPos="35.61" departSpeed="0.00" departDelay="0.46" arrival="438.00" arrivalLane="nt4_np5_0" arrivalPos="75.00" arrivalSpeed="16.77" duration="233.00" routeLength="1312.28" waitingTime="83.00" waitingCount="6" stopTime="0.00" timeLoss="131.07" rerouteNo="0" devices="tripinfo_f_0_0.15" vType="type1" speedFactor="0.90" vaporized=""/>
    <tripinfo id="f_0_0.16" depart="219.00" departLane="np13_nt13_0" departPos="14.77" departSpeed="0.00" departDelay="0.82" arrival="439.00" arrivalLane="nt4_np5_0" arrivalPos="75.00" arrivalSpeed="20.68" duration="220.00" routeLength="1333.12" waitingTime="80.00" waitingCount="7" stopTime="0.00" timeLoss="141.68" rerouteNo="0" devices="tripinfo_f_0_0.16" vType="type1" speedFactor="1.18" vaporized=""/>
    <tripinfo id="f_0_0.17" depart="232.00" departLane="np13_nt13_0" departPos="59.48" departSpeed="0.00" departDelay="0.19" arrival="440.00" arrivalLane="nt4_np5_0" arrivalPos="75.00" arrivalSpeed="19.15" duration="208.00" routeLength="1288.41" waitingTime="69.00" waitingCount="5" stopTime="0.00" timeLoss="121.05" rerouteNo="0" devices="tripinfo_f_0_0.17" vType="type1" speedFactor="1.03" vaporized=""/>
    <tripinfo id="f_0_0.18" depart="246.00" departLane="np13_nt13_0" departPos="51.72" departSpeed="0.00" departDelay="0.55" arrival="442.00" arrivalLane="nt4_np5_0" arrivalPos="75.00" arrivalSpeed="21.74" duration="196.00" routeLength="1296.17" waitingTime="72.00" waitingCount="5" stopTime="0.00" timeLoss="114.60" rerouteNo="0" devices="tripinfo_f_0_0.18" vType="type1" speedFactor="1.11" vaporized=""/>
    <tripinfo id="f_0_2.16" depart="131.00" departLane="np2_nt2_0" departPos="4.70" departSpeed="0.00" departDelay="0.09" arrival="448.00" arrivalLane="nt15_np10_0" arrivalPos="75.00" arrivalSpeed="8.81" duration="317.00" routeLength="946.38" waitingTime="163.00" waitingCount="9" stopTime="0.00" timeLoss="237.85" rerouteNo="0" devices="tripinfo_f_0_2.16" vType="type1" speedFactor="1.01" vaporized=""/>
    <tripinfo id="f_0_2.17" depart="140.00" departLane="np2_nt2_0" departPos="47.58" departSpeed="0.00" departDelay="0.91" arrival="449.00" arrivalLane="nt15_np10_0" arrivalPos="75.00" arrivalSpeed="11.41" duration="309.00" routeLength="903.50" waitingTime="165.00" waitingCount="11" stopTime="0.00" timeLoss="239.71" rerouteNo="0" devices="tripinfo_f_0_2.17" vType="type1" speedFactor="1.08" vaporized=""/>
    <tripinfo id="f_0_1.9" depart="123.00" departLane="np16_nt1_0" departPos="22.84" departSpeed="0.00" departDelay="0.28" arrival="458.00" arrivalLane="nt16_np8_0" arrivalPos="75.00" arrivalSpeed="20.76" duration="335.00" routeLength="1325.04" waitingTime="170.00" waitingCount="12" stopTime="0.00" timeLoss="248.56" rerouteNo="0" devices="tripinfo_f_0_1.9" vType="type1" speedFactor="1.06" vaporized=""/>
    <tripinfo id="f_0_0.19" depart="260.00" departLane="np13_nt13_0" departPos="19.80" departSpeed="0.00" departDelay="0.92" arrival="472.00" arrivalLane="nt4_np5_0" arrivalPos="75.00" arrivalSpeed="18.97" duration="212.00" routeLength="1328.09" waitingTime="83.00" waitingCount="5" stopTime="0.00" timeLoss="119.99" rerouteNo="0" devices="tripinfo_f_0_0.19" vType="type1" speedFactor="1.01" vaporized=""/>
    <tripinfo id="f_0_1.10" depart="137.00" departLane="np16_nt1_0" departPos="18.04" departSpeed="0.00" departDelay="0.64" arrival="473.00" arrivalLane="nt16_np8_0" arrivalPos="75.00" arrivalSpeed="17.05" duration="336.00" routeLength="1329.84" waitingTime="151.00" waitingCount="14" stopTime="0.00" timeLoss="240.48" rerouteNo="0" devices="tripinfo_f_0_1.10" vType="type1" speedFactor="0.97" vaporized=""/>
    <tripinfo id="f_0_1.11" depart="150.00" departLane="np16_nt1_0" departPos="61.28" departSpeed="0.00" departDelay="0.00" arrival="475.00" arrivalLane="nt16_np8_0" arrivalPos="75.00" arrivalSpeed="19.92" duration="325.00" routeLength="1286.60" waitingTime="142.00" waitingCount="12" stopTime="0.00" timeLoss="236.13" rerouteNo="0" devices="tripinfo_f_0_1.11" vType="type1" speedFactor="1.02" vaporized=""/>
    <tripinfo id="f_0_3.15" depart="169.00" departLane="np3_nt3_0" departPos="0.00" departSpeed="0.00" departDelay="46.27" arrival="482.00" arrivalLane="nt14_np11_0" arrivalPos="75.00" arrivalSpeed="11.22" duration="313.00" routeLength="951.09" waitingTime="162.00" waitingCount="10" stopTime="0.00" timeLoss="240.35" rerouteNo="0" devices="tripinfo_f_0_3.15" vType="type1" speedFactor="1.11" vaporized=""/>
    <tripinfo id="f_0_3.16" depart="178.00" departLane="np3_nt3_0" departPos="0.00" departSpeed="0.00" departDelay="47.09" arrival="484.00" arrivalLane="nt14_np11_0" arrivalPos="75.00" arrivalSpeed="10.93" duration="306.00" routeLength="951.09" waitingTime="164.00" waitingCount="9" stopTime="0.00" timeLoss="226.06" rerouteNo="0" devices="tripinfo_f_0_3.16" vType="type1" speedFactor="1.00" vaporized=""/>
    <tripinfo id="f_0_0.20" depart="273.00" departLane="np13_nt13_0" departPos="13.80" departSpeed="0.00" departDelay="0.28" arrival="492.00" arrivalLane="nt4_np5_0" arrivalPos="75.00" arrivalSpeed="18.03" duration="219.00" routeLength="1334.09" waitingTime="77.00" waitingCount="8" stopTime="0.00" timeLoss="117.44" rerouteNo="0" devices="tripinfo_f_0_0.20" vType="type1" speedFactor="0.91" vaporized=""/>
    <tripinfo id="f_0_2.31" depart="254.00" departLane="np2_nt2_0" departPos="33.28" departSpeed="0.00" departDelay="0.36" arrival="509.00" arrivalLane="nt15_np10_0" arrivalPos="75.00" arrivalSpeed="8.75" duration="255.00" routeLength="917.80" waitingTime="124.00" waitingCount="6" stopTime="0.00" timeLoss="169.35" rerouteNo="0" devices="tripinfo_f_0_2.31" vType="type1" speedFactor="0.91" vaporized=""/>
    <tripinfo id="f_0_2.18" depart="148.00" departLane="np2_nt2_0" departPos="8.69" departSpeed="0.00" departDelay="0.72" arrival="511.00" arrivalLane="nt15_np10_0" arrivalPos="75.00" arrivalSpeed="10.17" duration="363.00" routeLength="942.39" waitingTime="179.00" waitingCount="12" stopTime="0.00" timeLoss="282.70" rerouteNo="0" devices="tripinfo_f_0_2.18" vType="type1" speedFactor="1.00" vaporized=""/>
    <tripinfo id="f_0_2.19" depart="156.00" departLane="np2_nt2_0" departPos="33.84" departSpeed="0.00" departDelay="0.54" arrival="516.00" arrivalLane="nt15_np10_0" arrivalPos="75.00" arrivalSpeed="11.79" duration="360.00" routeLength="917.24" waitingTime="171.00" waitingCount="13" stopTime="0.00" timeLoss="297.50" rerouteNo="0" devices="tripinfo_f_0_2.19" vType="type1" speedFactor="1.24" vaporized=""/>