<?xml version="1.0" encoding="UTF-8"?>

<!-- generated on 2023-08-30 12:34:08 by Eclipse SUMO libsumo Version 1.18.0
<configuration xmlns:xsi="http://www.w3.org/2001/XMLSchema-instance" xsi:noNamespaceSchemaLocation="http://sumo.dlr.de/xsd/libsumoConfiguration.xsd">

    <input>
        <net-file value="/home/stefan/RESCO/./environments/arterial4x4/arterial4x4.net.xml"/>
        <route-files value="/home/stefan/RESCO/./environments/arterial4x4/arterial4x4_42.rou.xml"/>
    </input>

    <output>
        <tripinfo-output value="/home/stefan/results/ITRPO-tr0-arterial4x4-0-drq_norm-wait_norm/tripinfo_42.xml"/>
        <tripinfo-output.write-unfinished value="true"/>
    </output>

    <processing>
        <time-to-teleport value="-1"/>
    </processing>

    <report>
        <no-warnings value="True"/>
        <no-step-log value="True"/>
    </report>

    <random_number>
        <random value="true"/>
    </random_number>

</configuration>
-->

<tripinfos xmlns:xsi="http://www.w3.org/2001/XMLSchema-instance" xsi:noNamespaceSchemaLocation="http://sumo.dlr.de/xsd/tripinfo_file.xsd">
    <tripinfo id="f_0_2.0" depart="0.00" departLane="np2_nt2_0" departPos="28.16" departSpeed="0.00" departDelay="0.00" arrival="118.00" arrivalLane="nt15_np10_0" arrivalPos="75.00" arrivalSpeed="8.60" duration="118.00" routeLength="922.92" waitingTime="16.00" waitingCount="3" stopTime="0.00" timeLoss="38.18" rerouteNo="0" devices="tripinfo_f_0_2.0" vType="type1" speedFactor="0.98" vaporized=""/>
    <tripinfo id="f_0_1.0" depart="0.00" departLane="np16_nt1_0" departPos="32.06" departSpeed="0.00" departDelay="0.00" arrival="142.00" arrivalLane="nt16_np8_0" arrivalPos="75.00" arrivalSpeed="16.72" duration="142.00" routeLength="1315.82" waitingTime="18.00" waitingCount="2" stopTime="0.00" timeLoss="45.24" rerouteNo="0" devices="tripinfo_f_0_1.0" vType="type1" speedFactor="0.95" vaporized=""/>
    <tripinfo id="f_0_3.0" depart="0.00" departLane="np3_nt3_0" departPos="46.17" departSpeed="0.00" departDelay="0.00" arrival="142.00" arrivalLane="nt14_np11_0" arrivalPos="75.00" arrivalSpeed="8.72" duration="142.00" routeLength="904.92" waitingTime="42.00" waitingCount="4" stopTime="0.00" timeLoss="66.76" rerouteNo="0" devices="tripinfo_f_0_3.0" vType="type1" speedFactor="1.00" vaporized=""/>
    <tripinfo id="f_0_2.1" depart="9.00" departLane="np2_nt2_0" departPos="28.51" departSpeed="0.00" departDelay="0.82" arrival="143.00" arrivalLane="nt15_np10_0" arrivalPos="75.00" arrivalSpeed="10.62" duration="134.00" routeLength="922.57" waitingTime="26.00" waitingCount="4" stopTime="0.00" timeLoss="55.49" rerouteNo="0" devices="tripinfo_f_0_2.1" vType="type1" speedFactor="0.99" vaporized=""/>
    <tripinfo id="f_0_3.1" depart="9.00" departLane="np3_nt3_0" departPos="52.57" departSpeed="0.00" departDelay="0.82" arrival="144.00" arrivalLane="nt14_np11_0" arrivalPos="75.00" arrivalSpeed="9.85" duration="135.00" routeLength="898.52" waitingTime="31.00" waitingCount="5" stopTime="0.00" timeLoss="61.13" rerouteNo="0" devices="tripinfo_f_0_3.1" vType="type1" speedFactor="1.02" vaporized=""/>
    <tripinfo id="f_0_3.2" depart="17.00" departLane="np3_nt3_0" departPos="28.56" departSpeed="0.00" departDelay="0.64" arrival="157.00" arrivalLane="nt14_np11_0" arrivalPos="75.00" arrivalSpeed="10.76" duration="140.00" routeLength="922.53" waitingTime="33.00" waitingCount="5" stopTime="0.00" timeLoss="66.57" rerouteNo="0" devices="tripinfo_f_0_3.2" vType="type1" speedFactor="1.05" vaporized=""/>
    <tripinfo id="f_0_2.2" depart="17.00" departLane="np2_nt2_0" departPos="3.14" departSpeed="0.00" departDelay="0.64" arrival="165.00" arrivalLane="nt15_np10_0" arrivalPos="75.00" arrivalSpeed="7.36" duration="148.00" routeLength="947.94" waitingTime="18.00" waitingCount="4" stopTime="0.00" timeLoss="50.67" rerouteNo="0" devices="tripinfo_f_0_2.2" vType="type1" speedFactor="0.82" vaporized=""/>
    <tripinfo id="f_0_3.3" depart="25.00" departLane="np3_nt3_0" departPos="16.38" departSpeed="0.00" departDelay="0.45" arrival="181.00" arrivalLane="nt14_np11_0" arrivalPos="75.00" arrivalSpeed="11.61" duration="156.00" routeLength="934.71" waitingTime="52.00" waitingCount="4" stopTime="0.00" timeLoss="86.69" rerouteNo="0" devices="tripinfo_f_0_3.3" vType="type1" speedFactor="1.14" vaporized=""/>
    <tripinfo id="f_0_0.0" depart="0.00" departLane="np13_nt13_0" departPos="20.77" departSpeed="0.00" departDelay="0.00" arrival="210.00" arrivalLane="nt4_np5_0" arrivalPos="75.00" arrivalSpeed="15.06" duration="210.00" routeLength="1327.12" waitingTime="66.00" waitingCount="4" stopTime="0.00" timeLoss="95.45" rerouteNo="0" devices="tripinfo_f_0_0.0" vType="type1" speedFactor="0.81" vaporized=""/>
    <tripinfo id="f_0_2.3" depart="25.00" departLane="np2_nt2_0" departPos="34.28" departSpeed="0.00" departDelay="0.45" arrival="213.00" arrivalLane="nt15_np10_0" arrivalPos="75.00" arrivalSpeed="8.78" duration="188.00" routeLength="916.80" waitingTime="68.00" waitingCount="5" stopTime="0.00" timeLoss="108.18" rerouteNo="0" devices="tripinfo_f_0_2.3" vType="type1" speedFactor="0.97" vaporized=""/>
    <tripinfo id="f_0_2.4" depart="33.00" departLane="np2_nt2_0" departPos="61.76" departSpeed="0.00" departDelay="0.27" arrival="226.00" arrivalLane="nt15_np10_0" arrivalPos="75.00" arrivalSpeed="10.59" duration="193.00" routeLength="889.32" waitingTime="84.00" waitingCount="5" stopTime="0.00" timeLoss="126.63" rerouteNo="0" devices="tripinfo_f_0_2.4" vType="type1" speedFactor="1.13" vaporized=""/>
    <tripinfo id="f_0_0.1" depart="14.00" departLane="np13_nt13_0" departPos="35.24" departSpeed="0.00" departDelay="0.36" arrival="238.00" arrivalLane="nt4_np5_0" arrivalPos="75.00" arrivalSpeed="18.07" duration="224.00" routeLength="1312.65" waitingTime="86.00" waitingCount="7" stopTime="0.00" timeLoss="134.29" rerouteNo="0" devices="tripinfo_f_0_0.1" vType="type1" speedFactor="1.02" vaporized=""/>
    <tripinfo id="f_0_0.2" depart="28.00" departLane="np13_nt13_0" departPos="37.25" departSpeed="0.00" departDelay="0.73" arrival="241.00" arrivalLane="nt4_np5_0" arrivalPos="75.00" arrivalSpeed="13.48" duration="213.00" routeLength="1310.64" waitingTime="56.00" waitingCount="6" stopTime="0.00" timeLoss="96.04" rerouteNo="0" devices="tripinfo_f_0_0.2" vType="type1" speedFactor="0.78" vaporized=""/>
    <tripinfo id="f_0_2.5" depart="41.00" departLane="np2_nt2_0" departPos="60.06" departSpeed="0.00" departDelay="0.09" arrival="242.00" arrivalLane="nt15_np10_0" arrivalPos="75.00" arrivalSpeed="8.91" duration="201.00" routeLength="891.02" waitingTime="79.00" waitingCount="7" stopTime="0.00" timeLoss="127.71" rerouteNo="0" devices="tripinfo_f_0_2.5" vType="type1" speedFactor="1.01" vaporized=""/>
    <tripinfo id="f_0_0.3" depart="41.00" departLane="np13_nt13_0" departPos="18.48" departSpeed="0.00" departDelay="0.09" arrival="243.00" arrivalLane="nt4_np5_0" arrivalPos="75.00" arrivalSpeed="20.42" duration="202.00" routeLength="1329.41" waitingTime="59.00" waitingCount="6" stopTime="0.00" timeLoss="114.31" rerouteNo="0" devices="tripinfo_f_0_0.3" vType="type1" speedFactor="1.05" vaporized=""/>
    <tripinfo id="f_0_2.6" depart="50.00" departLane="np2_nt2_0" departPos="17.90" departSpeed="0.00" departDelay="0.91" arrival="244.00" arrivalLane="nt15_np10_0" arrivalPos="75.00" arrivalSpeed="11.72" duration="194.00" routeLength="933.18" waitingTime="78.00" waitingCount="7" stopTime="0.00" timeLoss="123.34" rerouteNo="0" devices="tripinfo_f_0_2.6" vType="type1" speedFactor="1.11" vaporized=""/>
    <tripinfo id="f_0_2.7" depart="58.00" departLane="np2_nt2_0" departPos="12.58" departSpeed="0.00" departDelay="0.73" arrival="246.00" arrivalLane="nt15_np10_0" arrivalPos="75.00" arrivalSpeed="11.72" duration="188.00" routeLength="938.50" waitingTime="71.00" waitingCount="5" stopTime="0.00" timeLoss="121.12" rerouteNo="0" devices="tripinfo_f_0_2.7" vType="type1" speedFactor="1.18" vaporized=""/>
    <tripinfo id="f_0_3.4" depart="33.00" departLane="np3_nt3_0" departPos="33.85" departSpeed="0.00" departDelay="0.27" arrival="247.00" arrivalLane="nt14_np11_0" arrivalPos="75.00" arrivalSpeed="10.67" duration="214.00" routeLength="917.24" waitingTime="108.00" waitingCount="6" stopTime="0.00" timeLoss="137.92" rerouteNo="0" devices="tripinfo_f_0_3.4" vType="type1" speedFactor="1.01" vaporized=""/>
    <tripinfo id="f_0_0.4" depart="55.00" departLane="np13_nt13_0" departPos="54.11" departSpeed="0.00" departDelay="0.46" arrival="249.00" arrivalLane="nt4_np5_0" arrivalPos="75.00" arrivalSpeed="21.95" duration="194.00" routeLength="1293.78" waitingTime="65.00" waitingCount="8" stopTime="0.00" timeLoss="114.48" rerouteNo="0" devices="tripinfo_f_0_0.4" vType="type1" speedFactor="1.14" vaporized=""/>
    <tripinfo id="f_0_1.1" depart="14.00" departLane="np16_nt1_0" departPos="5.33" departSpeed="0.00" departDelay="0.36" arrival="253.00" arrivalLane="nt16_np8_0" arrivalPos="75.00" arrivalSpeed="18.79" duration="239.00" routeLength="1342.55" waitingTime="95.00" waitingCount="7" stopTime="0.00" timeLoss="150.96" rerouteNo="0" devices="tripinfo_f_0_1.1" vType="type1" speedFactor="1.06" vaporized=""/>
    <tripinfo id="f_0_0.5" depart="69.00" departLane="np13_nt13_0" departPos="40.68" departSpeed="0.00" departDelay="0.82" arrival="268.00" arrivalLane="nt4_np5_0" arrivalPos="75.00" arrivalSpeed="18.81" duration="199.00" routeLength="1307.21" waitingTime="62.00" waitingCount="8" stopTime="0.00" timeLoss="104.85" rerouteNo="0" devices="tripinfo_f_0_0.5" vType="type1" speedFactor="0.96" vaporized=""/>
    <tripinfo id="f_0_0.6" depart="82.00" departLane="np13_nt13_0" departPos="45.83" departSpeed="0.00" departDelay="0.18" arrival="270.00" arrivalLane="nt4_np5_0" arrivalPos="75.00" arrivalSpeed="17.46" duration="188.00" routeLength="1302.06" waitingTime="47.00" waitingCount="7" stopTime="0.00" timeLoss="91.66" rerouteNo="0" devices="tripinfo_f_0_0.6" vType="type1" speedFactor="0.94" vaporized=""/>
    <tripinfo id="f_0_0.7" depart="96.00" departLane="np13_nt13_0" departPos="7.95" departSpeed="0.00" departDelay="0.55" arrival="272.00" arrivalLane="nt4_np5_0" arrivalPos="75.00" arrivalSpeed="18.04" duration="176.00" routeLength="1339.94" waitingTime="46.00" waitingCount="4" stopTime="0.00" timeLoss="78.46" rerouteNo="0" devices="tripinfo_f_0_0.7" vType="type1" speedFactor="0.95" vaporized=""/>
    <tripinfo id="f_0_3.5" depart="41.00" departLane="np3_nt3_0" departPos="21.88" departSpeed="0.00" departDelay="0.09" arrival="287.00" arrivalLane="nt14_np11_0" arrivalPos="75.00" arrivalSpeed="9.81" duration="246.00" routeLength="929.21" waitingTime="136.00" waitingCount="8" stopTime="0.00" timeLoss="168.13" rerouteNo="0" devices="tripinfo_f_0_3.5" vType="type1" speedFactor="0.99" vaporized=""/>
    <tripinfo id="f_0_3.6" depart="50.00" departLane="np3_nt3_0" departPos="6.99" departSpeed="0.00" departDelay="0.91" arrival="290.00" arrivalLane="nt14_np11_0" arrivalPos="75.00" arrivalSpeed="9.00" duration="240.00" routeLength="944.10" waitingTime="117.00" waitingCount="8" stopTime="0.00" timeLoss="163.00" rerouteNo="0" devices="tripinfo_f_0_3.6" vType="type1" speedFactor="1.04" vaporized=""/>
    <tripinfo id="f_0_3.7" depart="58.00" departLane="np3_nt3_0" departPos="22.89" departSpeed="0.00" departDelay="0.73" arrival="298.00" arrivalLane="nt14_np11_0" arrivalPos="75.00" arrivalSpeed="8.68" duration="240.00" routeLength="928.20" waitingTime="108.00" waitingCount="10" stopTime="0.00" timeLoss="158.10" rerouteNo="0" devices="tripinfo_f_0_3.7" vType="type1" speedFactor="0.95" vaporized=""/>
    <tripinfo id="f_0_1.2" depart="28.00" departLane="np16_nt1_0" departPos="57.71" departSpeed="0.00" departDelay="0.73" arrival="305.00" arrivalLane="nt16_np8_0" arrivalPos="75.00" arrivalSpeed="19.47" duration="277.00" routeLength="1290.17" waitingTime="130.00" waitingCount="9" stopTime="0.00" timeLoss="188.04" rerouteNo="0" devices="tripinfo_f_0_1.2" vType="type1" speedFactor="1.02" vaporized=""/>
    <tripinfo id="f_0_2.8" depart="66.00" departLane="np2_nt2_0" departPos="33.50" departSpeed="0.00" departDelay="0.54" arrival="307.00" arrivalLane="nt15_np10_0" arrivalPos="75.00" arrivalSpeed="9.43" duration="241.00" routeLength="917.58" waitingTime="116.00" waitingCount="8" stopTime="0.00" timeLoss="167.05" rerouteNo="0" devices="tripinfo_f_0_2.8" vType="type1" speedFactor="1.04" vaporized=""/>
    <tripinfo id="f_0_3.8" depart="66.00" departLane="np3_nt3_0" departPos="12.09" departSpeed="0.00" departDelay="0.54" arrival="308.00" arrivalLane="nt14_np11_0" arrivalPos="75.00" arrivalSpeed="8.86" duration="242.00" routeLength="939.00" waitingTime="101.00" waitingCount="9" stopTime="0.00" timeLoss="156.88" rerouteNo="0" devices="tripinfo_f_0_3.8" vType="type1" speedFactor="0.93" vaporized=""/>
    <tripinfo id="f_0_3.16" depart="145.00" departLane="np3_nt3_0" departPos="64.36" departSpeed="0.00" departDelay="14.09" arrival="310.00" arrivalLane="nt14_np11_0" arrivalPos="75.00" arrivalSpeed="9.88" duration="165.00" routeLength="886.73" waitingTime="37.00" waitingCount="7" stopTime="0.00" timeLoss="84.71" rerouteNo="0" devices="tripinfo_f_0_3.16" vType="type1" speedFactor="0.93" vaporized=""/>
    <tripinfo id="f_0_2.9" depart="74.00" departLane="np2_nt2_0" departPos="56.63" departSpeed="0.00" departDelay="0.36" arrival="317.00" arrivalLane="nt15_np10_0" arrivalPos="75.00" arrivalSpeed="9.24" duration="243.00" routeLength="894.45" waitingTime="94.00" waitingCount="10" stopTime="0.00" timeLoss="168.87" rerouteNo="0" devices="tripinfo_f_0_2.9" vType="type1" speedFactor="1.01" vaporized=""/>
    <tripinfo id="f_0_3.9" depart="74.00" departLane="np3_nt3_0" departPos="11.23" departSpeed="0.00" departDelay="0.36" arrival="317.00" arrivalLane="nt14_np11_0" arrivalPos="75.00" arrivalSpeed="10.76" duration="243.00" routeLength="939.86" waitingTime="106.00" waitingCount="10" stopTime="0.00" timeLoss="168.94" rerouteNo="0" devices="tripinfo_f_0_3.9" vType="type1" speedFactor="1.07" vaporized=""/>
    <tripinfo id="f_0_2.10" depart="82.00" departLane="np2_nt2_0" departPos="15.05" departSpeed="0.00" departDelay="0.18" arrival="322.00" arrivalLane="nt15_np10_0" arrivalPos="75.00" arrivalSpeed="7.77" duration="240.00" routeLength="936.03" waitingTime="76.00" waitingCount="9" stopTime="0.00" timeLoss="146.13" rerouteNo="0" devices="tripinfo_f_0_2.10" vType="type1" speedFactor="0.84" vaporized=""/>
    <tripinfo id="f_0_0.8" depart="110.00" departLane="np13_nt13_0" departPos="29.33" departSpeed="0.00" departDelay="0.91" arrival="322.00" arrivalLane="nt4_np5_0" arrivalPos="75.00" arrivalSpeed="17.05" duration="212.00" routeLength="1318.56" waitingTime="78.00" waitingCount="5" stopTime="0.00" timeLoss="112.86" rerouteNo="0" devices="tripinfo_f_0_0.8" vType="type1" speedFactor="0.93" vaporized=""/>
    <tripinfo id="f_0_1.3" depart="41.00" departLane="np16_nt1_0" departPos="33.13" departSpeed="0.00" departDelay="0.09" arrival="323.00" arrivalLane="nt16_np8_0" arrivalPos="75.00" arrivalSpeed="14.69" duration="282.00" routeLength="1314.75" waitingTime="116.00" waitingCount="11" stopTime="0.00" timeLoss="174.10" rerouteNo="0" devices="tripinfo_f_0_1.3" vType="type1" speedFactor="0.85" vaporized=""/>
    <tripinfo id="f_0_0.9" depart="123.00" departLane="np13_nt13_0" departPos="23.46" departSpeed="0.00" departDelay="0.28" arrival="323.00" arrivalLane="nt4_np5_0" arrivalPos="75.00" arrivalSpeed="20.58" duration="200.00" routeLength="1324.43" waitingTime="68.00" waitingCount="6" stopTime="0.00" timeLoss="123.38" rerouteNo="0" devices="tripinfo_f_0_0.9" vType="type1" speedFactor="1.20" vaporized=""/>
    <tripinfo id="f_0_2.11" depart="90.00" departLane="np2_nt2_0" departPos="44.81" departSpeed="0.00" departDelay="0.00" arrival="324.00" arrivalLane="nt15_np10_0" arrivalPos="75.00" arrivalSpeed="9.14" duration="234.00" routeLength="906.27" waitingTime="68.00" waitingCount="8" stopTime="0.00" timeLoss="155.71" rerouteNo="0" devices="tripinfo_f_0_2.11" vType="type1" speedFactor="0.98" vaporized=""/>
    <tripinfo id="f_0_0.10" depart="137.00" departLane="np13_nt13_0" departPos="43.24" departSpeed="0.00" departDelay="0.64" arrival="327.00" arrivalLane="nt4_np5_0" arrivalPos="75.00" arrivalSpeed="16.18" duration="190.00" routeLength="1304.65" waitingTime="49.00" waitingCount="5" stopTime="0.00" timeLoss="91.51" rerouteNo="0" devices="tripinfo_f_0_0.10" vType="type1" speedFactor="0.93" vaporized=""/>
    <tripinfo id="f_0_3.10" depart="82.00" departLane="np3_nt3_0" departPos="0.00" departSpeed="0.00" departDelay="0.18" arrival="342.00" arrivalLane="nt14_np11_0" arrivalPos="75.00" arrivalSpeed="9.05" duration="260.00" routeLength="951.09" waitingTime="125.00" waitingCount="8" stopTime="0.00" timeLoss="180.62" rerouteNo="0" devices="tripinfo_f_0_3.10" vType="type1" speedFactor="1.00" vaporized=""/>
    <tripinfo id="f_0_3.11" depart="90.00" departLane="np3_nt3_0" departPos="0.00" departSpeed="0.00" departDelay="0.00" arrival="344.00" arrivalLane="nt14_np11_0" arrivalPos="75.00" arrivalSpeed="9.57" duration="254.00" routeLength="951.09" waitingTime="111.00" waitingCount="7" stopTime="0.00" timeLoss="178.93" rerouteNo="0" devices="tripinfo_f_0_3.11" vType="type1" speedFactor="1.07" vaporized=""/>
    <tripinfo id="f_0_1.4" depart="55.00" departLane="np16_nt1_0" departPos="38.71" departSpeed="0.00" departDelay="0.46" arrival="345.00" arrivalLane="nt16_np8_0" arrivalPos="75.00" arrivalSpeed="14.89" duration="290.00" routeLength="1309.17" waitingTime="107.00" waitingCount="11" stopTime="0.00" timeLoss="184.19" rerouteNo="0" devices="tripinfo_f_0_1.4" vType="type1" speedFactor="0.87" vaporized=""/>
    <tripinfo id="f_0_1.5" depart="69.00" departLane="np16_nt1_0" departPos="24.89" departSpeed="0.00" departDelay="0.82" arrival="353.00" arrivalLane="nt16_np8_0" arrivalPos="75.00" arrivalSpeed="20.70" duration="284.00" routeLength="1322.99" waitingTime="116.00" waitingCount="11" stopTime="0.00" timeLoss="202.38" rerouteNo="0" devices="tripinfo_f_0_1.5" vType="type1" speedFactor="1.12" vaporized=""/>
    <tripinfo id="f_0_2.12" depart="99.00" departLane="np2_nt2_0" departPos="49.99" departSpeed="0.00" departDelay="0.82" arrival="358.00" arrivalLane="nt15_np10_0" arrivalPos="75.00" arrivalSpeed="8.80" duration="259.00" routeLength="901.09" waitingTime="100.00" waitingCount="9" stopTime="0.00" timeLoss="177.47" rerouteNo="0" devices="tripinfo_f_0_2.12" vType="type1" speedFactor="0.93" vaporized=""/>
    <tripinfo id="f_0_2.13" depart="107.00" departLane="np2_nt2_0" departPos="51.92" departSpeed="0.00" departDelay="0.63" arrival="360.00" arrivalLane="nt15_np10_0" arrivalPos="75.00" arrivalSpeed="13.41" duration="253.00" routeLength="899.16" waitingTime="94.00" waitingCount="9" stopTime="0.00" timeLoss="192.02" rerouteNo="0" devices="tripinfo_f_0_2.13" vType="type1" speedFactor="1.23" vaporized=""/>
    <tripinfo id="f_0_0.11" depart="150.00" departLane="np13_nt13_0" departPos="17.75" departSpeed="0.00" departDelay="0.00" arrival="363.00" arrivalLane="nt4_np5_0" arrivalPos="75.00" arrivalSpeed="18.74" duration="213.00" routeLength="1330.14" waitingTime="78.00" waitingCount="8" stopTime="0.00" timeLoss="125.69" rerouteNo="0" devices="tripinfo_f_0_0.11" vType="type1" speedFactor="1.06" vaporized=""/>
    <tripinfo id="f_0_0.12" depart="164.00" departLane="np13_nt13_0" departPos="34.75" departSpeed="0.00" departDelay="0.37" arrival="365.00" arrivalLane="nt4_np5_0" arrivalPos="75.00" arrivalSpeed="20.92" duration="201.00" routeLength="1313.14" waitingTime="59.00" waitingCount="7" stopTime="0.00" timeLoss="116.05" rerouteNo="0" devices="tripinfo_f_0_0.12" vType="type1" speedFactor="1.08" vaporized=""/>
    <tripinfo id="f_0_3.12" depart="99.00" departLane="np3_nt3_0" departPos="2.46" departSpeed="0.00" departDelay="0.82" arrival="368.00" arrivalLane="nt14_np11_0" arrivalPos="75.00" arrivalSpeed="10.55" duration="269.00" routeLength="948.63" waitingTime="130.00" waitingCount="7" stopTime="0.00" timeLoss="185.47" rerouteNo="0" devices="tripinfo_f_0_3.12" vType="type1" speedFactor="0.96" vaporized=""/>
    <tripinfo id="f_0_3.13" depart="118.00" departLane="np3_nt3_0" departPos="0.00" departSpeed="0.00" departDelay="11.63" arrival="370.00" arrivalLane="nt14_np11_0" arrivalPos="75.00" arrivalSpeed="9.93" duration="252.00" routeLength="951.09" waitingTime="117.00" waitingCount="8" stopTime="0.00" timeLoss="172.80" rerouteNo="0" devices="tripinfo_f_0_3.13" vType="type1" speedFactor="1.02" vaporized=""/>
    <tripinfo id="f_0_1.6" depart="82.00" departLane="np16_nt1_0" departPos="12.38" departSpeed="0.00" departDelay="0.18" arrival="378.00" arrivalLane="nt16_np8_0" arrivalPos="75.00" arrivalSpeed="20.17" duration="296.00" routeLength="1335.50" waitingTime="100.00" waitingCount="11" stopTime="0.00" timeLoss="212.43" rerouteNo="0" devices="tripinfo_f_0_1.6" vType="type1" speedFactor="1.11" vaporized=""/>
    <tripinfo id="f_0_3.14" depart="127.00" departLane="np3_nt3_0" departPos="0.00" departSpeed="0.00" departDelay="12.45" arrival="398.00" arrivalLane="nt14_np11_0" arrivalPos="75.00" arrivalSpeed="9.42" duration="271.00" routeLength="951.09" waitingTime="136.00" waitingCount="7" stopTime="0.00" timeLoss="186.64" rerouteNo="0" devices="tripinfo_f_0_3.14" vType="type1" speedFactor="0.95" vaporized=""/>
    <tripinfo id="f_0_3.15" depart="130.00" departLane="np3_nt3_0" departPos="0.88" departSpeed="0.00" departDelay="7.27" arrival="400.00" arrivalLane="nt14_np11_0" arrivalPos="75.00" arrivalSpeed="10.02" duration="270.00" routeLength="950.21" waitingTime="128.00" waitingCount="7" stopTime="0.00" timeLoss="188.61" rerouteNo="0" devices="tripinfo_f_0_3.15" vType="type1" speedFactor="0.98" vaporized=""/>
    <tripinfo id="f_0_2.14" depart="115.00" departLane="np2_nt2_0" departPos="36.62" departSpeed="0.00" departDelay="0.45" arrival="401.00" arrivalLane="nt15_np10_0" arrivalPos="75.00" arrivalSpeed="10.83" duration="286.00" routeLength="914.46" waitingTime="119.00" waitingCount="10" stopTime="0.00" timeLoss="214.37" rerouteNo="0" devices="tripinfo_f_0_2.14" vType="type1" speedFactor="1.06" vaporized=""/>
    <tripinfo id="f_0_3.17" depart="153.00" departLane="np3_nt3_0" departPos="0.00" departSpeed="0.00" departDelay="13.91" arrival="416.00" arrivalLane="nt14_np11_0" arrivalPos="75.00" arrivalSpeed="11.61" duration="263.00" routeLength="951.09" waitingTime="124.00" waitingCount="7" stopTime="0.00" timeLoss="194.17" rerouteNo="0" devices="tripinfo_f_0_3.17" vType="type1" speedFactor="1.18" vaporized=""/>
    <tripinfo id="f_0_0.13" depart="178.00" departLane="np13_nt13_0" departPos="67.56" departSpeed="0.00" departDelay="0.73" arrival="419.00" arrivalLane="nt4_np5_0" arrivalPos="75.00" arrivalSpeed="18.28" duration="241.00" routeLength="1280.33" waitingTime="98.00" waitingCount="8" stopTime="0.00" timeLoss="144.04" rerouteNo="0" devices="tripinfo_f_0_0.13" vType="type1" speedFactor="0.93" vaporized=""/>
    <tripinfo id="f_0_0.14" depart="191.00" departLane="np13_nt13_0" departPos="39.91" departSpeed="0.00" departDelay="0.10" arrival="420.00" arrivalLane="nt4_np5_0" arrivalPos="75.00" arrivalSpeed="17.68" duration="229.00" routeLength="1307.98" waitingTime="77.00" waitingCount="8" stopTime="0.00" timeLoss="127.77" rerouteNo="0" devices="tripinfo_f_0_0.14" vType="type1" speedFactor="0.90" vaporized=""/>
    <tripinfo id="f_0_3.18" depart="158.00" departLane="np3_nt3_0" departPos="0.00" departSpeed="0.00" departDelay="10.72" arrival="422.00" arrivalLane="nt14_np11_0" arrivalPos="75.00" arrivalSpeed="7.16" duration="264.00" routeLength="951.09" waitingTime="112.00" waitingCount="8" stopTime="0.00" timeLoss="168.19" rerouteNo="0" devices="tripinfo_f_0_3.18" vType="type1" speedFactor="0.84" vaporized=""/>
    <tripinfo id="f_0_0.15" depart="205.00" departLane="np13_nt13_0" departPos="19.34" departSpeed="0.00" departDelay="0.46" arrival="422.00" arrivalLane="nt4_np5_0" arrivalPos="75.00" arrivalSpeed="19.46" duration="217.00" routeLength="1328.55" waitingTime="84.00" waitingCount="8" stopTime="0.00" timeLoss="130.90" rerouteNo="0" devices="tripinfo_f_0_0.15" vType="type1" speedFactor="1.08" vaporized=""/>
    <tripinfo id="f_0_0.16" depart="219.00" departLane="np13_nt13_0" departPos="57.59" departSpeed="0.00" departDelay="0.82" arrival="423.00" arrivalLane="nt4_np5_0" arrivalPos="75.00" arrivalSpeed="19.17" duration="204.00" routeLength="1290.30" waitingTime="60.00" waitingCount="9" stopTime="0.00" timeLoss="114.64" rerouteNo="0" devices="tripinfo_f_0_0.16" vType="type1" speedFactor="1.01" vaporized=""/>
    <tripinfo id="f_0_0.17" depart="232.00" departLane="np13_nt13_0" departPos="26.99" departSpeed="0.00" departDelay="0.19" arrival="425.00" arrivalLane="nt4_np5_0" arrivalPos="75.00" arrivalSpeed="20.74" duration="193.00" routeLength="1320.90" waitingTime="52.00" waitingCount="9" stopTime="0.00" timeLoss="104.65" rerouteNo="0" devices="tripinfo_f_0_0.17" vType="type1" speedFactor="1.04" vaporized=""/>
    <tripinfo id="f_0_0.18" depart="246.00" departLane="np13_nt13_0" departPos="32.77" departSpeed="0.00" departDelay="0.55" arrival="430.00" arrivalLane="nt4_np5_0" arrivalPos="75.00" arrivalSpeed="19.88" duration="184.00" routeLength="1315.12" waitingTime="58.00" waitingCount="5" stopTime="0.00" timeLoss="95.36" rerouteNo="0" devices="tripinfo_f_0_0.18" vType="type1" speedFactor="1.03" vaporized=""/>
    <tripinfo id="f_0_1.7" depart="96.00" departLane="np16_nt1_0" departPos="51.29" departSpeed="0.00" departDelay="0.55" arrival="433.00" arrivalLane="nt16_np8_0" arrivalPos="75.00" arrivalSpeed="19.24" duration="337.00" routeLength="1296.59" waitingTime="150.00" waitingCount="12" stopTime="0.00" timeLoss="251.91" rerouteNo="0" devices="tripinfo_f_0_1.7" vType="type1" speedFactor="1.07" vaporized=""/>
    <tripinfo id="f_0_0.19" depart="260.00" departLane="np13_nt13_0" departPos="32.45" departSpeed="0.00" departDelay="0.92" arrival="434.00" arrivalLane="nt4_np5_0" arrivalPos="75.00" arrivalSpeed="17.50" duration="174.00" routeLength="1315.44" waitingTime="45.00" waitingCount="4" stopTime="0.00" timeLoss="77.68" rerouteNo="0" devices="tripinfo_f_0_0.19" vType="type1" speedFactor="0.96" vaporized=""/>
    <tripinfo id="f_0_0.20" depart="273.00" departLane="np13_nt13_0" departPos="33.68" departSpeed="0.00" departDelay="0.28" arrival="435.00" arrivalLane="nt4_np5_0" arrivalPos="75.00" arrivalSpeed="21.77" duration="162.00" routeLength="1314.21" waitingTime="42.00" waitingCount="4" stopTime="0.00" timeLoss="85.86" rerouteNo="0" devices="tripinfo_f_0_0.20" vType="type1" speedFactor="1.21" vaporized=""/>
    <tripinfo id="f_0_0.21" depart="287.00" departLane="np13_nt13_0" departPos="59.15" departSpeed="0.00" departDelay="0.64" arrival="437.00" arrivalLane="nt4_np5_0" arrivalPos="75.00" arrivalSpeed="19.69" duration="150.00" routeLength="1288.74" waitingTime="30.00" waitingCount="4" stopTime="0.00" timeLoss="67.76" rerouteNo="0" devices="tripinfo_f_0_0.21" vType="type1" speedFactor="1.10" vaporized=""/>
    <tripinfo id="f_0_2.15" depart="123.00" departLane="np2_nt2_0" departPos="29.50" departSpeed="0.00" departDelay="0.27" arrival="451.00" arrivalLane="nt15_np10_0" arrivalPos="75.00" arrivalSpeed="12.44" duration="328.00" routeLength="921.58" waitingTime="162.00" waitingCount="11" stopTime="0.00" timeLoss="259.93" rerouteNo="0" devices="tripinfo_f_0_2.15" vType="type1" speedFactor="1.14" vaporized=""/>
    <tripinfo id="f_0_3.19" depart="198.00" departLane="np3_nt3_0" departPos="0.00" departSpeed="0.00" departDelay="42.54" arrival="452.00" arrivalLane="nt14_np11_0" arrivalPos="75.00" arrivalSpeed="9.66" duration="254.00" routeLength="951.09" waitingTime="115.00" waitingCount="9" stopTime="0.00" timeLoss="179.48" rerouteNo="0" devices="tripinfo_f_0_3.19" vType="type1" speedFactor="1.08" vaporized=""/>
    <tripinfo id="f_0_2.16" depart="131.00" departLane="np2_nt2_0" departPos="43.73" departSpeed="0.00" departDelay="0.09" arrival="453.00" arrivalLane="nt15_np10_0" arrivalPos="75.00" arrivalSpeed="10.96" duration="322.00" routeLength="907.35" waitingTime="144.00" waitingCount="12" stopTime="0.00" timeLoss="249.21" rerouteNo="0" devices="tripinfo_f_0_2.16" vType="type1" speedFactor="1.04" vaporized=""/>
    <tripinfo id="f_0_3.20" depart="200.00" departLane="np3_nt3_0" departPos="3.25" departSpeed="0.00" departDelay="36.36" arrival="454.00" arrivalLane="nt14_np11_0" arrivalPos="75.00" arrivalSpeed="9.36" duration="254.00" routeLength="947.84" waitingTime="122.00" waitingCount="9" stopTime="0.00" timeLoss="177.22" rerouteNo="0" devices="tripinfo_f_0_3.20" vType="type1" speedFactor="1.04" vaporized=""/>
    <tripinfo id="f_1_0.0" depart="300.00" departLane="np13_nt13_0" departPos="46.44" departSpeed="0.00" departDelay="0.00" arrival="473.00" arrivalLane="nt4_np5_0" arrivalPos="75.00" arrivalSpeed="20.95" duration="173.00" routeLength="1301.45" waitingTime="56.00" waitingCount="6" stopTime="0.00" timeLoss="93.15" rerouteNo="0" devices="tripinfo_f_1_0.0" vType="type1" speedFactor="1.15" vaporized=""/>
    <tripinfo id="f_0_2.17" depart="140.00" departLane="np2_nt2_0" departPos="18.48" departSpeed="0.00" departDelay="0.91" arrival="477.00" arrivalLane="nt15_np10_0" arrivalPos="75.00" arrivalSpeed="10.98" duration="337.00" routeLength="932.60" waitingTime="153.00" waitingCount="14" stopTime="0.00" timeLoss="260.73" rerouteNo="0" devices="tripinfo_f_0_2.17" vType="type1" speedFactor="1.03" vaporized=""/>
    <tripinfo id="f_0_2.18" depart="148.00" departLane="np2_nt2_0" departPos="39.72" departSpeed="0.00" departDelay="0.72" arrival="480.00" arrivalLane="nt15_np10_0" arrivalPos="75.00" arrivalSpeed="9.51" duration="332.00" routeLength="911.36" waitingTime="145.00" waitingCount="13" stopTime="0.00" timeLoss="250.13" rerouteNo="0" devices="tripinfo_f_0_2.18" vType="type1" speedFactor="0.93" vaporized=""/>