<?xml version="1.0" encoding="UTF-8"?>

<!-- generated on 2023-08-30 11:54:22 by Eclipse SUMO libsumo Version 1.18.0
<configuration xmlns:xsi="http://www.w3.org/2001/XMLSchema-instance" xsi:noNamespaceSchemaLocation="http://sumo.dlr.de/xsd/libsumoConfiguration.xsd">

    <input>
        <net-file value="/home/stefan/RESCO/./environments/grid4x4/grid4x4.net.xml"/>
        <route-files value="/home/stefan/RESCO/./environments/grid4x4/grid4x4_1.rou.xml"/>
    </input>

    <output>
        <tripinfo-output value="/home/stefan/results/ITRPO-tr0-grid4x4-0-drq_norm-wait_norm/tripinfo_1.xml"/>
        <tripinfo-output.write-unfinished value="true"/>
    </output>

    <processing>
        <time-to-teleport value="-1"/>
    </processing>

    <report>
        <no-warnings value="True"/>
        <no-step-log value="True"/>
    </report>

    <random_number>
        <random value="true"/>
    </random_number>

</configuration>
-->

<tripinfos xmlns:xsi="http://www.w3.org/2001/XMLSchema-instance" xsi:noNamespaceSchemaLocation="http://sumo.dlr.de/xsd/tripinfo_file.xsd">
    <tripinfo id="2" depart="14.00" departLane="left0A0_0" departPos="5.10" departSpeed="0.00" departDelay="0.00" arrival="81.00" arrivalLane="B0bottom1_0" arrivalPos="286.40" arrivalSpeed="15.65" duration="67.00" routeLength="876.90" waitingTime="1.00" waitingCount="1" stopTime="0.00" timeLoss="13.39" rerouteNo="0" devices="tripinfo_2" vType="DEFAULT_VEHTYPE" speedFactor="1.19" vaporized=""/>
    <tripinfo id="25" depart="111.00" departLane="right3D3_0" departPos="5.10" departSpeed="0.00" departDelay="0.00" arrival="160.00" arrivalLane="D3top3_0" arrivalPos="286.40" arrivalSpeed="13.24" duration="49.00" routeLength="576.73" waitingTime="0.00" waitingCount="0" stopTime="0.00" timeLoss="6.64" rerouteNo="0" devices="tripinfo_25" vType="DEFAULT_VEHTYPE" speedFactor="1.00" vaporized=""/>
    <tripinfo id="6" depart="39.00" departLane="bottom1B0_0" departPos="5.10" departSpeed="0.00" departDelay="1.00" arrival="172.00" arrivalLane="A0left0_0" arrivalPos="286.40" arrivalSpeed="13.36" duration="133.00" routeLength="895.01" waitingTime="55.00" waitingCount="1" stopTime="0.00" timeLoss="68.18" rerouteNo="0" devices="tripinfo_6" vType="DEFAULT_VEHTYPE" speedFactor="1.01" vaporized=""/>
    <tripinfo id="13" depart="76.00" departLane="right1D1_0" departPos="5.10" departSpeed="0.00" departDelay="0.00" arrival="184.00" arrivalLane="D3top3_0" arrivalPos="286.40" arrivalSpeed="12.72" duration="108.00" routeLength="1179.77" waitingTime="1.00" waitingCount="1" stopTime="0.00" timeLoss="15.12" rerouteNo="0" devices="tripinfo_13" vType="DEFAULT_VEHTYPE" speedFactor="0.92" vaporized=""/>
    <tripinfo id="8" depart="57.00" departLane="top2C3_0" departPos="5.10" departSpeed="0.00" departDelay="0.00" arrival="189.00" arrivalLane="D3top3_0" arrivalPos="286.40" arrivalSpeed="13.62" duration="132.00" routeLength="894.86" waitingTime="48.00" waitingCount="2" stopTime="0.00" timeLoss="66.47" rerouteNo="0" devices="tripinfo_8" vType="DEFAULT_VEHTYPE" speedFactor="1.01" vaporized=""/>
    <tripinfo id="7" depart="53.00" departLane="top1B3_0" departPos="5.10" departSpeed="0.00" departDelay="0.00" arrival="192.00" arrivalLane="D3top3_0" arrivalPos="286.40" arrivalSpeed="13.04" duration="139.00" routeLength="1197.66" waitingTime="25.00" waitingCount="3" stopTime="0.00" timeLoss="49.61" rerouteNo="0" devices="tripinfo_7" vType="DEFAULT_VEHTYPE" speedFactor="0.98" vaporized=""/>
    <tripinfo id="24" depart="110.00" departLane="bottom2C0_0" departPos="5.10" departSpeed="0.00" departDelay="0.00" arrival="199.00" arrivalLane="B0bottom1_0" arrivalPos="286.40" arrivalSpeed="13.11" duration="89.00" routeLength="894.86" waitingTime="13.00" waitingCount="1" stopTime="0.00" timeLoss="24.62" rerouteNo="0" devices="tripinfo_24" vType="DEFAULT_VEHTYPE" speedFactor="1.02" vaporized=""/>
    <tripinfo id="16" depart="84.00" departLane="left2A2_0" departPos="5.10" departSpeed="0.00" departDelay="0.00" arrival="204.00" arrivalLane="B3top1_0" arrivalPos="286.40" arrivalSpeed="12.68" duration="120.00" routeLength="1195.18" waitingTime="13.00" waitingCount="1" stopTime="0.00" timeLoss="27.83" rerouteNo="0" devices="tripinfo_16" vType="DEFAULT_VEHTYPE" speedFactor="0.94" vaporized=""/>
    <tripinfo id="10" depart="62.00" departLane="bottom2C0_0" departPos="5.10" departSpeed="0.00" departDelay="0.00" arrival="210.00" arrivalLane="D2right2_0" arrivalPos="286.40" arrivalSpeed="12.32" duration="148.00" routeLength="1479.94" waitingTime="11.00" waitingCount="3" stopTime="0.00" timeLoss="38.12" rerouteNo="0" devices="tripinfo_10" vType="DEFAULT_VEHTYPE" speedFactor="0.98" vaporized=""/>
    <tripinfo id="31" depart="138.00" departLane="left3A3_0" departPos="5.10" departSpeed="0.00" departDelay="0.00" arrival="219.00" arrivalLane="B3top1_0" arrivalPos="286.40" arrivalSpeed="13.19" duration="81.00" routeLength="897.72" waitingTime="3.00" waitingCount="1" stopTime="0.00" timeLoss="16.75" rerouteNo="0" devices="tripinfo_31" vType="DEFAULT_VEHTYPE" speedFactor="1.02" vaporized=""/>
    <tripinfo id="43" depart="186.00" departLane="top0A3_0" departPos="5.10" departSpeed="0.00" departDelay="0.00" arrival="228.00" arrivalLane="A3left3_0" arrivalPos="286.40" arrivalSpeed="16.00" duration="42.00" routeLength="576.73" waitingTime="0.00" waitingCount="0" stopTime="0.00" timeLoss="6.43" rerouteNo="0" devices="tripinfo_43" vType="DEFAULT_VEHTYPE" speedFactor="1.21" vaporized=""/>
    <tripinfo id="32" depart="139.00" departLane="top2C3_0" departPos="5.10" departSpeed="0.00" departDelay="0.00" arrival="237.00" arrivalLane="D3right3_0" arrivalPos="286.40" arrivalSpeed="14.83" duration="98.00" routeLength="895.01" waitingTime="19.00" waitingCount="2" stopTime="0.00" timeLoss="37.79" rerouteNo="0" devices="tripinfo_32" vType="DEFAULT_VEHTYPE" speedFactor="1.08" vaporized=""/>
    <tripinfo id="12" depart="74.00" departLane="top3D3_0" departPos="5.10" departSpeed="0.00" departDelay="0.00" arrival="239.00" arrivalLane="D0right0_0" arrivalPos="286.40" arrivalSpeed="13.01" duration="165.00" routeLength="1498.06" waitingTime="34.00" waitingCount="3" stopTime="0.00" timeLoss="57.62" rerouteNo="0" devices="tripinfo_12" vType="DEFAULT_VEHTYPE" speedFactor="1.01" vaporized=""/>
    <tripinfo id="4" depart="34.00" departLane="left2A2_0" departPos="5.10" departSpeed="0.00" departDelay="0.00" arrival="268.00" arrivalLane="A2left2_0" arrivalPos="286.40" arrivalSpeed="14.38" duration="234.00" routeLength="1748.75" waitingTime="82.00" waitingCount="3" stopTime="0.00" timeLoss="110.69" rerouteNo="0" devices="tripinfo_4" vType="DEFAULT_VEHTYPE" speedFactor="1.04" vaporized=""/>
    <tripinfo id="14" depart="77.00" departLane="right0D0_0" departPos="5.10" departSpeed="0.00" departDelay="0.00" arrival="271.00" arrivalLane="D2right2_0" arrivalPos="286.40" arrivalSpeed="12.01" duration="194.00" routeLength="1161.43" waitingTime="80.00" waitingCount="2" stopTime="0.00" timeLoss="99.41" rerouteNo="0" devices="tripinfo_14" vType="DEFAULT_VEHTYPE" speedFactor="0.91" vaporized=""/>
    <tripinfo id="35" depart="146.00" departLane="top0A3_0" departPos="5.10" departSpeed="0.00" departDelay="0.00" arrival="281.00" arrivalLane="A0left0_0" arrivalPos="286.40" arrivalSpeed="17.09" duration="135.00" routeLength="1477.24" waitingTime="19.00" waitingCount="3" stopTime="0.00" timeLoss="47.75" rerouteNo="0" devices="tripinfo_35" vType="DEFAULT_VEHTYPE" speedFactor="1.24" vaporized=""/>
    <tripinfo id="11" depart="70.00" departLane="left1A1_0" departPos="5.10" departSpeed="0.00" departDelay="0.00" arrival="286.00" arrivalLane="A1left1_0" arrivalPos="286.40" arrivalSpeed="15.89" duration="216.00" routeLength="1748.75" waitingTime="73.00" waitingCount="3" stopTime="0.00" timeLoss="104.44" rerouteNo="0" devices="tripinfo_11" vType="DEFAULT_VEHTYPE" speedFactor="1.15" vaporized=""/>
    <tripinfo id="49" depart="220.00" departLane="top1B3_0" departPos="5.10" departSpeed="0.00" departDelay="0.00" arrival="293.00" arrivalLane="A3left3_0" arrivalPos="286.40" arrivalSpeed="13.75" duration="73.00" routeLength="879.60" waitingTime="1.00" waitingCount="1" stopTime="0.00" timeLoss="11.22" rerouteNo="0" devices="tripinfo_49" vType="DEFAULT_VEHTYPE" speedFactor="1.05" vaporized=""/>
    <tripinfo id="23" depart="106.00" departLane="bottom2C0_0" departPos="5.10" departSpeed="0.00" departDelay="0.00" arrival="298.00" arrivalLane="D1right1_0" arrivalPos="286.40" arrivalSpeed="14.81" duration="192.00" routeLength="1179.77" waitingTime="89.00" waitingCount="2" stopTime="0.00" timeLoss="113.23" rerouteNo="0" devices="tripinfo_23" vType="DEFAULT_VEHTYPE" speedFactor="1.10" vaporized=""/>
    <tripinfo id="20" depart="98.00" departLane="bottom2C0_0" departPos="5.10" departSpeed="0.00" departDelay="0.00" arrival="312.00" arrivalLane="D2right2_0" arrivalPos="286.40" arrivalSpeed="12.55" duration="214.00" routeLength="1479.94" waitingTime="79.00" waitingCount="2" stopTime="0.00" timeLoss="101.50" rerouteNo="0" devices="tripinfo_20" vType="DEFAULT_VEHTYPE" speedFactor="0.95" vaporized=""/>
    <tripinfo id="0" depart="0.00" departLane="top3D3_0" departPos="5.10" departSpeed="0.00" departDelay="0.00" arrival="319.00" arrivalLane="D3top3_0" arrivalPos="286.40" arrivalSpeed="13.08" duration="319.00" routeLength="1748.75" waitingTime="156.00" waitingCount="4" stopTime="0.00" timeLoss="191.01" rerouteNo="0" devices="tripinfo_0" vType="DEFAULT_VEHTYPE" speedFactor="1.00" vaporized=""/>
    <tripinfo id="44" depart="197.00" departLane="left1A1_0" departPos="5.10" departSpeed="0.00" departDelay="0.00" arrival="320.00" arrivalLane="A2left2_0" arrivalPos="286.40" arrivalSpeed="12.34" duration="123.00" routeLength="894.86" waitingTime="38.00" waitingCount="2" stopTime="0.00" timeLoss="55.15" rerouteNo="0" devices="tripinfo_44" vType="DEFAULT_VEHTYPE" speedFactor="0.97" vaporized=""/>
    <tripinfo id="54" depart="236.00" departLane="bottom0A0_0" departPos="5.10" departSpeed="0.00" departDelay="0.00" arrival="320.00" arrivalLane="B0bottom1_0" arrivalPos="286.40" arrivalSpeed="11.89" duration="84.00" routeLength="858.56" waitingTime="1.00" waitingCount="1" stopTime="0.00" timeLoss="13.34" rerouteNo="0" devices="tripinfo_54" vType="DEFAULT_VEHTYPE" speedFactor="0.90" vaporized=""/>
    <tripinfo id="22" depart="104.00" departLane="top1B3_0" departPos="5.10" departSpeed="0.00" departDelay="0.00" arrival="321.00" arrivalLane="D3top3_1" arrivalPos="286.40" arrivalSpeed="13.97" duration="217.00" routeLength="1197.66" waitingTime="112.00" waitingCount="2" stopTime="0.00" timeLoss="130.68" rerouteNo="0" devices="tripinfo_22" vType="DEFAULT_VEHTYPE" speedFactor="1.01" vaporized=""/>
    <tripinfo id="42" depart="178.00" departLane="left0A0_0" departPos="5.10" departSpeed="0.00" departDelay="0.00" arrival="327.00" arrivalLane="D0bottom3_0" arrivalPos="286.40" arrivalSpeed="13.46" duration="149.00" routeLength="1477.24" waitingTime="28.00" waitingCount="2" stopTime="0.00" timeLoss="46.99" rerouteNo="0" devices="tripinfo_42" vType="DEFAULT_VEHTYPE" speedFactor="1.05" vaporized=""/>
    <tripinfo id="40" depart="175.00" departLane="right0D0_0" departPos="5.10" departSpeed="0.00" departDelay="0.00" arrival="329.00" arrivalLane="B0bottom1_0" arrivalPos="286.40" arrivalSpeed="13.67" duration="154.00" routeLength="1197.89" waitingTime="45.00" waitingCount="3" stopTime="0.00" timeLoss="68.70" rerouteNo="0" devices="tripinfo_40" vType="DEFAULT_VEHTYPE" speedFactor="1.02" vaporized=""/>
    <tripinfo id="26" depart="111.00" departLane="bottom0A0_0" departPos="5.10" departSpeed="0.00" departDelay="0.00" arrival="330.00" arrivalLane="B3top1_0" arrivalPos="286.40" arrivalSpeed="12.48" duration="219.00" routeLength="1782.72" waitingTime="49.00" waitingCount="4" stopTime="0.00" timeLoss="82.53" rerouteNo="0" devices="tripinfo_26" vType="DEFAULT_VEHTYPE" speedFactor="0.95" vaporized=""/>
    <tripinfo id="5" depart="36.00" departLane="bottom1B0_0" departPos="5.10" departSpeed="0.00" departDelay="0.00" arrival="331.00" arrivalLane="B3top1_1" arrivalPos="286.40" arrivalSpeed="14.27" duration="295.00" routeLength="1495.58" waitingTime="154.00" waitingCount="3" stopTime="0.00" timeLoss="192.86" rerouteNo="0" devices="tripinfo_5" vType="DEFAULT_VEHTYPE" speedFactor="1.06" vaporized=""/>
    <tripinfo id="17" depart="85.00" departLane="bottom2C0_0" departPos="5.10" departSpeed="0.00" departDelay="0.00" arrival="346.00" arrivalLane="D3right3_0" arrivalPos="286.40" arrivalSpeed="15.91" duration="261.00" routeLength="1780.11" waitingTime="108.00" waitingCount="5" stopTime="0.00" timeLoss="150.01" rerouteNo="0" devices="tripinfo_17" vType="DEFAULT_VEHTYPE" speedFactor="1.16" vaporized=""/>
    <tripinfo id="57" depart="268.00" departLane="bottom3D0_0" departPos="5.10" departSpeed="0.00" departDelay="0.00" arrival="346.00" arrivalLane="C0bottom2_0" arrivalPos="286.40" arrivalSpeed="15.72" duration="78.00" routeLength="894.86" waitingTime="9.00" waitingCount="1" stopTime="0.00" timeLoss="22.13" rerouteNo="0" devices="tripinfo_57" vType="DEFAULT_VEHTYPE" speedFactor="1.18" vaporized=""/>
    <tripinfo id="9" depart="61.00" departLane="top1B3_0" departPos="5.10" departSpeed="0.00" departDelay="0.00" arrival="349.00" arrivalLane="D0right0_1" arrivalPos="286.40" arrivalSpeed="14.68" duration="288.00" routeLength="2095.69" waitingTime="103.00" waitingCount="5" stopTime="0.00" timeLoss="148.64" rerouteNo="0" devices="tripinfo_9" vType="DEFAULT_VEHTYPE" speedFactor="1.09" vaporized=""/>
    <tripinfo id="15" depart="79.00" departLane="left0A0_0" departPos="5.10" departSpeed="0.00" departDelay="0.00" arrival="352.00" arrivalLane="D0right0_0" arrivalPos="286.40" arrivalSpeed="11.69" duration="273.00" routeLength="1495.58" waitingTime="120.00" waitingCount="4" stopTime="0.00" timeLoss="150.07" rerouteNo="0" devices="tripinfo_15" vType="DEFAULT_VEHTYPE" speedFactor="0.88" vaporized=""/>
    <tripinfo id="59" depart="276.00" departLane="top2C3_0" departPos="5.10" departSpeed="0.00" departDelay="0.00" arrival="353.00" arrivalLane="D3right3_0" arrivalPos="286.40" arrivalSpeed="12.60" duration="77.00" routeLength="895.01" waitingTime="0.00" waitingCount="0" stopTime="0.00" timeLoss="8.71" rerouteNo="0" devices="tripinfo_59" vType="DEFAULT_VEHTYPE" speedFactor="0.96" vaporized=""/>
    <tripinfo id="45" depart="204.00" departLane="bottom1B0_0" departPos="5.10" departSpeed="0.00" departDelay="0.00" arrival="358.00" arrivalLane="B0bottom1_0" arrivalPos="286.40" arrivalSpeed="14.00" duration="154.00" routeLength="1748.75" waitingTime="4.00" waitingCount="3" stopTime="0.00" timeLoss="28.55" rerouteNo="0" devices="tripinfo_45" vType="DEFAULT_VEHTYPE" speedFactor="1.02" vaporized=""/>
    <tripinfo id="19" depart="90.00" departLane="right2D2_0" departPos="5.10" departSpeed="0.00" departDelay="0.00" arrival="360.00" arrivalLane="C0bottom2_0" arrivalPos="286.40" arrivalSpeed="11.72" duration="270.00" routeLength="1495.35" waitingTime="121.00" waitingCount="4" stopTime="0.00" timeLoss="154.50" rerouteNo="0" devices="tripinfo_19" vType="DEFAULT_VEHTYPE" speedFactor="0.94" vaporized=""/>
    <tripinfo id="21" depart="101.00" departLane="top0A3_0" departPos="5.10" departSpeed="0.00" departDelay="0.00" arrival="361.00" arrivalLane="C0bottom2_1" arrivalPos="286.40" arrivalSpeed="13.16" duration="260.00" routeLength="2080.05" waitingTime="67.00" waitingCount="6" stopTime="0.00" timeLoss="111.46" rerouteNo="0" devices="tripinfo_21" vType="DEFAULT_VEHTYPE" speedFactor="1.02" vaporized=""/>
    <tripinfo id="37" depart="155.00" departLane="right3D3_0" departPos="5.10" departSpeed="0.00" departDelay="0.00" arrival="363.00" arrivalLane="A0left0_0" arrivalPos="286.40" arrivalSpeed="15.56" duration="208.00" routeLength="2380.22" waitingTime="30.00" waitingCount="3" stopTime="0.00" timeLoss="62.30" rerouteNo="0" devices="tripinfo_37" vType="DEFAULT_VEHTYPE" speedFactor="1.18" vaporized=""/>
    <tripinfo id="52" depart="229.00" departLane="right1D1_0" departPos="5.10" departSpeed="0.00" departDelay="0.00" arrival="379.00" arrivalLane="C0bottom2_0" arrivalPos="286.40" arrivalSpeed="13.08" duration="150.00" routeLength="1195.18" waitingTime="40.00" waitingCount="3" stopTime="0.00" timeLoss="64.30" rerouteNo="0" devices="tripinfo_52" vType="DEFAULT_VEHTYPE" speedFactor="1.01" vaporized=""/>
    <tripinfo id="66" depart="297.00" departLane="bottom0A0_0" departPos="5.10" departSpeed="0.00" departDelay="0.00" arrival="383.00" arrivalLane="A1left1_0" arrivalPos="286.40" arrivalSpeed="13.18" duration="86.00" routeLength="897.72" waitingTime="9.00" waitingCount="1" stopTime="0.00" timeLoss="20.19" rerouteNo="0" devices="tripinfo_66" vType="DEFAULT_VEHTYPE" speedFactor="1.00" vaporized=""/>
    <tripinfo id="60" depart="278.00" departLane="right3D3_0" departPos="5.10" departSpeed="0.00" departDelay="0.00" arrival="384.00" arrivalLane="C3top2_0" arrivalPos="286.40" arrivalSpeed="14.88" duration="106.00" routeLength="876.90" waitingTime="30.00" waitingCount="2" stopTime="0.00" timeLoss="47.64" rerouteNo="0" devices="tripinfo_60" vType="DEFAULT_VEHTYPE" speedFactor="1.10" vaporized=""/>
    <tripinfo id="29" depart="118.00" departLane="right2D2_0" departPos="5.10" departSpeed="0.00" departDelay="0.00" arrival="389.00" arrivalLane="A3left3_0" arrivalPos="286.40" arrivalSpeed="13.03" duration="271.00" routeLength="1782.72" waitingTime="103.00" waitingCount="5" stopTime="0.00" timeLoss="139.84" rerouteNo="0" devices="tripinfo_29" vType="DEFAULT_VEHTYPE" speedFactor="0.99" vaporized=""/>
    <tripinfo id="68" depart="307.00" departLane="bottom2C0_0" departPos="5.10" departSpeed="0.00" departDelay="0.00" arrival="389.00" arrivalLane="D0bottom3_0" arrivalPos="286.40" arrivalSpeed="12.39" duration="82.00" routeLength="858.56" waitingTime="2.00" waitingCount="2" stopTime="0.00" timeLoss="16.68" rerouteNo="0" devices="tripinfo_68" vType="DEFAULT_VEHTYPE" speedFactor="0.97" vaporized=""/>
    <tripinfo id="38" depart="169.00" departLane="top3D3_0" departPos="5.10" departSpeed="0.00" departDelay="0.00" arrival="391.00" arrivalLane="A3left3_0" arrivalPos="286.40" arrivalSpeed="13.35" duration="222.00" routeLength="1479.94" waitingTime="80.00" waitingCount="4" stopTime="0.00" timeLoss="115.43" rerouteNo="0" devices="tripinfo_38" vType="DEFAULT_VEHTYPE" speedFactor="1.00" vaporized=""/>
    <tripinfo id="1" depart="9.00" departLane="left0A0_0" departPos="5.10" departSpeed="0.00" departDelay="0.00" arrival="399.00" arrivalLane="A3top0_0" arrivalPos="286.40" arrivalSpeed="13.65" duration="390.00" routeLength="1495.35" waitingTime="251.00" waitingCount="4" stopTime="0.00" timeLoss="284.44" rerouteNo="0" devices="tripinfo_1" vType="DEFAULT_VEHTYPE" speedFactor="1.03" vaporized=""/>
    <tripinfo id="64" depart="286.00" departLane="left0A0_0" departPos="5.10" departSpeed="0.00" departDelay="0.00" arrival="403.00" arrivalLane="A2left2_0" arrivalPos="286.40" arrivalSpeed="13.79" duration="117.00" routeLength="1197.66" waitingTime="19.00" waitingCount="1" stopTime="0.00" timeLoss="32.36" rerouteNo="0" devices="tripinfo_64" vType="DEFAULT_VEHTYPE" speedFactor="1.03" vaporized=""/>
    <tripinfo id="71" depart="324.00" departLane="bottom0A0_0" departPos="5.10" departSpeed="0.00" departDelay="0.00" arrival="403.00" arrivalLane="A1left1_0" arrivalPos="286.40" arrivalSpeed="13.85" duration="79.00" routeLength="897.72" waitingTime="2.00" waitingCount="1" stopTime="0.00" timeLoss="13.75" rerouteNo="0" devices="tripinfo_71" vType="DEFAULT_VEHTYPE" speedFactor="1.01" vaporized=""/>
    <tripinfo id="39" depart="173.00" departLane="top1B3_0" departPos="5.10" departSpeed="0.00" departDelay="0.00" arrival="407.00" arrivalLane="A0left0_0" arrivalPos="286.40" arrivalSpeed="15.18" duration="234.00" routeLength="1780.11" waitingTime="75.00" waitingCount="5" stopTime="0.00" timeLoss="115.83" rerouteNo="0" devices="tripinfo_39" vType="DEFAULT_VEHTYPE" speedFactor="1.10" vaporized=""/>
    <tripinfo id="50" depart="222.00" departLane="top2C3_0" departPos="5.10" departSpeed="0.00" departDelay="0.00" arrival="407.00" arrivalLane="C3top2_0" arrivalPos="286.40" arrivalSpeed="15.19" duration="185.00" routeLength="1748.75" waitingTime="37.00" waitingCount="4" stopTime="0.00" timeLoss="74.18" rerouteNo="0" devices="tripinfo_50" vType="DEFAULT_VEHTYPE" speedFactor="1.16" vaporized=""/>
    <tripinfo id="28" depart="117.00" departLane="top0A3_0" departPos="5.10" departSpeed="0.00" departDelay="0.00" arrival="408.00" arrivalLane="B0bottom1_0" arrivalPos="286.40" arrivalSpeed="13.55" duration="291.00" routeLength="1782.59" waitingTime="128.00" waitingCount="5" stopTime="0.00" timeLoss="166.60" rerouteNo="0" devices="tripinfo_28" vType="DEFAULT_VEHTYPE" speedFactor="1.04" vaporized=""/>
    <tripinfo id="36" depart="154.00" departLane="left2A2_0" departPos="5.10" departSpeed="0.00" departDelay="0.00" arrival="409.00" arrivalLane="D3top3_0" arrivalPos="286.40" arrivalSpeed="12.56" duration="255.00" routeLength="1795.52" waitingTime="100.00" waitingCount="3" stopTime="0.00" timeLoss="124.29" rerouteNo="0" devices="tripinfo_36" vType="DEFAULT_VEHTYPE" speedFactor="1.00" vaporized=""/>
    <tripinfo id="30" depart="137.00" departLane="top0A3_0" departPos="5.10" departSpeed="0.00" departDelay="0.00" arrival="411.00" arrivalLane="C0bottom2_0" arrivalPos="286.40" arrivalSpeed="12.54" duration="274.00" routeLength="2080.05" waitingTime="72.00" waitingCount="4" stopTime="0.00" timeLoss="109.28" rerouteNo="0" devices="tripinfo_30" vType="DEFAULT_VEHTYPE" speedFactor="0.92" vaporized=""/>
    <tripinfo id="33" depart="139.00" departLane="left1A1_0" departPos="5.10" departSpeed="0.00" departDelay="0.00" arrival="416.00" arrivalLane="D1right1_0" arrivalPos="286.40" arrivalSpeed="11.58" duration="277.00" routeLength="1495.58" waitingTime="134.00" waitingCount="3" stopTime="0.00" timeLoss="158.68" rerouteNo="0" devices="tripinfo_33" vType="DEFAULT_VEHTYPE" speedFactor="0.91" vaporized=""/>
    <tripinfo id="18" depart="87.00" departLane="left0A0_0" departPos="5.10" departSpeed="0.00" departDelay="0.00" arrival="418.00" arrivalLane="D3right3_0" arrivalPos="286.40" arrivalSpeed="13.56" duration="331.00" routeLength="2380.22" waitingTime="113.00" waitingCount="7" stopTime="0.00" timeLoss="166.71" rerouteNo="0" devices="tripinfo_18" vType="DEFAULT_VEHTYPE" speedFactor="1.05" vaporized=""/>
    <tripinfo id="55" depart="257.00" departLane="left3A3_0" departPos="5.10" departSpeed="0.00" departDelay="0.00" arrival="418.00" arrivalLane="C3top2_0" arrivalPos="286.40" arrivalSpeed="10.49" duration="161.00" routeLength="1197.89" waitingTime="31.00" waitingCount="2" stopTime="0.00" timeLoss="47.97" rerouteNo="0" devices="tripinfo_55" vType="DEFAULT_VEHTYPE" speedFactor="0.77" vaporized=""/>
    <tripinfo id="41" depart="176.00" departLane="right1D1_0" departPos="5.10" departSpeed="0.00" departDelay="0.00" arrival="441.00" arrivalLane="A3left3_0" arrivalPos="286.40" arrivalSpeed="14.26" duration="265.00" routeLength="2082.76" waitingTime="88.00" waitingCount="4" stopTime="0.00" timeLoss="118.46" rerouteNo="0" devices="tripinfo_41" vType="DEFAULT_VEHTYPE" speedFactor="1.03" vaporized=""/>
    <tripinfo id="56" depart="259.00" departLane="left0A0_0" departPos="5.10" departSpeed="0.00" departDelay="0.00" arrival="446.00" arrivalLane="A3left3_0" arrivalPos="286.40" arrivalSpeed="12.76" duration="187.00" routeLength="1497.83" waitingTime="52.00" waitingCount="3" stopTime="0.00" timeLoss="75.51" rerouteNo="0" devices="tripinfo_56" vType="DEFAULT_VEHTYPE" speedFactor="0.98" vaporized=""/>
    <tripinfo id="48" depart="218.00" departLane="top2C3_0" departPos="5.10" departSpeed="0.00" departDelay="0.00" arrival="452.00" arrivalLane="D0bottom3_0" arrivalPos="286.40" arrivalSpeed="11.90" duration="234.00" routeLength="1782.59" waitingTime="59.00" waitingCount="3" stopTime="0.00" timeLoss="84.27" rerouteNo="0" devices="tripinfo_48" vType="DEFAULT_VEHTYPE" speedFactor="0.87" vaporized=""/>
    <tripinfo id="27" depart="114.00" departLane="bottom1B0_0" departPos="5.10" departSpeed="0.00" departDelay="0.00" arrival="460.00" arrivalLane="A3left3_0" arrivalPos="286.40" arrivalSpeed="12.68" duration="346.00" routeLength="1795.52" waitingTime="164.00" waitingCount="6" stopTime="0.00" timeLoss="209.11" rerouteNo="0" devices="tripinfo_27" vType="DEFAULT_VEHTYPE" speedFactor="0.95" vaporized=""/>
    <tripinfo id="46" depart="211.00" departLane="bottom1B0_0" departPos="5.10" departSpeed="0.00" departDelay="0.00" arrival="466.00" arrivalLane="C3top2_0" arrivalPos="286.40" arrivalSpeed="14.86" duration="255.00" routeLength="1782.72" waitingTime="117.00" waitingCount="2" stopTime="0.00" timeLoss="142.13" rerouteNo="0" devices="tripinfo_46" vType="DEFAULT_VEHTYPE" speedFactor="1.15" vaporized=""/>
    <tripinfo id="87" depart="408.00" departLane="bottom1B0_0" departPos="5.10" departSpeed="0.00" departDelay="0.00" arrival="484.00" arrivalLane="C0bottom2_0" arrivalPos="286.40" arrivalSpeed="13.93" duration="76.00" routeLength="858.56" waitingTime="1.00" waitingCount="1" stopTime="0.00" timeLoss="13.69" rerouteNo="0" devices="tripinfo_87" vType="DEFAULT_VEHTYPE" speedFactor="1.01" vaporized=""/>
    <tripinfo id="80" depart="388.00" departLane="top1B3_0" departPos="5.10" departSpeed="0.00" departDelay="0.00" arrival="487.00" arrivalLane="C3top2_0" arrivalPos="286.40" arrivalSpeed="15.10" duration="99.00" routeLength="894.86" waitingTime="28.00" waitingCount="1" stopTime="0.00" timeLoss="39.48" rerouteNo="0" devices="tripinfo_80" vType="DEFAULT_VEHTYPE" speedFactor="1.12" vaporized=""/>
    <tripinfo id="51" depart="228.00" departLane="top0A3_0" departPos="5.10" departSpeed="0.00" departDelay="0.00" arrival="496.00" arrivalLane="A1left1_0" arrivalPos="286.40" arrivalSpeed="12.32" duration="268.00" routeLength="1177.07" waitingTime="159.00" waitingCount="2" stopTime="0.00" timeLoss="178.08" rerouteNo="0" devices="tripinfo_51" vType="DEFAULT_VEHTYPE" speedFactor="0.96" vaporized=""/>
    <tripinfo id="100" depart="452.00" departLane="top3D3_0" departPos="5.10" departSpeed="0.00" departDelay="0.00" arrival="505.00" arrivalLane="D3right3_0" arrivalPos="286.40" arrivalSpeed="11.64" duration="53.00" routeLength="597.55" waitingTime="0.00" waitingCount="0" stopTime="0.00" timeLoss="5.45" rerouteNo="0" devices="tripinfo_100" vType="DEFAULT_VEHTYPE" speedFactor="0.93" vaporized=""/>
    <tripinfo id="94" depart="430.00" departLane="right0D0_0" departPos="5.10" departSpeed="0.00" departDelay="0.00" arrival="513.00" arrivalLane="D1right1_0" arrivalPos="286.40" arrivalSpeed="12.92" duration="83.00" routeLength="858.56" waitingTime="2.00" waitingCount="2" stopTime="0.00" timeLoss="18.63" rerouteNo="0" devices="tripinfo_94" vType="DEFAULT_VEHTYPE" speedFactor="0.98" vaporized=""/>
    <tripinfo id="3" depart="27.00" departLane="right3D3_0" departPos="5.10" departSpeed="0.00" departDelay="0.00" arrival="532.00" arrivalLane="A0bottom0_0" arrivalPos="286.40" arrivalSpeed="11.15" duration="505.00" routeLength="2395.86" waitingTime="262.00" waitingCount="6" stopTime="0.00" timeLoss="308.96" rerouteNo="0" devices="tripinfo_3" vType="DEFAULT_VEHTYPE" speedFactor="0.88" vaporized=""/>
    <tripinfo id="92" depart="426.00" departLane="left1A1_0" departPos="5.10" departSpeed="0.00" departDelay="0.00" arrival="532.00" arrivalLane="A0bottom0_1" arrivalPos="286.40" arrivalSpeed="12.85" duration="106.00" routeLength="879.60" waitingTime="21.00" waitingCount="2" stopTime="0.00" timeLoss="38.53" rerouteNo="0" devices="tripinfo_92" vType="DEFAULT_VEHTYPE" speedFactor="0.95" vaporized=""/>
    <tripinfo id="61" depart="279.00" departLane="top3D3_0" departPos="5.10" departSpeed="0.00" departDelay="0.00" arrival="546.00" arrivalLane="A3left3_0" arrivalPos="286.40" arrivalSpeed="14.42" duration="267.00" routeLength="1479.94" waitingTime="144.00" waitingCount="3" stopTime="0.00" timeLoss="171.14" rerouteNo="0" devices="tripinfo_61" vType="DEFAULT_VEHTYPE" speedFactor="1.12" vaporized=""/>
    <tripinfo id="74" depart="330.00" departLane="top0A3_0" departPos="5.10" departSpeed="0.00" departDelay="0.00" arrival="547.00" arrivalLane="D3right3_0" arrivalPos="286.40" arrivalSpeed="15.07" duration="217.00" routeLength="1495.35" waitingTime="100.00" waitingCount="2" stopTime="0.00" timeLoss="121.19" rerouteNo="0" devices="tripinfo_74" vType="DEFAULT_VEHTYPE" speedFactor="1.13" vaporized=""/>
    <tripinfo id="47" depart="212.00" departLane="right3D3_0" departPos="5.10" departSpeed="0.00" departDelay="0.00" arrival="548.00" arrivalLane="B0bottom1_0" arrivalPos="286.40" arrivalSpeed="11.90" duration="336.00" routeLength="2095.69" waitingTime="129.00" waitingCount="3" stopTime="0.00" timeLoss="161.44" rerouteNo="0" devices="tripinfo_47" vType="DEFAULT_VEHTYPE" speedFactor="0.87" vaporized=""/>
    <tripinfo id="104" depart="466.00" departLane="top0A3_0" departPos="5.10" departSpeed="0.00" departDelay="0.00" arrival="549.00" arrivalLane="A2left2_0" arrivalPos="286.40" arrivalSpeed="11.84" duration="83.00" routeLength="876.90" waitingTime="1.00" waitingCount="1" stopTime="0.00" timeLoss="14.60" rerouteNo="0" devices="tripinfo_104" vType="DEFAULT_VEHTYPE" speedFactor="0.93" vaporized=""/>
    <tripinfo id="67" depart="302.00" departLane="top3D3_0" departPos="5.10" departSpeed="0.00" departDelay="0.00" arrival="550.00" arrivalLane="A3left3_0" arrivalPos="286.40" arrivalSpeed="13.72" duration="248.00" routeLength="1479.94" waitingTime="113.00" waitingCount="4" stopTime="0.00" timeLoss="144.85" rerouteNo="0" devices="tripinfo_67" vType="DEFAULT_VEHTYPE" speedFactor="1.05" vaporized=""/>