<?xml version="1.0" encoding="UTF-8"?>

<!-- generated on 2023-08-30 12:00:09 by Eclipse SUMO libsumo Version 1.18.0
<configuration xmlns:xsi="http://www.w3.org/2001/XMLSchema-instance" xsi:noNamespaceSchemaLocation="http://sumo.dlr.de/xsd/libsumoConfiguration.xsd">

    <input>
        <net-file value="/home/stefan/RESCO/./environments/grid4x4/grid4x4.net.xml"/>
        <route-files value="/home/stefan/RESCO/./environments/grid4x4/grid4x4_31.rou.xml"/>
    </input>

    <output>
        <tripinfo-output value="/home/stefan/results/ITRPO-tr0-grid4x4-0-drq_norm-wait_norm/tripinfo_31.xml"/>
        <tripinfo-output.write-unfinished value="true"/>
    </output>

    <processing>
        <time-to-teleport value="-1"/>
    </processing>

    <report>
        <no-warnings value="True"/>
        <no-step-log value="True"/>
    </report>

    <random_number>
        <random value="true"/>
    </random_number>

</configuration>
-->

<tripinfos xmlns:xsi="http://www.w3.org/2001/XMLSchema-instance" xsi:noNamespaceSchemaLocation="http://sumo.dlr.de/xsd/tripinfo_file.xsd">
    <tripinfo id="1" depart="14.00" departLane="left0A0_0" departPos="5.10" departSpeed="0.00" departDelay="0.00" arrival="87.00" arrivalLane="B0bottom1_0" arrivalPos="286.40" arrivalSpeed="13.85" duration="73.00" routeLength="876.90" waitingTime="0.00" waitingCount="0" stopTime="0.00" timeLoss="10.93" rerouteNo="0" devices="tripinfo_1" vType="DEFAULT_VEHTYPE" speedFactor="1.03" vaporized=""/>
    <tripinfo id="0" depart="7.00" departLane="top0A3_0" departPos="5.10" departSpeed="0.00" departDelay="0.00" arrival="112.00" arrivalLane="B3top1_0" arrivalPos="286.40" arrivalSpeed="13.08" duration="105.00" routeLength="894.86" waitingTime="28.00" waitingCount="1" stopTime="0.00" timeLoss="41.21" rerouteNo="0" devices="tripinfo_0" vType="DEFAULT_VEHTYPE" speedFactor="1.03" vaporized=""/>
    <tripinfo id="7" depart="52.00" departLane="bottom1B0_0" departPos="5.10" departSpeed="0.00" departDelay="0.00" arrival="142.00" arrivalLane="A0bottom0_0" arrivalPos="286.40" arrivalSpeed="11.63" duration="90.00" routeLength="894.86" waitingTime="2.00" waitingCount="1" stopTime="0.00" timeLoss="17.31" rerouteNo="0" devices="tripinfo_7" vType="DEFAULT_VEHTYPE" speedFactor="0.90" vaporized=""/>
    <tripinfo id="5" depart="47.00" departLane="top2C3_0" departPos="5.10" departSpeed="0.00" departDelay="0.00" arrival="160.00" arrivalLane="A3top0_0" arrivalPos="286.40" arrivalSpeed="11.80" duration="113.00" routeLength="1161.43" waitingTime="1.00" waitingCount="1" stopTime="0.00" timeLoss="17.06" rerouteNo="0" devices="tripinfo_5" vType="DEFAULT_VEHTYPE" speedFactor="0.89" vaporized=""/>
    <tripinfo id="15" depart="101.00" departLane="top1B3_0" departPos="5.10" departSpeed="0.00" departDelay="0.00" arrival="177.00" arrivalLane="A3top0_0" arrivalPos="286.40" arrivalSpeed="13.85" duration="76.00" routeLength="858.56" waitingTime="0.00" waitingCount="0" stopTime="0.00" timeLoss="12.84" rerouteNo="0" devices="tripinfo_15" vType="DEFAULT_VEHTYPE" speedFactor="1.00" vaporized=""/>
    <tripinfo id="11" depart="67.00" departLane="top1B3_0" departPos="5.10" departSpeed="0.00" departDelay="0.00" arrival="184.00" arrivalLane="A1left1_0" arrivalPos="286.40" arrivalSpeed="15.24" duration="117.00" routeLength="1479.94" waitingTime="3.00" waitingCount="2" stopTime="0.00" timeLoss="23.44" rerouteNo="0" devices="tripinfo_11" vType="DEFAULT_VEHTYPE" speedFactor="1.15" vaporized=""/>
    <tripinfo id="24" depart="148.00" departLane="left0A0_0" departPos="5.10" departSpeed="0.00" departDelay="0.00" arrival="202.00" arrivalLane="A0bottom0_0" arrivalPos="286.40" arrivalSpeed="13.04" duration="54.00" routeLength="576.73" waitingTime="1.00" waitingCount="1" stopTime="0.00" timeLoss="9.42" rerouteNo="0" devices="tripinfo_24" vType="DEFAULT_VEHTYPE" speedFactor="0.95" vaporized=""/>
    <tripinfo id="22" depart="144.00" departLane="top3D3_0" departPos="5.10" departSpeed="0.00" departDelay="0.00" arrival="227.00" arrivalLane="D2right2_0" arrivalPos="286.40" arrivalSpeed="14.44" duration="83.00" routeLength="897.72" waitingTime="13.00" waitingCount="1" stopTime="0.00" timeLoss="23.92" rerouteNo="0" devices="tripinfo_22" vType="DEFAULT_VEHTYPE" speedFactor="1.11" vaporized=""/>
    <tripinfo id="9" depart="61.00" departLane="top1B3_0" departPos="5.10" departSpeed="0.00" departDelay="0.00" arrival="237.00" arrivalLane="D0bottom3_0" arrivalPos="286.40" arrivalSpeed="13.79" duration="176.00" routeLength="2080.05" waitingTime="5.00" waitingCount="2" stopTime="0.00" timeLoss="30.01" rerouteNo="0" devices="tripinfo_9" vType="DEFAULT_VEHTYPE" speedFactor="1.03" vaporized=""/>
    <tripinfo id="16" depart="108.00" departLane="left0A0_0" departPos="5.10" departSpeed="0.00" departDelay="0.00" arrival="264.00" arrivalLane="C0bottom2_0" arrivalPos="286.40" arrivalSpeed="13.66" duration="156.00" routeLength="1177.07" waitingTime="52.00" waitingCount="3" stopTime="0.00" timeLoss="76.04" rerouteNo="0" devices="tripinfo_16" vType="DEFAULT_VEHTYPE" speedFactor="1.08" vaporized=""/>
    <tripinfo id="6" depart="51.00" departLane="bottom0A0_0" departPos="5.10" departSpeed="0.00" departDelay="0.00" arrival="277.00" arrivalLane="B3top1_0" arrivalPos="286.40" arrivalSpeed="15.28" duration="226.00" routeLength="1782.72" waitingTime="81.00" waitingCount="3" stopTime="0.00" timeLoss="112.63" rerouteNo="0" devices="tripinfo_6" vType="DEFAULT_VEHTYPE" speedFactor="1.15" vaporized=""/>
    <tripinfo id="18" depart="120.00" departLane="left1A1_0" departPos="5.10" departSpeed="0.00" departDelay="0.00" arrival="284.00" arrivalLane="B3top1_0" arrivalPos="286.40" arrivalSpeed="12.48" duration="164.00" routeLength="1495.35" waitingTime="21.00" waitingCount="2" stopTime="0.00" timeLoss="43.96" rerouteNo="0" devices="tripinfo_18" vType="DEFAULT_VEHTYPE" speedFactor="0.91" vaporized=""/>
    <tripinfo id="35" depart="196.00" departLane="top2C3_0" departPos="5.10" departSpeed="0.00" departDelay="0.00" arrival="288.00" arrivalLane="B3top1_0" arrivalPos="286.40" arrivalSpeed="11.19" duration="92.00" routeLength="858.56" waitingTime="3.00" waitingCount="2" stopTime="0.00" timeLoss="20.30" rerouteNo="0" devices="tripinfo_35" vType="DEFAULT_VEHTYPE" speedFactor="0.88" vaporized=""/>
    <tripinfo id="19" depart="126.00" departLane="right1D1_0" departPos="5.10" departSpeed="0.00" departDelay="0.00" arrival="291.00" arrivalLane="D3top3_0" arrivalPos="286.40" arrivalSpeed="11.97" duration="165.00" routeLength="1179.77" waitingTime="55.00" waitingCount="2" stopTime="0.00" timeLoss="74.97" rerouteNo="0" devices="tripinfo_19" vType="DEFAULT_VEHTYPE" speedFactor="0.95" vaporized=""/>
    <tripinfo id="4" depart="35.00" departLane="top3D3_0" departPos="5.10" departSpeed="0.00" departDelay="0.00" arrival="300.00" arrivalLane="A3left3_0" arrivalPos="286.40" arrivalSpeed="13.07" duration="265.00" routeLength="1479.94" waitingTime="124.00" waitingCount="4" stopTime="0.00" timeLoss="153.82" rerouteNo="0" devices="tripinfo_4" vType="DEFAULT_VEHTYPE" speedFactor="0.97" vaporized=""/>
    <tripinfo id="39" depart="219.00" departLane="left3A3_0" departPos="5.10" departSpeed="0.00" departDelay="0.00" arrival="304.00" arrivalLane="A2left2_0" arrivalPos="286.40" arrivalSpeed="12.04" duration="85.00" routeLength="858.56" waitingTime="1.00" waitingCount="1" stopTime="0.00" timeLoss="13.51" rerouteNo="0" devices="tripinfo_39" vType="DEFAULT_VEHTYPE" speedFactor="0.89" vaporized=""/>
    <tripinfo id="12" depart="81.00" departLane="top3D3_0" departPos="5.10" departSpeed="0.00" departDelay="0.00" arrival="315.00" arrivalLane="A2left2_0" arrivalPos="286.40" arrivalSpeed="17.17" duration="234.00" routeLength="1780.11" waitingTime="90.00" waitingCount="3" stopTime="0.00" timeLoss="132.03" rerouteNo="0" devices="tripinfo_12" vType="DEFAULT_VEHTYPE" speedFactor="1.27" vaporized=""/>
    <tripinfo id="13" depart="92.00" departLane="top2C3_0" departPos="5.10" departSpeed="0.00" departDelay="0.00" arrival="317.00" arrivalLane="D0bottom3_0" arrivalPos="286.40" arrivalSpeed="15.50" duration="225.00" routeLength="1782.59" waitingTime="72.00" waitingCount="4" stopTime="0.00" timeLoss="109.55" rerouteNo="0" devices="tripinfo_13" vType="DEFAULT_VEHTYPE" speedFactor="1.12" vaporized=""/>
    <tripinfo id="26" depart="155.00" departLane="right2D2_0" departPos="5.10" departSpeed="0.00" departDelay="0.00" arrival="318.00" arrivalLane="D0right0_0" arrivalPos="286.40" arrivalSpeed="14.69" duration="163.00" routeLength="1197.66" waitingTime="64.00" waitingCount="2" stopTime="0.00" timeLoss="81.53" rerouteNo="0" devices="tripinfo_26" vType="DEFAULT_VEHTYPE" speedFactor="1.08" vaporized=""/>
    <tripinfo id="14" depart="97.00" departLane="bottom1B0_0" departPos="5.10" departSpeed="0.00" departDelay="0.00" arrival="322.00" arrivalLane="D3top3_0" arrivalPos="286.40" arrivalSpeed="13.57" duration="225.00" routeLength="2082.76" waitingTime="48.00" waitingCount="3" stopTime="0.00" timeLoss="76.26" rerouteNo="0" devices="tripinfo_14" vType="DEFAULT_VEHTYPE" speedFactor="1.02" vaporized=""/>
    <tripinfo id="23" depart="144.00" departLane="right3D3_0" departPos="5.10" departSpeed="0.00" departDelay="0.00" arrival="328.00" arrivalLane="C0bottom2_0" arrivalPos="286.40" arrivalSpeed="14.77" duration="184.00" routeLength="1795.52" waitingTime="41.00" waitingCount="3" stopTime="0.00" timeLoss="65.75" rerouteNo="0" devices="tripinfo_23" vType="DEFAULT_VEHTYPE" speedFactor="1.10" vaporized=""/>
    <tripinfo id="10" depart="67.00" departLane="top2C3_0" departPos="5.10" departSpeed="0.00" departDelay="0.00" arrival="329.00" arrivalLane="A0left0_0" arrivalPos="286.40" arrivalSpeed="12.99" duration="262.00" routeLength="2080.28" waitingTime="74.00" waitingCount="5" stopTime="0.00" timeLoss="113.57" rerouteNo="0" devices="tripinfo_10" vType="DEFAULT_VEHTYPE" speedFactor="1.02" vaporized=""/>
    <tripinfo id="46" depart="239.00" departLane="bottom0A0_0" departPos="5.10" departSpeed="0.00" departDelay="0.00" arrival="334.00" arrivalLane="B0bottom1_0" arrivalPos="286.40" arrivalSpeed="11.46" duration="95.00" routeLength="858.56" waitingTime="1.00" waitingCount="1" stopTime="0.00" timeLoss="20.42" rerouteNo="0" devices="tripinfo_46" vType="DEFAULT_VEHTYPE" speedFactor="0.85" vaporized=""/>
    <tripinfo id="49" depart="254.00" departLane="bottom2C0_0" departPos="5.10" departSpeed="0.00" departDelay="0.00" arrival="340.00" arrivalLane="D0right0_0" arrivalPos="286.40" arrivalSpeed="11.09" duration="86.00" routeLength="879.60" waitingTime="1.00" waitingCount="1" stopTime="0.00" timeLoss="12.89" rerouteNo="0" devices="tripinfo_49" vType="DEFAULT_VEHTYPE" speedFactor="0.88" vaporized=""/>
    <tripinfo id="20" depart="133.00" departLane="right1D1_0" departPos="5.10" departSpeed="0.00" departDelay="0.00" arrival="350.00" arrivalLane="B0bottom1_0" arrivalPos="286.40" arrivalSpeed="12.47" duration="217.00" routeLength="1495.35" waitingTime="80.00" waitingCount="3" stopTime="0.00" timeLoss="103.76" rerouteNo="0" devices="tripinfo_20" vType="DEFAULT_VEHTYPE" speedFactor="0.96" vaporized=""/>
    <tripinfo id="38" depart="214.00" departLane="left2A2_0" departPos="5.10" departSpeed="0.00" departDelay="0.00" arrival="369.00" arrivalLane="A0bottom0_0" arrivalPos="286.40" arrivalSpeed="12.84" duration="155.00" routeLength="1179.77" waitingTime="47.00" waitingCount="3" stopTime="0.00" timeLoss="69.55" rerouteNo="0" devices="tripinfo_38" vType="DEFAULT_VEHTYPE" speedFactor="1.01" vaporized=""/>
    <tripinfo id="42" depart="227.00" departLane="right2D2_0" departPos="5.10" departSpeed="0.00" departDelay="0.00" arrival="371.00" arrivalLane="D3top3_0" arrivalPos="286.40" arrivalSpeed="12.33" duration="144.00" routeLength="879.60" waitingTime="59.00" waitingCount="2" stopTime="0.00" timeLoss="74.34" rerouteNo="0" devices="tripinfo_42" vType="DEFAULT_VEHTYPE" speedFactor="0.92" vaporized=""/>
    <tripinfo id="8" depart="54.00" departLane="right2D2_0" departPos="5.10" departSpeed="0.00" departDelay="0.00" arrival="373.00" arrivalLane="A0bottom0_0" arrivalPos="286.40" arrivalSpeed="11.72" duration="319.00" routeLength="2095.69" waitingTime="111.00" waitingCount="5" stopTime="0.00" timeLoss="151.26" rerouteNo="0" devices="tripinfo_8" vType="DEFAULT_VEHTYPE" speedFactor="0.90" vaporized=""/>
    <tripinfo id="28" depart="163.00" departLane="top1B3_0" departPos="5.10" departSpeed="0.00" departDelay="0.00" arrival="373.00" arrivalLane="A0bottom0_1" arrivalPos="286.40" arrivalSpeed="13.32" duration="210.00" routeLength="1782.72" waitingTime="45.00" waitingCount="4" stopTime="0.00" timeLoss="82.21" rerouteNo="0" devices="tripinfo_28" vType="DEFAULT_VEHTYPE" speedFactor="1.02" vaporized=""/>
    <tripinfo id="52" depart="276.00" departLane="right0D0_0" departPos="5.10" departSpeed="0.00" departDelay="0.00" arrival="395.00" arrivalLane="D2right2_0" arrivalPos="286.40" arrivalSpeed="13.69" duration="119.00" routeLength="1161.43" waitingTime="14.00" waitingCount="3" stopTime="0.00" timeLoss="37.72" rerouteNo="0" devices="tripinfo_52" vType="DEFAULT_VEHTYPE" speedFactor="1.05" vaporized=""/>
    <tripinfo id="33" depart="186.00" departLane="right2D2_0" departPos="5.10" departSpeed="0.00" departDelay="0.00" arrival="402.00" arrivalLane="A2left2_0" arrivalPos="286.40" arrivalSpeed="13.46" duration="216.00" routeLength="1495.58" waitingTime="83.00" waitingCount="3" stopTime="0.00" timeLoss="107.97" rerouteNo="0" devices="tripinfo_33" vType="DEFAULT_VEHTYPE" speedFactor="1.00" vaporized=""/>
    <tripinfo id="34" depart="195.00" departLane="top1B3_0" departPos="5.10" departSpeed="0.00" departDelay="0.00" arrival="403.00" arrivalLane="A0bottom0_0" arrivalPos="286.40" arrivalSpeed="10.94" duration="208.00" routeLength="1782.72" waitingTime="27.00" waitingCount="3" stopTime="0.00" timeLoss="58.82" rerouteNo="0" devices="tripinfo_34" vType="DEFAULT_VEHTYPE" speedFactor="0.87" vaporized=""/>
    <tripinfo id="36" depart="197.00" departLane="right3D3_0" departPos="5.10" departSpeed="0.00" departDelay="0.00" arrival="407.00" arrivalLane="D3right3_0" arrivalPos="286.40" arrivalSpeed="14.15" duration="210.00" routeLength="1745.91" waitingTime="58.00" waitingCount="3" stopTime="0.00" timeLoss="90.85" rerouteNo="0" devices="tripinfo_36" vType="DEFAULT_VEHTYPE" speedFactor="1.07" vaporized=""/>
    <tripinfo id="45" depart="239.00" departLane="top0A3_0" departPos="5.10" departSpeed="0.00" departDelay="0.00" arrival="407.00" arrivalLane="A2left2_0" arrivalPos="286.40" arrivalSpeed="11.85" duration="168.00" routeLength="876.90" waitingTime="83.00" waitingCount="2" stopTime="0.00" timeLoss="99.20" rerouteNo="0" devices="tripinfo_45" vType="DEFAULT_VEHTYPE" speedFactor="0.93" vaporized=""/>
    <tripinfo id="17" depart="111.00" departLane="left0A0_0" departPos="5.10" departSpeed="0.00" departDelay="2.00" arrival="410.00" arrivalLane="D3right3_0" arrivalPos="286.40" arrivalSpeed="13.62" duration="299.00" routeLength="2380.22" waitingTime="92.00" waitingCount="5" stopTime="0.00" timeLoss="130.79" rerouteNo="0" devices="tripinfo_17" vType="DEFAULT_VEHTYPE" speedFactor="1.03" vaporized=""/>
    <tripinfo id="25" depart="151.00" departLane="left0A0_0" departPos="5.10" departSpeed="0.00" departDelay="3.00" arrival="411.00" arrivalLane="B3top1_0" arrivalPos="286.40" arrivalSpeed="13.02" duration="260.00" routeLength="1795.52" waitingTime="94.00" waitingCount="3" stopTime="0.00" timeLoss="121.82" rerouteNo="0" devices="tripinfo_25" vType="DEFAULT_VEHTYPE" speedFactor="0.94" vaporized=""/>
    <tripinfo id="51" depart="276.00" departLane="right3D3_0" departPos="5.10" departSpeed="0.00" departDelay="0.00" arrival="420.00" arrivalLane="D0right0_0" arrivalPos="286.40" arrivalSpeed="14.25" duration="144.00" routeLength="1497.83" waitingTime="24.00" waitingCount="2" stopTime="0.00" timeLoss="42.57" rerouteNo="0" devices="tripinfo_51" vType="DEFAULT_VEHTYPE" speedFactor="1.08" vaporized=""/>
    <tripinfo id="44" depart="238.00" departLane="right2D2_0" departPos="5.10" departSpeed="0.00" departDelay="0.00" arrival="431.00" arrivalLane="C0bottom2_0" arrivalPos="286.40" arrivalSpeed="13.08" duration="193.00" routeLength="1495.35" waitingTime="63.00" waitingCount="3" stopTime="0.00" timeLoss="87.49" rerouteNo="0" devices="tripinfo_44" vType="DEFAULT_VEHTYPE" speedFactor="1.03" vaporized=""/>
    <tripinfo id="47" depart="239.00" departLane="left3A3_0" departPos="5.10" departSpeed="0.00" departDelay="0.00" arrival="433.00" arrivalLane="A3left3_0" arrivalPos="286.40" arrivalSpeed="11.56" duration="194.00" routeLength="1748.75" waitingTime="18.00" waitingCount="3" stopTime="0.00" timeLoss="44.56" rerouteNo="0" devices="tripinfo_47" vType="DEFAULT_VEHTYPE" speedFactor="0.86" vaporized=""/>
    <tripinfo id="43" depart="234.00" departLane="left1A1_0" departPos="5.10" departSpeed="0.00" departDelay="0.00" arrival="436.00" arrivalLane="D0right0_0" arrivalPos="286.40" arrivalSpeed="15.47" duration="202.00" routeLength="1782.72" waitingTime="63.00" waitingCount="3" stopTime="0.00" timeLoss="93.52" rerouteNo="0" devices="tripinfo_43" vType="DEFAULT_VEHTYPE" speedFactor="1.20" vaporized=""/>
    <tripinfo id="50" depart="255.00" departLane="top3D3_0" departPos="5.10" departSpeed="0.00" departDelay="0.00" arrival="449.00" arrivalLane="D0bottom3_0" arrivalPos="286.40" arrivalSpeed="13.48" duration="194.00" routeLength="1495.58" waitingTime="63.00" waitingCount="2" stopTime="0.00" timeLoss="87.28" rerouteNo="0" devices="tripinfo_50" vType="DEFAULT_VEHTYPE" speedFactor="1.02" vaporized=""/>
    <tripinfo id="3" depart="31.00" departLane="bottom2C0_0" departPos="5.10" departSpeed="0.00" departDelay="0.00" arrival="462.00" arrivalLane="A3top0_0" arrivalPos="286.40" arrivalSpeed="11.30" duration="431.00" routeLength="2080.05" waitingTime="218.00" waitingCount="6" stopTime="0.00" timeLoss="262.66" rerouteNo="0" devices="tripinfo_3" vType="DEFAULT_VEHTYPE" speedFactor="0.90" vaporized=""/>
    <tripinfo id="53" depart="289.00" departLane="bottom3D0_0" departPos="5.10" departSpeed="0.00" departDelay="0.00" arrival="471.00" arrivalLane="A0left0_0" arrivalPos="286.40" arrivalSpeed="12.57" duration="182.00" routeLength="1495.35" waitingTime="46.00" waitingCount="2" stopTime="0.00" timeLoss="65.36" rerouteNo="0" devices="tripinfo_53" vType="DEFAULT_VEHTYPE" speedFactor="0.93" vaporized=""/>
    <tripinfo id="80" depart="401.00" departLane="top0A3_0" departPos="5.10" departSpeed="0.00" departDelay="0.00" arrival="475.00" arrivalLane="B3top1_0" arrivalPos="286.40" arrivalSpeed="13.83" duration="74.00" routeLength="894.86" waitingTime="0.00" waitingCount="0" stopTime="0.00" timeLoss="7.86" rerouteNo="0" devices="tripinfo_80" vType="DEFAULT_VEHTYPE" speedFactor="1.00" vaporized=""/>
    <tripinfo id="40" depart="220.00" departLane="bottom1B0_0" departPos="5.10" departSpeed="0.00" departDelay="0.00" arrival="477.00" arrivalLane="D3right3_0" arrivalPos="286.40" arrivalSpeed="14.80" duration="257.00" routeLength="2080.28" waitingTime="83.00" waitingCount="4" stopTime="0.00" timeLoss="115.48" rerouteNo="0" devices="tripinfo_40" vType="DEFAULT_VEHTYPE" speedFactor="1.07" vaporized=""/>
    <tripinfo id="32" depart="185.00" departLane="top0A3_0" departPos="5.10" departSpeed="0.00" departDelay="0.00" arrival="479.00" arrivalLane="D0bottom3_0" arrivalPos="286.40" arrivalSpeed="13.49" duration="294.00" routeLength="2380.22" waitingTime="82.00" waitingCount="4" stopTime="0.00" timeLoss="118.34" rerouteNo="0" devices="tripinfo_32" vType="DEFAULT_VEHTYPE" speedFactor="0.98" vaporized=""/>
    <tripinfo id="70" depart="371.00" departLane="left1A1_0" departPos="5.10" departSpeed="0.00" departDelay="0.00" arrival="488.00" arrivalLane="A0bottom0_0" arrivalPos="286.40" arrivalSpeed="13.42" duration="117.00" routeLength="879.60" waitingTime="37.00" waitingCount="2" stopTime="0.00" timeLoss="54.69" rerouteNo="0" devices="tripinfo_70" vType="DEFAULT_VEHTYPE" speedFactor="1.04" vaporized=""/>
    <tripinfo id="69" depart="369.00" departLane="left2A2_0" departPos="5.10" departSpeed="0.00" departDelay="0.00" arrival="490.00" arrivalLane="A0bottom0_0" arrivalPos="286.40" arrivalSpeed="14.62" duration="121.00" routeLength="1179.77" waitingTime="22.00" waitingCount="2" stopTime="0.00" timeLoss="41.06" rerouteNo="0" devices="tripinfo_69" vType="DEFAULT_VEHTYPE" speedFactor="1.08" vaporized=""/>
    <tripinfo id="21" depart="137.00" departLane="bottom3D0_0" departPos="5.10" departSpeed="0.00" departDelay="0.00" arrival="497.00" arrivalLane="B3top1_0" arrivalPos="286.40" arrivalSpeed="13.97" duration="360.00" routeLength="2080.05" waitingTime="183.00" waitingCount="5" stopTime="0.00" timeLoss="222.36" rerouteNo="0" devices="tripinfo_21" vType="DEFAULT_VEHTYPE" speedFactor="1.10" vaporized=""/>
    <tripinfo id="75" depart="386.00" departLane="left0A0_0" departPos="5.10" departSpeed="0.00" departDelay="0.00" arrival="498.00" arrivalLane="A2left2_0" arrivalPos="286.40" arrivalSpeed="13.96" duration="112.00" routeLength="1197.66" waitingTime="5.00" waitingCount="2" stopTime="0.00" timeLoss="28.79" rerouteNo="0" devices="tripinfo_75" vType="DEFAULT_VEHTYPE" speedFactor="1.05" vaporized=""/>
    <tripinfo id="68" depart="366.00" departLane="right0D0_0" departPos="5.10" departSpeed="0.00" departDelay="0.00" arrival="502.00" arrivalLane="D3right3_0" arrivalPos="286.40" arrivalSpeed="14.47" duration="136.00" routeLength="1461.60" waitingTime="14.00" waitingCount="2" stopTime="0.00" timeLoss="36.42" rerouteNo="0" devices="tripinfo_68" vType="DEFAULT_VEHTYPE" speedFactor="1.08" vaporized=""/>
    <tripinfo id="60" depart="315.00" departLane="right1D1_0" departPos="5.10" departSpeed="0.00" departDelay="0.00" arrival="511.00" arrivalLane="B0bottom1_0" arrivalPos="286.40" arrivalSpeed="11.53" duration="196.00" routeLength="1495.35" waitingTime="42.00" waitingCount="3" stopTime="0.00" timeLoss="69.98" rerouteNo="0" devices="tripinfo_60" vType="DEFAULT_VEHTYPE" speedFactor="0.86" vaporized=""/>
    <tripinfo id="81" depart="404.00" departLane="top0A3_0" departPos="5.10" departSpeed="0.00" departDelay="1.00" arrival="517.00" arrivalLane="B3top1_0" arrivalPos="286.40" arrivalSpeed="15.08" duration="113.00" routeLength="894.86" waitingTime="39.00" waitingCount="1" stopTime="0.00" timeLoss="55.61" rerouteNo="0" devices="tripinfo_81" vType="DEFAULT_VEHTYPE" speedFactor="1.15" vaporized=""/>
    <tripinfo id="66" depart="364.00" departLane="right3D3_0" departPos="5.10" departSpeed="0.00" departDelay="0.00" arrival="530.00" arrivalLane="D1right1_0" arrivalPos="286.40" arrivalSpeed="13.31" duration="166.00" routeLength="1197.66" waitingTime="54.00" waitingCount="3" stopTime="0.00" timeLoss="75.56" rerouteNo="0" devices="tripinfo_66" vType="DEFAULT_VEHTYPE" speedFactor="0.97" vaporized=""/>
    <tripinfo id="63" depart="343.00" departLane="left0A0_0" departPos="5.10" departSpeed="0.00" departDelay="0.00" arrival="531.00" arrivalLane="C0bottom2_0" arrivalPos="286.40" arrivalSpeed="11.65" duration="188.00" routeLength="1177.07" waitingTime="70.00" waitingCount="2" stopTime="0.00" timeLoss="90.69" rerouteNo="0" devices="tripinfo_63" vType="DEFAULT_VEHTYPE" speedFactor="0.89" vaporized=""/>
    <tripinfo id="29" depart="165.00" departLane="right0D0_0" departPos="5.10" departSpeed="0.00" departDelay="0.00" arrival="532.00" arrivalLane="A3top0_1" arrivalPos="286.40" arrivalSpeed="13.36" duration="367.00" routeLength="2380.45" waitingTime="133.00" waitingCount="6" stopTime="0.00" timeLoss="191.10" rerouteNo="0" devices="tripinfo_29" vType="DEFAULT_VEHTYPE" speedFactor="0.98" vaporized=""/>
    <tripinfo id="77" depart="396.00" departLane="left2A2_0" departPos="5.10" departSpeed="0.00" departDelay="0.00" arrival="535.00" arrivalLane="A3top0_0" arrivalPos="286.40" arrivalSpeed="9.97" duration="139.00" routeLength="895.01" waitingTime="40.00" waitingCount="2" stopTime="0.00" timeLoss="56.95" rerouteNo="0" devices="tripinfo_77" vType="DEFAULT_VEHTYPE" speedFactor="0.80" vaporized=""/>
    <tripinfo id="76" depart="386.00" departLane="bottom2C0_0" departPos="5.10" departSpeed="0.00" departDelay="0.00" arrival="536.00" arrivalLane="A2left2_0" arrivalPos="286.40" arrivalSpeed="16.18" duration="150.00" routeLength="1795.52" waitingTime="15.00" waitingCount="3" stopTime="0.00" timeLoss="43.37" rerouteNo="0" devices="tripinfo_76" vType="DEFAULT_VEHTYPE" speedFactor="1.22" vaporized=""/>
    <tripinfo id="54" depart="299.00" departLane="left1A1_0" departPos="5.10" departSpeed="0.00" departDelay="0.00" arrival="539.00" arrivalLane="D2right2_0" arrivalPos="286.40" arrivalSpeed="13.50" duration="240.00" routeLength="1782.59" waitingTime="73.00" waitingCount="5" stopTime="0.00" timeLoss="113.35" rerouteNo="0" devices="tripinfo_54" vType="DEFAULT_VEHTYPE" speedFactor="1.03" vaporized=""/>
    <tripinfo id="58" depart="313.00" departLane="left3A3_0" departPos="5.10" departSpeed="0.00" departDelay="0.00" arrival="542.00" arrivalLane="A3left3_0" arrivalPos="286.40" arrivalSpeed="11.37" duration="229.00" routeLength="1748.75" waitingTime="50.00" waitingCount="5" stopTime="0.00" timeLoss="86.38" rerouteNo="0" devices="tripinfo_58" vType="DEFAULT_VEHTYPE" speedFactor="0.90" vaporized=""/>
    <tripinfo id="48" depart="251.00" departLane="left2A2_0" departPos="5.10" departSpeed="0.00" departDelay="0.00" arrival="544.00" arrivalLane="A3left3_0" arrivalPos="286.40" arrivalSpeed="12.80" duration="293.00" routeLength="894.86" waitingTime="207.00" waitingCount="2" stopTime="0.00" timeLoss="221.34" rerouteNo="0" devices="tripinfo_48" vType="DEFAULT_VEHTYPE" speedFactor="0.92" vaporized=""/>
    <tripinfo id="64" depart="347.00" departLane="left2A2_0" departPos="5.10" departSpeed="0.00" departDelay="0.00" arrival="545.00" arrivalLane="A3left3_1" arrivalPos="286.40" arrivalSpeed="12.08" duration="198.00" routeLength="894.86" waitingTime="111.00" waitingCount="2" stopTime="0.00" timeLoss="128.95" rerouteNo="0" devices="tripinfo_64" vType="DEFAULT_VEHTYPE" speedFactor="0.95" vaporized=""/>
    <tripinfo id="78" depart="397.00" departLane="right0D0_0" departPos="5.10" departSpeed="0.00" departDelay="0.00" arrival="545.00" arrivalLane="D3right3_0" arrivalPos="286.40" arrivalSpeed="14.65" duration="148.00" routeLength="1461.60" waitingTime="27.00" waitingCount="2" stopTime="0.00" timeLoss="47.27" rerouteNo="0" devices="tripinfo_78" vType="DEFAULT_VEHTYPE" speedFactor="1.06" vaporized=""/>
    <tripinfo id="62" depart="319.00" departLane="top2C3_0" departPos="5.10" departSpeed="0.00" departDelay="0.00" arrival="547.00" arrivalLane="C0bottom2_0" arrivalPos="286.40" arrivalSpeed="14.84" duration="228.00" routeLength="1495.58" waitingTime="99.00" waitingCount="4" stopTime="0.00" timeLoss="132.97" rerouteNo="0" devices="tripinfo_62" vType="DEFAULT_VEHTYPE" speedFactor="1.14" vaporized=""/>
    <tripinfo id="41" depart="221.00" departLane="right1D1_0" departPos="5.10" departSpeed="0.00" departDelay="0.00" arrival="552.00" arrivalLane="A0bottom0_0" arrivalPos="286.40" arrivalSpeed="11.86" duration="331.00" routeLength="1795.52" waitingTime="153.00" waitingCount="4" stopTime="0.00" timeLoss="186.31" rerouteNo="0" devices="tripinfo_41" vType="DEFAULT_VEHTYPE" speedFactor="0.90" vaporized=""/>
    <tripinfo id="98" depart="470.00" departLane="bottom2C0_0" departPos="5.10" departSpeed="0.00" departDelay="0.00" arrival="552.00" arrivalLane="D0right0_0" arrivalPos="286.40" arrivalSpeed="12.00" duration="82.00" routeLength="879.60" waitingTime="1.00" waitingCount="1" stopTime="0.00" timeLoss="12.80" rerouteNo="0" devices="tripinfo_98" vType="DEFAULT_VEHTYPE" speedFactor="0.93" vaporized=""/>
    <tripinfo id="61" depart="316.00" departLane="left3A3_0" departPos="5.10" departSpeed="0.00" departDelay="0.00" arrival="558.00" arrivalLane="C3top2_0" arrivalPos="286.40" arrivalSpeed="14.03" duration="242.00" routeLength="1197.89" waitingTime="133.00" waitingCount="3" stopTime="0.00" timeLoss="159.73" rerouteNo="0" devices="tripinfo_61" vType="DEFAULT_VEHTYPE" speedFactor="1.06" vaporized=""/>
    <tripinfo id="59" depart="314.00" departLane="bottom0A0_0" departPos="5.10" departSpeed="0.00" departDelay="0.00" arrival="561.00" arrivalLane="C3top2_1" arrivalPos="286.40" arrivalSpeed="14.88" duration="247.00" routeLength="2082.76" waitingTime="70.00" waitingCount="4" stopTime="0.00" timeLoss="111.53" rerouteNo="0" devices="tripinfo_59" vType="DEFAULT_VEHTYPE" speedFactor="1.12" vaporized=""/>
    <tripinfo id="84" depart="419.00" departLane="top1B3_0" departPos="5.10" departSpeed="0.00" departDelay="0.00" arrival="562.00" arrivalLane="C3top2_0" arrivalPos="286.40" arrivalSpeed="13.64" duration="143.00" routeLength="894.86" waitingTime="60.00" waitingCount="2" stopTime="0.00" timeLoss="76.75" rerouteNo="0" devices="tripinfo_84" vType="DEFAULT_VEHTYPE" speedFactor="1.00" vaporized=""/>
    <tripinfo id="71" depart="371.00" departLane="right2D2_0" departPos="5.10" departSpeed="0.00" departDelay="0.00" arrival="567.00" arrivalLane="A1left1_0" arrivalPos="286.40" arrivalSpeed="14.17" duration="196.00" routeLength="1782.59" waitingTime="43.00" waitingCount="5" stopTime="0.00" timeLoss="78.77" rerouteNo="0" devices="tripinfo_71" vType="DEFAULT_VEHTYPE" speedFactor="1.11" vaporized=""/>
    <tripinfo id="30" depart="170.00" departLane="right2D2_0" departPos="5.10" departSpeed="0.00" departDelay="0.00" arrival="578.00" arrivalLane="C3top2_0" arrivalPos="286.40" arrivalSpeed="14.95" duration="408.00" routeLength="1179.77" waitingTime="311.00" waitingCount="2" stopTime="0.00" timeLoss="328.50" rerouteNo="0" devices="tripinfo_30" vType="DEFAULT_VEHTYPE" speedFactor="1.08" vaporized=""/>