<?xml version="1.0" encoding="UTF-8"?>

<!-- generated on 2023-08-30 12:02:21 by Eclipse SUMO libsumo Version 1.18.0
<configuration xmlns:xsi="http://www.w3.org/2001/XMLSchema-instance" xsi:noNamespaceSchemaLocation="http://sumo.dlr.de/xsd/libsumoConfiguration.xsd">

    <input>
        <net-file value="/home/stefan/RESCO/./environments/grid4x4/grid4x4.net.xml"/>
        <route-files value="/home/stefan/RESCO/./environments/grid4x4/grid4x4_43.rou.xml"/>
    </input>

    <output>
        <tripinfo-output value="/home/stefan/results/ITRPO-tr0-grid4x4-0-drq_norm-wait_norm/tripinfo_43.xml"/>
        <tripinfo-output.write-unfinished value="true"/>
    </output>

    <processing>
        <time-to-teleport value="-1"/>
    </processing>

    <report>
        <no-warnings value="True"/>
        <no-step-log value="True"/>
    </report>

    <random_number>
        <random value="true"/>
    </random_number>

</configuration>
-->

<tripinfos xmlns:xsi="http://www.w3.org/2001/XMLSchema-instance" xsi:noNamespaceSchemaLocation="http://sumo.dlr.de/xsd/tripinfo_file.xsd">
    <tripinfo id="4" depart="33.00" departLane="right1D1_0" departPos="5.10" departSpeed="0.00" departDelay="0.00" arrival="162.00" arrivalLane="D0bottom3_0" arrivalPos="286.40" arrivalSpeed="9.69" duration="129.00" routeLength="895.01" waitingTime="22.00" waitingCount="1" stopTime="0.00" timeLoss="36.66" rerouteNo="0" devices="tripinfo_4" vType="DEFAULT_VEHTYPE" speedFactor="0.71" vaporized=""/>
    <tripinfo id="10" depart="47.00" departLane="left2A2_0" departPos="5.10" departSpeed="0.00" departDelay="0.00" arrival="175.00" arrivalLane="B3top1_0" arrivalPos="286.40" arrivalSpeed="12.78" duration="128.00" routeLength="1195.18" waitingTime="17.00" waitingCount="2" stopTime="0.00" timeLoss="34.70" rerouteNo="0" devices="tripinfo_10" vType="DEFAULT_VEHTYPE" speedFactor="0.93" vaporized=""/>
    <tripinfo id="16" depart="96.00" departLane="left3A3_0" departPos="5.10" departSpeed="0.00" departDelay="0.00" arrival="180.00" arrivalLane="A2left2_0" arrivalPos="286.40" arrivalSpeed="13.53" duration="84.00" routeLength="858.56" waitingTime="2.00" waitingCount="2" stopTime="0.00" timeLoss="19.58" rerouteNo="0" devices="tripinfo_16" vType="DEFAULT_VEHTYPE" speedFactor="0.98" vaporized=""/>
    <tripinfo id="9" depart="46.00" departLane="right3D3_0" departPos="5.10" departSpeed="0.00" departDelay="0.00" arrival="191.00" arrivalLane="D2right2_0" arrivalPos="286.40" arrivalSpeed="11.78" duration="145.00" routeLength="894.86" waitingTime="57.00" waitingCount="1" stopTime="0.00" timeLoss="74.39" rerouteNo="0" devices="tripinfo_9" vType="DEFAULT_VEHTYPE" speedFactor="0.93" vaporized=""/>
    <tripinfo id="29" depart="134.00" departLane="bottom3D0_0" departPos="5.10" departSpeed="0.00" departDelay="0.00" arrival="192.00" arrivalLane="D0right0_0" arrivalPos="286.40" arrivalSpeed="11.55" duration="58.00" routeLength="576.73" waitingTime="1.00" waitingCount="1" stopTime="0.00" timeLoss="11.08" rerouteNo="0" devices="tripinfo_29" vType="DEFAULT_VEHTYPE" speedFactor="0.91" vaporized=""/>
    <tripinfo id="23" depart="122.00" departLane="top3D3_0" departPos="5.10" departSpeed="0.00" departDelay="0.00" arrival="201.00" arrivalLane="C3top2_0" arrivalPos="286.40" arrivalSpeed="12.98" duration="79.00" routeLength="858.56" waitingTime="1.00" waitingCount="1" stopTime="0.00" timeLoss="13.39" rerouteNo="0" devices="tripinfo_23" vType="DEFAULT_VEHTYPE" speedFactor="0.96" vaporized=""/>
    <tripinfo id="13" depart="65.00" departLane="left3A3_0" departPos="5.10" departSpeed="0.00" departDelay="0.00" arrival="221.00" arrivalLane="B0bottom1_0" arrivalPos="286.40" arrivalSpeed="13.30" duration="156.00" routeLength="1780.11" waitingTime="7.00" waitingCount="2" stopTime="0.00" timeLoss="30.17" rerouteNo="0" devices="tripinfo_13" vType="DEFAULT_VEHTYPE" speedFactor="1.03" vaporized=""/>
    <tripinfo id="21" depart="116.00" departLane="bottom0A0_0" departPos="5.10" departSpeed="0.00" departDelay="0.00" arrival="230.00" arrivalLane="A0left0_0" arrivalPos="286.40" arrivalSpeed="13.39" duration="114.00" routeLength="597.55" waitingTime="57.00" waitingCount="1" stopTime="0.00" timeLoss="68.41" rerouteNo="0" devices="tripinfo_21" vType="DEFAULT_VEHTYPE" speedFactor="0.97" vaporized=""/>
    <tripinfo id="8" depart="41.00" departLane="right3D3_0" departPos="5.10" departSpeed="0.00" departDelay="0.00" arrival="239.00" arrivalLane="D0right0_0" arrivalPos="286.40" arrivalSpeed="14.20" duration="198.00" routeLength="1497.83" waitingTime="62.00" waitingCount="4" stopTime="0.00" timeLoss="93.93" rerouteNo="0" devices="tripinfo_8" vType="DEFAULT_VEHTYPE" speedFactor="1.05" vaporized=""/>
    <tripinfo id="5" depart="33.00" departLane="left2A2_0" departPos="5.10" departSpeed="0.00" departDelay="0.00" arrival="240.00" arrivalLane="D1right1_0" arrivalPos="286.40" arrivalSpeed="15.04" duration="207.00" routeLength="1782.72" waitingTime="60.00" waitingCount="2" stopTime="0.00" timeLoss="87.30" rerouteNo="0" devices="tripinfo_5" vType="DEFAULT_VEHTYPE" speedFactor="1.09" vaporized=""/>
    <tripinfo id="36" depart="150.00" departLane="right1D1_0" departPos="5.10" departSpeed="0.00" departDelay="0.00" arrival="245.00" arrivalLane="D0bottom3_0" arrivalPos="286.40" arrivalSpeed="10.46" duration="95.00" routeLength="895.01" waitingTime="2.00" waitingCount="1" stopTime="0.00" timeLoss="13.74" rerouteNo="0" devices="tripinfo_36" vType="DEFAULT_VEHTYPE" speedFactor="0.80" vaporized=""/>
    <tripinfo id="3" depart="18.00" departLane="bottom0A0_0" departPos="5.10" departSpeed="0.00" departDelay="0.00" arrival="253.00" arrivalLane="D0bottom3_0" arrivalPos="286.40" arrivalSpeed="9.79" duration="235.00" routeLength="1461.60" waitingTime="59.00" waitingCount="4" stopTime="0.00" timeLoss="89.47" rerouteNo="0" devices="tripinfo_3" vType="DEFAULT_VEHTYPE" speedFactor="0.73" vaporized=""/>
    <tripinfo id="15" depart="78.00" departLane="right1D1_0" departPos="5.10" departSpeed="0.00" departDelay="0.00" arrival="254.00" arrivalLane="C0bottom2_0" arrivalPos="286.40" arrivalSpeed="12.64" duration="176.00" routeLength="1195.18" waitingTime="69.00" waitingCount="2" stopTime="0.00" timeLoss="86.62" rerouteNo="0" devices="tripinfo_15" vType="DEFAULT_VEHTYPE" speedFactor="0.97" vaporized=""/>
    <tripinfo id="48" depart="198.00" departLane="bottom3D0_0" departPos="5.10" departSpeed="0.00" departDelay="0.00" arrival="273.00" arrivalLane="D1right1_0" arrivalPos="286.40" arrivalSpeed="15.63" duration="75.00" routeLength="876.90" waitingTime="1.00" waitingCount="1" stopTime="0.00" timeLoss="17.99" rerouteNo="0" devices="tripinfo_48" vType="DEFAULT_VEHTYPE" speedFactor="1.13" vaporized=""/>
    <tripinfo id="0" depart="1.00" departLane="left1A1_0" departPos="5.10" departSpeed="0.00" departDelay="0.00" arrival="277.00" arrivalLane="D0bottom3_0" arrivalPos="286.40" arrivalSpeed="15.44" duration="276.00" routeLength="1780.11" waitingTime="123.00" waitingCount="4" stopTime="0.00" timeLoss="160.93" rerouteNo="0" devices="tripinfo_0" vType="DEFAULT_VEHTYPE" speedFactor="1.13" vaporized=""/>
    <tripinfo id="37" depart="161.00" departLane="right0D0_0" departPos="5.10" departSpeed="0.00" departDelay="0.00" arrival="289.00" arrivalLane="D2right2_0" arrivalPos="286.40" arrivalSpeed="12.65" duration="128.00" routeLength="1161.43" waitingTime="19.00" waitingCount="3" stopTime="0.00" timeLoss="39.50" rerouteNo="0" devices="tripinfo_37" vType="DEFAULT_VEHTYPE" speedFactor="0.96" vaporized=""/>
    <tripinfo id="27" depart="127.00" departLane="bottom3D0_0" departPos="5.10" departSpeed="0.00" departDelay="0.00" arrival="294.00" arrivalLane="D2right2_0" arrivalPos="286.40" arrivalSpeed="12.84" duration="167.00" routeLength="1177.07" waitingTime="52.00" waitingCount="3" stopTime="0.00" timeLoss="79.91" rerouteNo="0" devices="tripinfo_27" vType="DEFAULT_VEHTYPE" speedFactor="0.99" vaporized=""/>
    <tripinfo id="1" depart="7.00" departLane="top2C3_0" departPos="5.10" departSpeed="0.00" departDelay="0.00" arrival="302.00" arrivalLane="A0left0_1" arrivalPos="286.40" arrivalSpeed="13.95" duration="295.00" routeLength="2080.28" waitingTime="115.00" waitingCount="4" stopTime="0.00" timeLoss="157.43" rerouteNo="0" devices="tripinfo_1" vType="DEFAULT_VEHTYPE" speedFactor="1.09" vaporized=""/>
    <tripinfo id="7" depart="38.00" departLane="right1D1_0" departPos="5.10" departSpeed="0.00" departDelay="0.00" arrival="302.00" arrivalLane="A0left0_0" arrivalPos="286.40" arrivalSpeed="13.94" duration="264.00" routeLength="1782.59" waitingTime="104.00" waitingCount="4" stopTime="0.00" timeLoss="135.62" rerouteNo="0" devices="tripinfo_7" vType="DEFAULT_VEHTYPE" speedFactor="1.01" vaporized=""/>
    <tripinfo id="2" depart="10.00" departLane="top3D3_0" departPos="5.10" departSpeed="0.00" departDelay="0.00" arrival="304.00" arrivalLane="D3top3_1" arrivalPos="286.40" arrivalSpeed="11.70" duration="294.00" routeLength="1748.75" waitingTime="117.00" waitingCount="4" stopTime="0.00" timeLoss="149.88" rerouteNo="0" devices="tripinfo_2" vType="DEFAULT_VEHTYPE" speedFactor="0.89" vaporized=""/>
    <tripinfo id="6" depart="35.00" departLane="top0A3_0" departPos="5.10" departSpeed="0.00" departDelay="0.00" arrival="305.00" arrivalLane="D3top3_0" arrivalPos="286.40" arrivalSpeed="10.65" duration="270.00" routeLength="1497.83" waitingTime="108.00" waitingCount="4" stopTime="0.00" timeLoss="137.30" rerouteNo="0" devices="tripinfo_6" vType="DEFAULT_VEHTYPE" speedFactor="0.82" vaporized=""/>
    <tripinfo id="62" depart="264.00" departLane="right0D0_0" departPos="5.10" departSpeed="0.00" departDelay="0.00" arrival="311.00" arrivalLane="D0bottom3_0" arrivalPos="286.40" arrivalSpeed="14.70" duration="47.00" routeLength="597.55" waitingTime="0.00" waitingCount="0" stopTime="0.00" timeLoss="5.37" rerouteNo="0" devices="tripinfo_62" vType="DEFAULT_VEHTYPE" speedFactor="1.07" vaporized=""/>
    <tripinfo id="38" depart="162.00" departLane="left2A2_0" departPos="5.10" departSpeed="0.00" departDelay="0.00" arrival="315.00" arrivalLane="D3right3_0" arrivalPos="286.40" arrivalSpeed="17.44" duration="153.00" routeLength="1782.59" waitingTime="19.00" waitingCount="2" stopTime="0.00" timeLoss="54.26" rerouteNo="0" devices="tripinfo_38" vType="DEFAULT_VEHTYPE" speedFactor="1.32" vaporized=""/>
    <tripinfo id="32" depart="142.00" departLane="bottom3D0_0" departPos="5.10" departSpeed="0.00" departDelay="0.00" arrival="317.00" arrivalLane="B0bottom1_0" arrivalPos="286.40" arrivalSpeed="15.86" duration="175.00" routeLength="1197.66" waitingTime="80.00" waitingCount="2" stopTime="0.00" timeLoss="99.99" rerouteNo="0" devices="tripinfo_32" vType="DEFAULT_VEHTYPE" speedFactor="1.18" vaporized=""/>
    <tripinfo id="14" depart="69.00" departLane="bottom2C0_0" departPos="5.10" departSpeed="0.00" departDelay="0.00" arrival="319.00" arrivalLane="D3right3_0" arrivalPos="286.40" arrivalSpeed="15.25" duration="250.00" routeLength="1780.11" waitingTime="94.00" waitingCount="4" stopTime="0.00" timeLoss="133.13" rerouteNo="0" devices="tripinfo_14" vType="DEFAULT_VEHTYPE" speedFactor="1.10" vaporized=""/>
    <tripinfo id="26" depart="126.00" departLane="bottom0A0_0" departPos="5.10" departSpeed="0.00" departDelay="0.00" arrival="321.00" arrivalLane="C0bottom2_0" arrivalPos="286.40" arrivalSpeed="10.00" duration="195.00" routeLength="1161.43" waitingTime="61.00" waitingCount="3" stopTime="0.00" timeLoss="80.53" rerouteNo="0" devices="tripinfo_26" vType="DEFAULT_VEHTYPE" speedFactor="0.75" vaporized=""/>
    <tripinfo id="34" depart="148.00" departLane="top3D3_0" departPos="5.10" departSpeed="0.00" departDelay="0.00" arrival="324.00" arrivalLane="A2left2_0" arrivalPos="286.40" arrivalSpeed="16.54" duration="176.00" routeLength="1780.11" waitingTime="41.00" waitingCount="3" stopTime="0.00" timeLoss="68.10" rerouteNo="0" devices="tripinfo_34" vType="DEFAULT_VEHTYPE" speedFactor="1.19" vaporized=""/>
    <tripinfo id="39" depart="163.00" departLane="left3A3_0" departPos="5.10" departSpeed="0.00" departDelay="0.00" arrival="324.00" arrivalLane="D3top3_0" arrivalPos="286.40" arrivalSpeed="13.57" duration="161.00" routeLength="1498.06" waitingTime="37.00" waitingCount="2" stopTime="0.00" timeLoss="54.79" rerouteNo="0" devices="tripinfo_39" vType="DEFAULT_VEHTYPE" speedFactor="1.03" vaporized=""/>
    <tripinfo id="11" depart="55.00" departLane="right0D0_0" departPos="5.10" departSpeed="0.00" departDelay="0.00" arrival="327.00" arrivalLane="C3top2_0" arrivalPos="286.40" arrivalSpeed="14.42" duration="272.00" routeLength="1780.11" waitingTime="117.00" waitingCount="5" stopTime="0.00" timeLoss="155.72" rerouteNo="0" devices="tripinfo_11" vType="DEFAULT_VEHTYPE" speedFactor="1.11" vaporized=""/>
    <tripinfo id="30" depart="141.00" departLane="right3D3_0" departPos="5.10" departSpeed="0.00" departDelay="0.00" arrival="333.00" arrivalLane="D1right1_0" arrivalPos="286.40" arrivalSpeed="11.23" duration="192.00" routeLength="1197.66" waitingTime="79.00" waitingCount="1" stopTime="0.00" timeLoss="91.16" rerouteNo="0" devices="tripinfo_30" vType="DEFAULT_VEHTYPE" speedFactor="0.87" vaporized=""/>
    <tripinfo id="20" depart="107.00" departLane="top1B3_0" departPos="5.10" departSpeed="0.00" departDelay="0.00" arrival="338.00" arrivalLane="C3top2_0" arrivalPos="286.40" arrivalSpeed="13.75" duration="231.00" routeLength="894.86" waitingTime="148.00" waitingCount="2" stopTime="0.00" timeLoss="168.50" rerouteNo="0" devices="tripinfo_20" vType="DEFAULT_VEHTYPE" speedFactor="1.05" vaporized=""/>
    <tripinfo id="33" depart="147.00" departLane="bottom2C0_0" departPos="5.10" departSpeed="0.00" departDelay="0.00" arrival="338.00" arrivalLane="D3right3_0" arrivalPos="286.40" arrivalSpeed="14.02" duration="191.00" routeLength="1780.11" waitingTime="34.00" waitingCount="4" stopTime="0.00" timeLoss="70.08" rerouteNo="0" devices="tripinfo_33" vType="DEFAULT_VEHTYPE" speedFactor="1.07" vaporized=""/>
    <tripinfo id="42" depart="178.00" departLane="right0D0_0" departPos="5.10" departSpeed="0.00" departDelay="0.00" arrival="340.00" arrivalLane="A0bottom0_0" arrivalPos="286.40" arrivalSpeed="14.79" duration="162.00" routeLength="1498.06" waitingTime="32.00" waitingCount="3" stopTime="0.00" timeLoss="64.62" rerouteNo="0" devices="tripinfo_42" vType="DEFAULT_VEHTYPE" speedFactor="1.12" vaporized=""/>
    <tripinfo id="43" depart="190.00" departLane="left3A3_0" departPos="5.10" departSpeed="0.00" departDelay="0.00" arrival="343.00" arrivalLane="D3right3_0" arrivalPos="286.40" arrivalSpeed="12.96" duration="153.00" routeLength="1495.58" waitingTime="21.00" waitingCount="2" stopTime="0.00" timeLoss="41.75" rerouteNo="0" devices="tripinfo_43" vType="DEFAULT_VEHTYPE" speedFactor="0.97" vaporized=""/>
    <tripinfo id="17" depart="99.00" departLane="top2C3_0" departPos="5.10" departSpeed="0.00" departDelay="0.00" arrival="358.00" arrivalLane="C0bottom2_0" arrivalPos="286.40" arrivalSpeed="15.00" duration="259.00" routeLength="1495.58" waitingTime="141.00" waitingCount="2" stopTime="0.00" timeLoss="161.04" rerouteNo="0" devices="tripinfo_17" vType="DEFAULT_VEHTYPE" speedFactor="1.11" vaporized=""/>
    <tripinfo id="67" depart="272.00" departLane="bottom0A0_0" departPos="5.10" departSpeed="0.00" departDelay="0.00" arrival="366.00" arrivalLane="B0bottom1_0" arrivalPos="286.40" arrivalSpeed="11.46" duration="94.00" routeLength="858.56" waitingTime="2.00" waitingCount="2" stopTime="0.00" timeLoss="18.97" rerouteNo="0" devices="tripinfo_67" vType="DEFAULT_VEHTYPE" speedFactor="0.85" vaporized=""/>
    <tripinfo id="18" depart="99.00" departLane="right3D3_0" departPos="5.10" departSpeed="0.00" departDelay="0.00" arrival="370.00" arrivalLane="B0bottom1_0" arrivalPos="286.40" arrivalSpeed="12.65" duration="271.00" routeLength="2095.69" waitingTime="76.00" waitingCount="5" stopTime="0.00" timeLoss="113.55" rerouteNo="0" devices="tripinfo_18" vType="DEFAULT_VEHTYPE" speedFactor="0.97" vaporized=""/>
    <tripinfo id="35" depart="149.00" departLane="bottom1B0_0" departPos="5.10" departSpeed="0.00" departDelay="0.00" arrival="372.00" arrivalLane="D2right2_0" arrivalPos="286.40" arrivalSpeed="11.83" duration="223.00" routeLength="1780.11" waitingTime="44.00" waitingCount="3" stopTime="0.00" timeLoss="72.58" rerouteNo="0" devices="tripinfo_35" vType="DEFAULT_VEHTYPE" speedFactor="0.86" vaporized=""/>
    <tripinfo id="56" depart="239.00" departLane="bottom0A0_0" departPos="5.10" departSpeed="0.00" departDelay="0.00" arrival="376.00" arrivalLane="A3top0_0" arrivalPos="286.40" arrivalSpeed="15.60" duration="137.00" routeLength="1495.58" waitingTime="18.00" waitingCount="2" stopTime="0.00" timeLoss="45.76" rerouteNo="0" devices="tripinfo_56" vType="DEFAULT_VEHTYPE" speedFactor="1.18" vaporized=""/>
    <tripinfo id="12" depart="58.00" departLane="bottom3D0_0" departPos="5.10" departSpeed="0.00" departDelay="0.00" arrival="377.00" arrivalLane="A1left1_0" arrivalPos="286.40" arrivalSpeed="15.47" duration="319.00" routeLength="1795.52" waitingTime="163.00" waitingCount="5" stopTime="0.00" timeLoss="202.26" rerouteNo="0" devices="tripinfo_12" vType="DEFAULT_VEHTYPE" speedFactor="1.12" vaporized=""/>
    <tripinfo id="24" depart="123.00" departLane="bottom3D0_0" departPos="5.10" departSpeed="0.00" departDelay="0.00" arrival="381.00" arrivalLane="A3top0_0" arrivalPos="286.40" arrivalSpeed="13.36" duration="258.00" routeLength="2380.22" waitingTime="58.00" waitingCount="4" stopTime="0.00" timeLoss="91.90" rerouteNo="0" devices="tripinfo_24" vType="DEFAULT_VEHTYPE" speedFactor="1.04" vaporized=""/>
    <tripinfo id="51" depart="220.00" departLane="left3A3_0" departPos="5.10" departSpeed="0.00" departDelay="0.00" arrival="383.00" arrivalLane="A1left1_0" arrivalPos="286.40" arrivalSpeed="12.74" duration="163.00" routeLength="1161.43" waitingTime="53.00" waitingCount="3" stopTime="0.00" timeLoss="76.51" rerouteNo="0" devices="tripinfo_51" vType="DEFAULT_VEHTYPE" speedFactor="0.98" vaporized=""/>
    <tripinfo id="58" depart="242.00" departLane="top3D3_0" departPos="5.10" departSpeed="0.00" departDelay="1.00" arrival="384.00" arrivalLane="D1right1_0" arrivalPos="286.40" arrivalSpeed="13.43" duration="142.00" routeLength="1197.89" waitingTime="32.00" waitingCount="2" stopTime="0.00" timeLoss="52.88" rerouteNo="0" devices="tripinfo_58" vType="DEFAULT_VEHTYPE" speedFactor="0.97" vaporized=""/>
    <tripinfo id="19" depart="100.00" departLane="left3A3_0" departPos="5.10" departSpeed="0.00" departDelay="0.00" arrival="389.00" arrivalLane="C0bottom2_0" arrivalPos="286.40" arrivalSpeed="13.15" duration="289.00" routeLength="2080.28" waitingTime="103.00" waitingCount="5" stopTime="0.00" timeLoss="141.84" rerouteNo="0" devices="tripinfo_19" vType="DEFAULT_VEHTYPE" speedFactor="1.03" vaporized=""/>
    <tripinfo id="50" depart="217.00" departLane="top2C3_0" departPos="5.10" departSpeed="0.00" departDelay="0.00" arrival="389.00" arrivalLane="C3top2_0" arrivalPos="286.40" arrivalSpeed="13.06" duration="172.00" routeLength="1748.75" waitingTime="11.00" waitingCount="4" stopTime="0.00" timeLoss="45.50" rerouteNo="0" devices="tripinfo_50" vType="DEFAULT_VEHTYPE" speedFactor="1.02" vaporized=""/>
    <tripinfo id="47" depart="196.00" departLane="top2C3_0" departPos="5.10" departSpeed="0.00" departDelay="0.00" arrival="390.00" arrivalLane="C0bottom2_1" arrivalPos="286.40" arrivalSpeed="14.54" duration="194.00" routeLength="1495.58" waitingTime="62.00" waitingCount="3" stopTime="0.00" timeLoss="93.34" rerouteNo="0" devices="tripinfo_47" vType="DEFAULT_VEHTYPE" speedFactor="1.08" vaporized=""/>
    <tripinfo id="41" depart="177.00" departLane="left1A1_0" departPos="5.10" departSpeed="0.00" departDelay="0.00" arrival="391.00" arrivalLane="A1left1_0" arrivalPos="286.40" arrivalSpeed="12.99" duration="214.00" routeLength="1748.75" waitingTime="49.00" waitingCount="4" stopTime="0.00" timeLoss="79.80" rerouteNo="0" devices="tripinfo_41" vType="DEFAULT_VEHTYPE" speedFactor="0.96" vaporized=""/>
    <tripinfo id="55" depart="225.00" departLane="top2C3_0" departPos="5.10" departSpeed="0.00" departDelay="0.00" arrival="400.00" arrivalLane="A2left2_0" arrivalPos="286.40" arrivalSpeed="13.03" duration="175.00" routeLength="1479.94" waitingTime="40.00" waitingCount="3" stopTime="0.00" timeLoss="65.27" rerouteNo="0" devices="tripinfo_55" vType="DEFAULT_VEHTYPE" speedFactor="0.98" vaporized=""/>
    <tripinfo id="61" depart="251.00" departLane="right0D0_0" departPos="5.10" departSpeed="0.00" departDelay="0.00" arrival="407.00" arrivalLane="D0right0_0" arrivalPos="286.40" arrivalSpeed="13.35" duration="156.00" routeLength="1748.75" waitingTime="3.00" waitingCount="3" stopTime="0.00" timeLoss="29.80" rerouteNo="0" devices="tripinfo_61" vType="DEFAULT_VEHTYPE" speedFactor="1.01" vaporized=""/>
    <tripinfo id="70" depart="299.00" departLane="left3A3_0" departPos="5.10" departSpeed="0.00" departDelay="0.00" arrival="412.00" arrivalLane="A1left1_0" arrivalPos="286.40" arrivalSpeed="11.59" duration="113.00" routeLength="1161.43" waitingTime="1.00" waitingCount="1" stopTime="0.00" timeLoss="15.47" rerouteNo="0" devices="tripinfo_70" vType="DEFAULT_VEHTYPE" speedFactor="0.88" vaporized=""/>
    <tripinfo id="45" depart="194.00" departLane="right1D1_0" departPos="5.10" departSpeed="0.00" departDelay="0.00" arrival="413.00" arrivalLane="D3top3_0" arrivalPos="286.40" arrivalSpeed="10.33" duration="219.00" routeLength="1179.77" waitingTime="96.00" waitingCount="3" stopTime="0.00" timeLoss="116.20" rerouteNo="0" devices="tripinfo_45" vType="DEFAULT_VEHTYPE" speedFactor="0.84" vaporized=""/>
    <tripinfo id="53" depart="221.00" departLane="right1D1_0" departPos="5.10" departSpeed="0.00" departDelay="0.00" arrival="414.00" arrivalLane="D1right1_0" arrivalPos="286.40" arrivalSpeed="10.59" duration="193.00" routeLength="1748.75" waitingTime="14.00" waitingCount="3" stopTime="0.00" timeLoss="38.70" rerouteNo="0" devices="tripinfo_53" vType="DEFAULT_VEHTYPE" speedFactor="0.83" vaporized=""/>
    <tripinfo id="31" depart="141.00" departLane="top3D3_0" departPos="5.10" departSpeed="0.00" departDelay="0.00" arrival="429.00" arrivalLane="B0bottom1_0" arrivalPos="286.40" arrivalSpeed="15.35" duration="288.00" routeLength="2082.76" waitingTime="101.00" waitingCount="4" stopTime="0.00" timeLoss="158.17" rerouteNo="0" devices="tripinfo_31" vType="DEFAULT_VEHTYPE" speedFactor="1.17" vaporized=""/>
    <tripinfo id="54" depart="225.00" departLane="right0D0_0" departPos="5.10" departSpeed="0.00" departDelay="0.00" arrival="430.00" arrivalLane="A2left2_1" arrivalPos="286.40" arrivalSpeed="16.30" duration="205.00" routeLength="2082.76" waitingTime="36.00" waitingCount="5" stopTime="0.00" timeLoss="78.87" rerouteNo="0" devices="tripinfo_54" vType="DEFAULT_VEHTYPE" speedFactor="1.20" vaporized=""/>
    <tripinfo id="57" depart="240.00" departLane="top3D3_0" departPos="5.10" departSpeed="0.00" departDelay="0.00" arrival="431.00" arrivalLane="D3top3_0" arrivalPos="286.40" arrivalSpeed="12.34" duration="191.00" routeLength="1748.75" waitingTime="22.00" waitingCount="4" stopTime="0.00" timeLoss="52.53" rerouteNo="0" devices="tripinfo_57" vType="DEFAULT_VEHTYPE" speedFactor="0.92" vaporized=""/>
    <tripinfo id="22" depart="117.00" departLane="right0D0_0" departPos="5.10" departSpeed="0.00" departDelay="0.00" arrival="433.00" arrivalLane="A2left2_1" arrivalPos="286.40" arrivalSpeed="13.16" duration="316.00" routeLength="2082.76" waitingTime="124.00" waitingCount="5" stopTime="0.00" timeLoss="165.66" rerouteNo="0" devices="tripinfo_22" vType="DEFAULT_VEHTYPE" speedFactor="1.01" vaporized=""/>
    <tripinfo id="40" depart="165.00" departLane="left2A2_0" departPos="5.10" departSpeed="0.00" departDelay="1.00" arrival="433.00" arrivalLane="A2left2_0" arrivalPos="286.40" arrivalSpeed="11.71" duration="268.00" routeLength="1748.75" waitingTime="85.00" waitingCount="5" stopTime="0.00" timeLoss="119.94" rerouteNo="0" devices="tripinfo_40" vType="DEFAULT_VEHTYPE" speedFactor="0.87" vaporized=""/>
    <tripinfo id="66" depart="270.00" departLane="left1A1_0" departPos="5.10" departSpeed="0.00" departDelay="0.00" arrival="449.00" arrivalLane="A3top0_0" arrivalPos="286.40" arrivalSpeed="13.67" duration="179.00" routeLength="1195.18" waitingTime="71.00" waitingCount="3" stopTime="0.00" timeLoss="93.96" rerouteNo="0" devices="tripinfo_66" vType="DEFAULT_VEHTYPE" speedFactor="1.03" vaporized=""/>
    <tripinfo id="49" depart="203.00" departLane="bottom3D0_0" departPos="5.10" departSpeed="0.00" departDelay="0.00" arrival="470.00" arrivalLane="B3top1_0" arrivalPos="286.40" arrivalSpeed="13.11" duration="267.00" routeLength="2080.05" waitingTime="78.00" waitingCount="4" stopTime="0.00" timeLoss="115.76" rerouteNo="0" devices="tripinfo_49" vType="DEFAULT_VEHTYPE" speedFactor="1.00" vaporized=""/>
    <tripinfo id="73" depart="321.00" departLane="bottom1B0_0" departPos="5.10" departSpeed="0.00" departDelay="0.00" arrival="470.00" arrivalLane="A0left0_0" arrivalPos="286.40" arrivalSpeed="13.00" duration="149.00" routeLength="895.01" waitingTime="64.00" waitingCount="2" stopTime="0.00" timeLoss="79.70" rerouteNo="0" devices="tripinfo_73" vType="DEFAULT_VEHTYPE" speedFactor="0.94" vaporized=""/>
    <tripinfo id="59" depart="243.00" departLane="bottom3D0_0" departPos="5.10" departSpeed="0.00" departDelay="0.00" arrival="472.00" arrivalLane="B3top1_0" arrivalPos="286.40" arrivalSpeed="13.39" duration="229.00" routeLength="2080.05" waitingTime="36.00" waitingCount="4" stopTime="0.00" timeLoss="73.12" rerouteNo="0" devices="tripinfo_59" vType="DEFAULT_VEHTYPE" speedFactor="0.97" vaporized=""/>
    <tripinfo id="91" depart="392.00" departLane="left1A1_0" departPos="5.10" departSpeed="0.00" departDelay="0.00" arrival="479.00" arrivalLane="A0left0_0" arrivalPos="286.40" arrivalSpeed="14.15" duration="87.00" routeLength="858.56" waitingTime="11.00" waitingCount="2" stopTime="0.00" timeLoss="27.60" rerouteNo="0" devices="tripinfo_91" vType="DEFAULT_VEHTYPE" speedFactor="1.07" vaporized=""/>
    <tripinfo id="79" depart="342.00" departLane="bottom0A0_0" departPos="5.10" departSpeed="0.00" departDelay="0.00" arrival="482.00" arrivalLane="D0right0_0" arrivalPos="286.40" arrivalSpeed="12.86" duration="140.00" routeLength="1479.94" waitingTime="12.00" waitingCount="2" stopTime="0.00" timeLoss="30.28" rerouteNo="0" devices="tripinfo_79" vType="DEFAULT_VEHTYPE" speedFactor="0.98" vaporized=""/>
    <tripinfo id="84" depart="360.00" departLane="bottom1B0_0" departPos="5.10" departSpeed="0.00" departDelay="0.00" arrival="487.00" arrivalLane="D0bottom3_0" arrivalPos="286.40" arrivalSpeed="12.32" duration="127.00" routeLength="1161.43" waitingTime="18.00" waitingCount="2" stopTime="0.00" timeLoss="36.52" rerouteNo="0" devices="tripinfo_84" vType="DEFAULT_VEHTYPE" speedFactor="0.95" vaporized=""/>
    <tripinfo id="64" depart="267.00" departLane="bottom1B0_0" departPos="5.10" departSpeed="0.00" departDelay="0.00" arrival="488.00" arrivalLane="A3left3_0" arrivalPos="286.40" arrivalSpeed="14.18" duration="221.00" routeLength="1795.52" waitingTime="65.00" waitingCount="4" stopTime="0.00" timeLoss="99.40" rerouteNo="0" devices="tripinfo_64" vType="DEFAULT_VEHTYPE" speedFactor="1.07" vaporized=""/>
    <tripinfo id="25" depart="125.00" departLane="top3D3_0" departPos="5.10" departSpeed="0.00" departDelay="0.00" arrival="501.00" arrivalLane="A0bottom0_0" arrivalPos="286.40" arrivalSpeed="11.85" duration="376.00" routeLength="2382.93" waitingTime="152.00" waitingCount="5" stopTime="0.00" timeLoss="190.59" rerouteNo="0" devices="tripinfo_25" vType="DEFAULT_VEHTYPE" speedFactor="0.93" vaporized=""/>
    <tripinfo id="60" depart="250.00" departLane="top3D3_0" departPos="5.10" departSpeed="0.00" departDelay="0.00" arrival="504.00" arrivalLane="A0left0_0" arrivalPos="286.40" arrivalSpeed="15.27" duration="254.00" routeLength="2380.45" waitingTime="49.00" waitingCount="5" stopTime="0.00" timeLoss="103.09" rerouteNo="0" devices="tripinfo_60" vType="DEFAULT_VEHTYPE" speedFactor="1.14" vaporized=""/>
    <tripinfo id="80" depart="350.00" departLane="top0A3_0" departPos="5.10" departSpeed="0.00" departDelay="0.00" arrival="507.00" arrivalLane="C3top2_0" arrivalPos="286.40" arrivalSpeed="11.68" duration="157.00" routeLength="1197.66" waitingTime="44.00" waitingCount="2" stopTime="0.00" timeLoss="62.92" rerouteNo="0" devices="tripinfo_80" vType="DEFAULT_VEHTYPE" speedFactor="0.93" vaporized=""/>
    <tripinfo id="68" depart="284.00" departLane="bottom0A0_0" departPos="5.10" departSpeed="0.00" departDelay="0.00" arrival="508.00" arrivalLane="B3top1_0" arrivalPos="286.40" arrivalSpeed="12.79" duration="224.00" routeLength="1782.72" waitingTime="64.00" waitingCount="3" stopTime="0.00" timeLoss="91.30" rerouteNo="0" devices="tripinfo_68" vType="DEFAULT_VEHTYPE" speedFactor="0.98" vaporized=""/>
    <tripinfo id="81" depart="355.00" departLane="top3D3_0" departPos="5.10" departSpeed="0.00" departDelay="0.00" arrival="508.00" arrivalLane="A3top0_0" arrivalPos="286.40" arrivalSpeed="13.23" duration="153.00" routeLength="1461.60" waitingTime="23.00" waitingCount="2" stopTime="0.00" timeLoss="42.03" rerouteNo="0" devices="tripinfo_81" vType="DEFAULT_VEHTYPE" speedFactor="0.96" vaporized=""/>
    <tripinfo id="102" depart="422.00" departLane="top2C3_0" departPos="5.10" departSpeed="0.00" departDelay="0.00" arrival="525.00" arrivalLane="A3top0_0" arrivalPos="286.40" arrivalSpeed="13.25" duration="103.00" routeLength="1161.43" waitingTime="1.00" waitingCount="1" stopTime="0.00" timeLoss="14.50" rerouteNo="0" devices="tripinfo_102" vType="DEFAULT_VEHTYPE" speedFactor="0.96" vaporized=""/>