<?xml version="1.0" encoding="UTF-8"?>

<!-- generated on 2023-08-30 12:01:26 by Eclipse SUMO libsumo Version 1.18.0
<configuration xmlns:xsi="http://www.w3.org/2001/XMLSchema-instance" xsi:noNamespaceSchemaLocation="http://sumo.dlr.de/xsd/libsumoConfiguration.xsd">

    <input>
        <net-file value="/home/stefan/RESCO/./environments/grid4x4/grid4x4.net.xml"/>
        <route-files value="/home/stefan/RESCO/./environments/grid4x4/grid4x4_38.rou.xml"/>
    </input>

    <output>
        <tripinfo-output value="/home/stefan/results/ITRPO-tr0-grid4x4-0-drq_norm-wait_norm/tripinfo_38.xml"/>
        <tripinfo-output.write-unfinished value="true"/>
    </output>

    <processing>
        <time-to-teleport value="-1"/>
    </processing>

    <report>
        <no-warnings value="True"/>
        <no-step-log value="True"/>
    </report>

    <random_number>
        <random value="true"/>
    </random_number>

</configuration>
-->

<tripinfos xmlns:xsi="http://www.w3.org/2001/XMLSchema-instance" xsi:noNamespaceSchemaLocation="http://sumo.dlr.de/xsd/tripinfo_file.xsd">
    <tripinfo id="9" depart="56.00" departLane="left0A0_0" departPos="5.10" departSpeed="0.00" departDelay="0.00" arrival="109.00" arrivalLane="A0bottom0_0" arrivalPos="286.40" arrivalSpeed="12.43" duration="53.00" routeLength="576.73" waitingTime="0.00" waitingCount="0" stopTime="0.00" timeLoss="6.65" rerouteNo="0" devices="tripinfo_9" vType="DEFAULT_VEHTYPE" speedFactor="0.92" vaporized=""/>
    <tripinfo id="5" depart="40.00" departLane="top3D3_0" departPos="5.10" departSpeed="0.00" departDelay="0.00" arrival="119.00" arrivalLane="C3top2_0" arrivalPos="286.40" arrivalSpeed="13.70" duration="79.00" routeLength="858.56" waitingTime="2.00" waitingCount="2" stopTime="0.00" timeLoss="18.18" rerouteNo="0" devices="tripinfo_5" vType="DEFAULT_VEHTYPE" speedFactor="1.04" vaporized=""/>
    <tripinfo id="6" depart="49.00" departLane="left0A0_0" departPos="5.10" departSpeed="0.00" departDelay="0.00" arrival="122.00" arrivalLane="B0bottom1_0" arrivalPos="286.40" arrivalSpeed="13.69" duration="73.00" routeLength="876.90" waitingTime="1.00" waitingCount="1" stopTime="0.00" timeLoss="12.61" rerouteNo="0" devices="tripinfo_6" vType="DEFAULT_VEHTYPE" speedFactor="1.07" vaporized=""/>
    <tripinfo id="2" depart="33.00" departLane="bottom3D0_0" departPos="5.10" departSpeed="0.00" departDelay="0.00" arrival="129.00" arrivalLane="C0bottom2_0" arrivalPos="286.40" arrivalSpeed="13.75" duration="96.00" routeLength="894.86" waitingTime="16.00" waitingCount="2" stopTime="0.00" timeLoss="30.54" rerouteNo="0" devices="tripinfo_2" vType="DEFAULT_VEHTYPE" speedFactor="1.00" vaporized=""/>
    <tripinfo id="16" depart="86.00" departLane="top0A3_0" departPos="5.10" departSpeed="0.00" departDelay="0.00" arrival="136.00" arrivalLane="A3left3_0" arrivalPos="286.40" arrivalSpeed="13.78" duration="50.00" routeLength="576.73" waitingTime="1.00" waitingCount="1" stopTime="0.00" timeLoss="10.59" rerouteNo="0" devices="tripinfo_16" vType="DEFAULT_VEHTYPE" speedFactor="1.07" vaporized=""/>
    <tripinfo id="14" depart="73.00" departLane="top1B3_0" departPos="5.10" departSpeed="0.00" departDelay="0.00" arrival="149.00" arrivalLane="C3top2_0" arrivalPos="286.40" arrivalSpeed="13.64" duration="76.00" routeLength="894.86" waitingTime="1.00" waitingCount="1" stopTime="0.00" timeLoss="12.28" rerouteNo="0" devices="tripinfo_14" vType="DEFAULT_VEHTYPE" speedFactor="1.04" vaporized=""/>
    <tripinfo id="13" depart="71.00" departLane="right3D3_0" departPos="5.10" departSpeed="0.00" departDelay="0.00" arrival="157.00" arrivalLane="C3top2_0" arrivalPos="286.40" arrivalSpeed="13.37" duration="86.00" routeLength="876.90" waitingTime="5.00" waitingCount="2" stopTime="0.00" timeLoss="23.73" rerouteNo="0" devices="tripinfo_13" vType="DEFAULT_VEHTYPE" speedFactor="1.03" vaporized=""/>
    <tripinfo id="1" depart="9.00" departLane="left2A2_0" departPos="5.10" departSpeed="0.00" departDelay="0.00" arrival="171.00" arrivalLane="C3top2_0" arrivalPos="286.40" arrivalSpeed="13.40" duration="162.00" routeLength="1495.35" waitingTime="31.00" waitingCount="3" stopTime="0.00" timeLoss="56.45" rerouteNo="0" devices="tripinfo_1" vType="DEFAULT_VEHTYPE" speedFactor="1.03" vaporized=""/>
    <tripinfo id="3" depart="35.00" departLane="right1D1_0" departPos="5.10" departSpeed="0.00" departDelay="0.00" arrival="182.00" arrivalLane="D3top3_0" arrivalPos="286.40" arrivalSpeed="11.93" duration="147.00" routeLength="1179.77" waitingTime="27.00" waitingCount="3" stopTime="0.00" timeLoss="49.53" rerouteNo="0" devices="tripinfo_3" vType="DEFAULT_VEHTYPE" speedFactor="0.88" vaporized=""/>
    <tripinfo id="29" depart="144.00" departLane="bottom3D0_0" departPos="5.10" departSpeed="0.00" departDelay="0.00" arrival="200.00" arrivalLane="D0right0_0" arrivalPos="286.40" arrivalSpeed="11.83" duration="56.00" routeLength="576.73" waitingTime="0.00" waitingCount="0" stopTime="0.00" timeLoss="9.36" rerouteNo="0" devices="tripinfo_29" vType="DEFAULT_VEHTYPE" speedFactor="0.92" vaporized=""/>
    <tripinfo id="25" depart="129.00" departLane="top0A3_0" departPos="5.10" departSpeed="0.00" departDelay="0.00" arrival="215.00" arrivalLane="A2left2_0" arrivalPos="286.40" arrivalSpeed="13.87" duration="86.00" routeLength="876.90" waitingTime="8.00" waitingCount="2" stopTime="0.00" timeLoss="22.84" rerouteNo="0" devices="tripinfo_25" vType="DEFAULT_VEHTYPE" speedFactor="1.02" vaporized=""/>
    <tripinfo id="28" depart="140.00" departLane="left3A3_0" departPos="5.10" departSpeed="0.00" departDelay="0.00" arrival="226.00" arrivalLane="A3top0_0" arrivalPos="286.40" arrivalSpeed="15.51" duration="86.00" routeLength="597.55" waitingTime="37.00" waitingCount="1" stopTime="0.00" timeLoss="47.87" rerouteNo="0" devices="tripinfo_28" vType="DEFAULT_VEHTYPE" speedFactor="1.14" vaporized=""/>
    <tripinfo id="10" depart="57.00" departLane="top2C3_0" departPos="5.10" departSpeed="0.00" departDelay="0.00" arrival="237.00" arrivalLane="D0bottom3_0" arrivalPos="286.40" arrivalSpeed="14.92" duration="180.00" routeLength="1782.59" waitingTime="45.00" waitingCount="2" stopTime="0.00" timeLoss="63.83" rerouteNo="0" devices="tripinfo_10" vType="DEFAULT_VEHTYPE" speedFactor="1.12" vaporized=""/>
    <tripinfo id="11" depart="61.00" departLane="bottom2C0_0" departPos="5.10" departSpeed="0.00" departDelay="0.00" arrival="237.00" arrivalLane="D2right2_0" arrivalPos="286.40" arrivalSpeed="15.18" duration="176.00" routeLength="1479.94" waitingTime="59.00" waitingCount="2" stopTime="0.00" timeLoss="77.57" rerouteNo="0" devices="tripinfo_11" vType="DEFAULT_VEHTYPE" speedFactor="1.09" vaporized=""/>
    <tripinfo id="15" depart="85.00" departLane="bottom2C0_0" departPos="5.10" departSpeed="0.00" departDelay="0.00" arrival="237.00" arrivalLane="D2right2_1" arrivalPos="286.40" arrivalSpeed="15.94" duration="152.00" routeLength="1479.94" waitingTime="32.00" waitingCount="3" stopTime="0.00" timeLoss="61.75" rerouteNo="0" devices="tripinfo_15" vType="DEFAULT_VEHTYPE" speedFactor="1.19" vaporized=""/>
    <tripinfo id="24" depart="119.00" departLane="right0D0_0" departPos="5.10" departSpeed="0.00" departDelay="0.00" arrival="252.00" arrivalLane="B0bottom1_1" arrivalPos="286.40" arrivalSpeed="12.97" duration="133.00" routeLength="1197.89" waitingTime="22.00" waitingCount="2" stopTime="0.00" timeLoss="46.80" rerouteNo="0" devices="tripinfo_24" vType="DEFAULT_VEHTYPE" speedFactor="1.01" vaporized=""/>
    <tripinfo id="0" depart="9.00" departLane="bottom1B0_0" departPos="5.10" departSpeed="0.00" departDelay="0.00" arrival="256.00" arrivalLane="B0bottom1_0" arrivalPos="286.40" arrivalSpeed="9.85" duration="247.00" routeLength="1748.75" waitingTime="57.00" waitingCount="3" stopTime="0.00" timeLoss="85.46" rerouteNo="0" devices="tripinfo_0" vType="DEFAULT_VEHTYPE" speedFactor="0.80" vaporized=""/>
    <tripinfo id="20" depart="101.00" departLane="bottom0A0_0" departPos="5.10" departSpeed="0.00" departDelay="0.00" arrival="259.00" arrivalLane="C0bottom2_0" arrivalPos="286.40" arrivalSpeed="12.47" duration="158.00" routeLength="1161.43" waitingTime="52.00" waitingCount="2" stopTime="0.00" timeLoss="71.27" rerouteNo="0" devices="tripinfo_20" vType="DEFAULT_VEHTYPE" speedFactor="0.98" vaporized=""/>
    <tripinfo id="7" depart="51.00" departLane="top3D3_0" departPos="5.10" departSpeed="0.00" departDelay="0.00" arrival="269.00" arrivalLane="A3left3_0" arrivalPos="286.40" arrivalSpeed="13.08" duration="218.00" routeLength="1479.94" waitingTime="85.00" waitingCount="3" stopTime="0.00" timeLoss="112.84" rerouteNo="0" devices="tripinfo_7" vType="DEFAULT_VEHTYPE" speedFactor="1.03" vaporized=""/>
    <tripinfo id="39" depart="220.00" departLane="top1B3_0" departPos="5.10" departSpeed="0.00" departDelay="0.00" arrival="291.00" arrivalLane="A3top0_0" arrivalPos="286.40" arrivalSpeed="14.72" duration="71.00" routeLength="858.56" waitingTime="1.00" waitingCount="1" stopTime="0.00" timeLoss="13.91" rerouteNo="0" devices="tripinfo_39" vType="DEFAULT_VEHTYPE" speedFactor="1.11" vaporized=""/>
    <tripinfo id="35" depart="191.00" departLane="top1B3_0" departPos="5.10" departSpeed="0.00" departDelay="0.00" arrival="313.00" arrivalLane="A2left2_0" arrivalPos="286.40" arrivalSpeed="10.43" duration="122.00" routeLength="1179.77" waitingTime="1.00" waitingCount="1" stopTime="0.00" timeLoss="15.18" rerouteNo="0" devices="tripinfo_35" vType="DEFAULT_VEHTYPE" speedFactor="0.81" vaporized=""/>
    <tripinfo id="36" depart="191.00" departLane="left3A3_0" departPos="5.10" departSpeed="0.00" departDelay="0.00" arrival="313.00" arrivalLane="B3top1_0" arrivalPos="286.40" arrivalSpeed="10.81" duration="122.00" routeLength="897.72" waitingTime="29.00" waitingCount="2" stopTime="0.00" timeLoss="46.47" rerouteNo="0" devices="tripinfo_36" vType="DEFAULT_VEHTYPE" speedFactor="0.87" vaporized=""/>
    <tripinfo id="45" depart="258.00" departLane="right0D0_0" departPos="5.10" departSpeed="0.00" departDelay="0.00" arrival="334.00" arrivalLane="D1right1_0" arrivalPos="286.40" arrivalSpeed="13.21" duration="76.00" routeLength="858.56" waitingTime="1.00" waitingCount="1" stopTime="0.00" timeLoss="14.81" rerouteNo="0" devices="tripinfo_45" vType="DEFAULT_VEHTYPE" speedFactor="1.04" vaporized=""/>
    <tripinfo id="27" depart="138.00" departLane="bottom2C0_0" departPos="5.10" departSpeed="0.00" departDelay="0.00" arrival="337.00" arrivalLane="C0bottom2_0" arrivalPos="286.40" arrivalSpeed="14.93" duration="199.00" routeLength="1748.75" waitingTime="50.00" waitingCount="3" stopTime="0.00" timeLoss="82.01" rerouteNo="0" devices="tripinfo_27" vType="DEFAULT_VEHTYPE" speedFactor="1.10" vaporized=""/>
    <tripinfo id="8" depart="55.00" departLane="bottom3D0_0" departPos="5.10" departSpeed="0.00" departDelay="0.00" arrival="344.00" arrivalLane="D3right3_0" arrivalPos="286.40" arrivalSpeed="13.57" duration="289.00" routeLength="1477.24" waitingTime="154.00" waitingCount="2" stopTime="0.00" timeLoss="179.97" rerouteNo="0" devices="tripinfo_8" vType="DEFAULT_VEHTYPE" speedFactor="0.99" vaporized=""/>
    <tripinfo id="37" depart="194.00" departLane="left1A1_0" departPos="5.10" departSpeed="0.00" departDelay="0.00" arrival="377.00" arrivalLane="B0bottom1_0" arrivalPos="286.40" arrivalSpeed="15.03" duration="183.00" routeLength="1179.77" waitingTime="91.00" waitingCount="1" stopTime="0.00" timeLoss="105.51" rerouteNo="0" devices="tripinfo_37" vType="DEFAULT_VEHTYPE" speedFactor="1.10" vaporized=""/>
    <tripinfo id="46" depart="266.00" departLane="right0D0_0" departPos="5.10" departSpeed="0.00" departDelay="0.00" arrival="395.00" arrivalLane="D0bottom3_0" arrivalPos="286.40" arrivalSpeed="10.31" duration="129.00" routeLength="597.55" waitingTime="65.00" waitingCount="1" stopTime="0.00" timeLoss="75.12" rerouteNo="0" devices="tripinfo_46" vType="DEFAULT_VEHTYPE" speedFactor="0.81" vaporized=""/>
    <tripinfo id="50" depart="274.00" departLane="top0A3_0" departPos="5.10" departSpeed="0.00" departDelay="0.00" arrival="406.00" arrivalLane="C3top2_0" arrivalPos="286.40" arrivalSpeed="15.19" duration="132.00" routeLength="1197.66" waitingTime="37.00" waitingCount="2" stopTime="0.00" timeLoss="58.20" rerouteNo="0" devices="tripinfo_50" vType="DEFAULT_VEHTYPE" speedFactor="1.18" vaporized=""/>
    <tripinfo id="33" depart="181.00" departLane="top0A3_0" departPos="5.10" departSpeed="0.00" departDelay="0.00" arrival="421.00" arrivalLane="A3top0_1" arrivalPos="286.40" arrivalSpeed="13.12" duration="240.00" routeLength="1745.91" waitingTime="78.00" waitingCount="5" stopTime="0.00" timeLoss="115.24" rerouteNo="0" devices="tripinfo_33" vType="DEFAULT_VEHTYPE" speedFactor="1.03" vaporized=""/>
    <tripinfo id="26" depart="132.00" departLane="top0A3_0" departPos="5.10" departSpeed="0.00" departDelay="0.00" arrival="422.00" arrivalLane="A3top0_0" arrivalPos="286.40" arrivalSpeed="10.88" duration="290.00" routeLength="1745.91" waitingTime="112.00" waitingCount="3" stopTime="0.00" timeLoss="142.09" rerouteNo="0" devices="tripinfo_26" vType="DEFAULT_VEHTYPE" speedFactor="0.87" vaporized=""/>
    <tripinfo id="61" depart="337.00" departLane="left2A2_0" departPos="5.10" departSpeed="0.00" departDelay="0.00" arrival="423.00" arrivalLane="A3top0_1" arrivalPos="286.40" arrivalSpeed="13.60" duration="86.00" routeLength="895.01" waitingTime="8.00" waitingCount="1" stopTime="0.00" timeLoss="20.24" rerouteNo="0" devices="tripinfo_61" vType="DEFAULT_VEHTYPE" speedFactor="0.99" vaporized=""/>
    <tripinfo id="12" depart="63.00" departLane="right3D3_0" departPos="5.10" departSpeed="0.00" departDelay="0.00" arrival="431.00" arrivalLane="D0right0_0" arrivalPos="286.40" arrivalSpeed="11.42" duration="368.00" routeLength="1497.83" waitingTime="224.00" waitingCount="3" stopTime="0.00" timeLoss="248.46" rerouteNo="0" devices="tripinfo_12" vType="DEFAULT_VEHTYPE" speedFactor="0.91" vaporized=""/>
    <tripinfo id="17" depart="94.00" departLane="top3D3_0" departPos="5.10" departSpeed="0.00" departDelay="0.00" arrival="439.00" arrivalLane="C0bottom2_0" arrivalPos="286.40" arrivalSpeed="13.12" duration="345.00" routeLength="1782.72" waitingTime="191.00" waitingCount="3" stopTime="0.00" timeLoss="216.18" rerouteNo="0" devices="tripinfo_17" vType="DEFAULT_VEHTYPE" speedFactor="1.00" vaporized=""/>
    <tripinfo id="22" depart="105.00" departLane="right0D0_0" departPos="5.10" departSpeed="0.00" departDelay="0.00" arrival="440.00" arrivalLane="B3top1_0" arrivalPos="286.40" arrivalSpeed="13.17" duration="335.00" routeLength="2080.28" waitingTime="131.00" waitingCount="5" stopTime="0.00" timeLoss="176.88" rerouteNo="0" devices="tripinfo_22" vType="DEFAULT_VEHTYPE" speedFactor="0.96" vaporized=""/>
    <tripinfo id="40" depart="223.00" departLane="right2D2_0" departPos="5.10" departSpeed="0.00" departDelay="0.00" arrival="441.00" arrivalLane="D2right2_0" arrivalPos="286.40" arrivalSpeed="13.20" duration="218.00" routeLength="1748.75" waitingTime="47.00" waitingCount="5" stopTime="0.00" timeLoss="84.67" rerouteNo="0" devices="tripinfo_40" vType="DEFAULT_VEHTYPE" speedFactor="0.96" vaporized=""/>
    <tripinfo id="18" depart="96.00" departLane="right3D3_0" departPos="5.10" departSpeed="0.00" departDelay="0.00" arrival="448.00" arrivalLane="A0left0_0" arrivalPos="286.40" arrivalSpeed="14.03" duration="352.00" routeLength="2380.22" waitingTime="135.00" waitingCount="6" stopTime="0.00" timeLoss="184.38" rerouteNo="0" devices="tripinfo_18" vType="DEFAULT_VEHTYPE" speedFactor="1.03" vaporized=""/>
    <tripinfo id="48" depart="270.00" departLane="right1D1_0" departPos="5.10" departSpeed="0.00" departDelay="0.00" arrival="449.00" arrivalLane="A0left0_1" arrivalPos="286.40" arrivalSpeed="15.26" duration="179.00" routeLength="1782.59" waitingTime="30.00" waitingCount="3" stopTime="0.00" timeLoss="64.97" rerouteNo="0" devices="tripinfo_48" vType="DEFAULT_VEHTYPE" speedFactor="1.14" vaporized=""/>
    <tripinfo id="66" depart="349.00" departLane="bottom1B0_0" departPos="5.10" departSpeed="0.00" departDelay="0.00" arrival="450.00" arrivalLane="A0left0_0" arrivalPos="286.40" arrivalSpeed="15.14" duration="101.00" routeLength="895.01" waitingTime="28.00" waitingCount="1" stopTime="0.00" timeLoss="44.92" rerouteNo="0" devices="tripinfo_66" vType="DEFAULT_VEHTYPE" speedFactor="1.16" vaporized=""/>
    <tripinfo id="49" depart="274.00" departLane="top1B3_0" departPos="5.10" departSpeed="0.00" departDelay="0.00" arrival="452.00" arrivalLane="D3right3_0" arrivalPos="286.40" arrivalSpeed="11.11" duration="178.00" routeLength="1195.18" waitingTime="58.00" waitingCount="2" stopTime="0.00" timeLoss="80.39" rerouteNo="0" devices="tripinfo_49" vType="DEFAULT_VEHTYPE" speedFactor="0.89" vaporized=""/>
    <tripinfo id="68" depart="353.00" departLane="top2C3_0" departPos="5.10" departSpeed="0.00" departDelay="0.00" arrival="453.00" arrivalLane="D3right3_1" arrivalPos="286.40" arrivalSpeed="12.83" duration="100.00" routeLength="895.01" waitingTime="14.00" waitingCount="2" stopTime="0.00" timeLoss="31.52" rerouteNo="0" devices="tripinfo_68" vType="DEFAULT_VEHTYPE" speedFactor="0.95" vaporized=""/>
    <tripinfo id="71" depart="369.00" departLane="right1D1_0" departPos="5.10" departSpeed="0.00" departDelay="0.00" arrival="458.00" arrivalLane="D0bottom3_0" arrivalPos="286.40" arrivalSpeed="11.15" duration="89.00" routeLength="895.01" waitingTime="4.00" waitingCount="1" stopTime="0.00" timeLoss="15.20" rerouteNo="0" devices="tripinfo_71" vType="DEFAULT_VEHTYPE" speedFactor="0.89" vaporized=""/>
    <tripinfo id="44" depart="253.00" departLane="right2D2_0" departPos="5.10" departSpeed="0.00" departDelay="0.00" arrival="460.00" arrivalLane="B0bottom1_1" arrivalPos="286.40" arrivalSpeed="13.98" duration="207.00" routeLength="1795.52" waitingTime="60.00" waitingCount="3" stopTime="0.00" timeLoss="85.35" rerouteNo="0" devices="tripinfo_44" vType="DEFAULT_VEHTYPE" speedFactor="1.07" vaporized=""/>
    <tripinfo id="42" depart="236.00" departLane="top0A3_0" departPos="5.10" departSpeed="0.00" departDelay="0.00" arrival="463.00" arrivalLane="B0bottom1_0" arrivalPos="286.40" arrivalSpeed="10.53" duration="227.00" routeLength="1782.59" waitingTime="46.00" waitingCount="3" stopTime="0.00" timeLoss="74.18" rerouteNo="0" devices="tripinfo_42" vType="DEFAULT_VEHTYPE" speedFactor="0.85" vaporized=""/>
    <tripinfo id="56" depart="304.00" departLane="right2D2_0" departPos="5.10" departSpeed="0.00" departDelay="0.00" arrival="467.00" arrivalLane="A3top0_0" arrivalPos="286.40" arrivalSpeed="15.02" duration="163.00" routeLength="1780.11" waitingTime="10.00" waitingCount="4" stopTime="0.00" timeLoss="44.16" rerouteNo="0" devices="tripinfo_56" vType="DEFAULT_VEHTYPE" speedFactor="1.09" vaporized=""/>
    <tripinfo id="32" depart="171.00" departLane="left3A3_0" departPos="5.10" departSpeed="0.00" departDelay="0.00" arrival="470.00" arrivalLane="D1right1_1" arrivalPos="286.40" arrivalSpeed="13.74" duration="299.00" routeLength="2082.76" waitingTime="93.00" waitingCount="5" stopTime="0.00" timeLoss="157.38" rerouteNo="0" devices="tripinfo_32" vType="DEFAULT_VEHTYPE" speedFactor="1.07" vaporized=""/>
    <tripinfo id="21" depart="102.00" departLane="left3A3_0" departPos="5.10" departSpeed="0.00" departDelay="0.00" arrival="472.00" arrivalLane="D1right1_0" arrivalPos="286.40" arrivalSpeed="12.20" duration="370.00" routeLength="2082.76" waitingTime="157.00" waitingCount="6" stopTime="0.00" timeLoss="200.45" rerouteNo="0" devices="tripinfo_21" vType="DEFAULT_VEHTYPE" speedFactor="0.89" vaporized=""/>
    <tripinfo id="58" depart="315.00" departLane="right2D2_0" departPos="5.10" departSpeed="0.00" departDelay="0.00" arrival="478.00" arrivalLane="D2right2_0" arrivalPos="286.40" arrivalSpeed="14.67" duration="163.00" routeLength="1748.75" waitingTime="12.00" waitingCount="4" stopTime="0.00" timeLoss="42.64" rerouteNo="0" devices="tripinfo_58" vType="DEFAULT_VEHTYPE" speedFactor="1.07" vaporized=""/>
    <tripinfo id="54" depart="293.00" departLane="left0A0_0" departPos="5.10" departSpeed="0.00" departDelay="0.00" arrival="479.00" arrivalLane="A0left0_0" arrivalPos="286.40" arrivalSpeed="12.95" duration="186.00" routeLength="1745.91" waitingTime="22.00" waitingCount="5" stopTime="0.00" timeLoss="59.51" rerouteNo="0" devices="tripinfo_54" vType="DEFAULT_VEHTYPE" speedFactor="1.01" vaporized=""/>
    <tripinfo id="67" depart="350.00" departLane="bottom2C0_0" departPos="5.10" departSpeed="0.00" departDelay="0.00" arrival="488.00" arrivalLane="A0bottom0_0" arrivalPos="286.40" arrivalSpeed="13.98" duration="138.00" routeLength="1197.66" waitingTime="38.00" waitingCount="2" stopTime="0.00" timeLoss="54.64" rerouteNo="0" devices="tripinfo_67" vType="DEFAULT_VEHTYPE" speedFactor="1.05" vaporized=""/>
    <tripinfo id="65" depart="345.00" departLane="right2D2_0" departPos="5.10" departSpeed="0.00" departDelay="0.00" arrival="491.00" arrivalLane="A2left2_1" arrivalPos="286.40" arrivalSpeed="15.07" duration="146.00" routeLength="1495.58" waitingTime="25.00" waitingCount="2" stopTime="0.00" timeLoss="50.88" rerouteNo="0" devices="tripinfo_65" vType="DEFAULT_VEHTYPE" speedFactor="1.13" vaporized=""/>
    <tripinfo id="53" depart="292.00" departLane="top2C3_0" departPos="5.10" departSpeed="0.00" departDelay="0.00" arrival="492.00" arrivalLane="A2left2_0" arrivalPos="286.40" arrivalSpeed="12.84" duration="200.00" routeLength="1479.94" waitingTime="67.00" waitingCount="3" stopTime="0.00" timeLoss="91.58" rerouteNo="0" devices="tripinfo_53" vType="DEFAULT_VEHTYPE" speedFactor="0.99" vaporized=""/>
    <tripinfo id="31" depart="163.00" departLane="bottom1B0_0" departPos="5.10" departSpeed="0.00" departDelay="0.00" arrival="500.00" arrivalLane="A3top0_0" arrivalPos="286.40" arrivalSpeed="13.41" duration="337.00" routeLength="1782.59" waitingTime="176.00" waitingCount="3" stopTime="0.00" timeLoss="206.11" rerouteNo="0" devices="tripinfo_31" vType="DEFAULT_VEHTYPE" speedFactor="0.99" vaporized=""/>
    <tripinfo id="69" depart="358.00" departLane="bottom0A0_0" departPos="5.10" departSpeed="0.00" departDelay="0.00" arrival="500.00" arrivalLane="A3top0_1" arrivalPos="286.40" arrivalSpeed="15.45" duration="142.00" routeLength="1495.58" waitingTime="4.00" waitingCount="1" stopTime="0.00" timeLoss="50.26" rerouteNo="0" devices="tripinfo_69" vType="DEFAULT_VEHTYPE" speedFactor="1.18" vaporized=""/>
    <tripinfo id="77" depart="420.00" departLane="bottom0A0_0" departPos="5.10" departSpeed="0.00" departDelay="0.00" arrival="501.00" arrivalLane="B0bottom1_0" arrivalPos="286.40" arrivalSpeed="13.48" duration="81.00" routeLength="858.56" waitingTime="2.00" waitingCount="2" stopTime="0.00" timeLoss="16.34" rerouteNo="0" devices="tripinfo_77" vType="DEFAULT_VEHTYPE" speedFactor="0.97" vaporized=""/>
    <tripinfo id="41" depart="236.00" departLane="right0D0_0" departPos="5.10" departSpeed="0.00" departDelay="0.00" arrival="503.00" arrivalLane="A3top0_0" arrivalPos="286.40" arrivalSpeed="12.76" duration="267.00" routeLength="2380.45" waitingTime="36.00" waitingCount="5" stopTime="0.00" timeLoss="82.44" rerouteNo="0" devices="tripinfo_41" vType="DEFAULT_VEHTYPE" speedFactor="0.94" vaporized=""/>
    <tripinfo id="74" depart="385.00" departLane="left3A3_0" departPos="5.10" departSpeed="0.00" departDelay="0.00" arrival="507.00" arrivalLane="A1left1_0" arrivalPos="286.40" arrivalSpeed="13.77" duration="122.00" routeLength="1161.43" waitingTime="16.00" waitingCount="3" stopTime="0.00" timeLoss="36.58" rerouteNo="0" devices="tripinfo_74" vType="DEFAULT_VEHTYPE" speedFactor="1.00" vaporized=""/>
    <tripinfo id="62" depart="339.00" departLane="bottom3D0_0" departPos="5.10" departSpeed="0.00" departDelay="0.00" arrival="510.00" arrivalLane="A0left0_1" arrivalPos="286.40" arrivalSpeed="14.42" duration="171.00" routeLength="1495.35" waitingTime="30.00" waitingCount="2" stopTime="0.00" timeLoss="71.20" rerouteNo="0" devices="tripinfo_62" vType="DEFAULT_VEHTYPE" speedFactor="1.09" vaporized=""/>
    <tripinfo id="4" depart="37.00" departLane="top3D3_0" departPos="5.10" departSpeed="0.00" departDelay="0.00" arrival="511.00" arrivalLane="A0left0_0" arrivalPos="286.40" arrivalSpeed="12.28" duration="474.00" routeLength="2380.45" waitingTime="237.00" waitingCount="7" stopTime="0.00" timeLoss="289.56" rerouteNo="0" devices="tripinfo_4" vType="DEFAULT_VEHTYPE" speedFactor="0.94" vaporized=""/>
    <tripinfo id="43" depart="249.00" departLane="right1D1_0" departPos="5.10" departSpeed="0.00" departDelay="0.00" arrival="520.00" arrivalLane="A0bottom0_0" arrivalPos="286.40" arrivalSpeed="13.34" duration="271.00" routeLength="1795.52" waitingTime="104.00" waitingCount="4" stopTime="0.00" timeLoss="137.86" rerouteNo="0" devices="tripinfo_43" vType="DEFAULT_VEHTYPE" speedFactor="0.98" vaporized=""/>
    <tripinfo id="73" depart="383.00" departLane="bottom0A0_0" departPos="5.10" departSpeed="0.00" departDelay="0.00" arrival="528.00" arrivalLane="D0bottom3_0" arrivalPos="286.40" arrivalSpeed="14.57" duration="145.00" routeLength="1461.60" waitingTime="31.00" waitingCount="1" stopTime="0.00" timeLoss="50.19" rerouteNo="0" devices="tripinfo_73" vType="DEFAULT_VEHTYPE" speedFactor="1.12" vaporized=""/>
    <tripinfo id="64" depart="343.00" departLane="top3D3_0" departPos="5.10" departSpeed="0.00" departDelay="0.00" arrival="533.00" arrivalLane="D1right1_0" arrivalPos="286.40" arrivalSpeed="10.67" duration="190.00" routeLength="1197.89" waitingTime="68.00" waitingCount="3" stopTime="0.00" timeLoss="88.26" rerouteNo="0" devices="tripinfo_64" vType="DEFAULT_VEHTYPE" speedFactor="0.86" vaporized=""/>
    <tripinfo id="19" depart="100.00" departLane="bottom2C0_0" departPos="5.10" departSpeed="0.00" departDelay="0.00" arrival="535.00" arrivalLane="A3left3_0" arrivalPos="286.40" arrivalSpeed="15.90" duration="435.00" routeLength="2095.69" waitingTime="275.00" waitingCount="3" stopTime="0.00" timeLoss="304.85" rerouteNo="0" devices="tripinfo_19" vType="DEFAULT_VEHTYPE" speedFactor="1.16" vaporized=""/>
    <tripinfo id="75" depart="395.00" departLane="right3D3_0" departPos="5.10" departSpeed="0.00" departDelay="0.00" arrival="537.00" arrivalLane="B3top1_0" arrivalPos="286.40" arrivalSpeed="13.34" duration="142.00" routeLength="1177.07" waitingTime="35.00" waitingCount="3" stopTime="0.00" timeLoss="59.27" rerouteNo="0" devices="tripinfo_75" vType="DEFAULT_VEHTYPE" speedFactor="1.04" vaporized=""/>
    <tripinfo id="85" depart="437.00" departLane="left3A3_0" departPos="5.10" departSpeed="0.00" departDelay="0.00" arrival="537.00" arrivalLane="A1left1_0" arrivalPos="286.40" arrivalSpeed="14.48" duration="100.00" routeLength="1161.43" waitingTime="2.00" waitingCount="2" stopTime="0.00" timeLoss="18.64" rerouteNo="0" devices="tripinfo_85" vType="DEFAULT_VEHTYPE" speedFactor="1.05" vaporized=""/>
    <tripinfo id="63" depart="340.00" departLane="top3D3_0" departPos="5.10" departSpeed="0.00" departDelay="0.00" arrival="539.00" arrivalLane="C0bottom2_0" arrivalPos="286.40" arrivalSpeed="13.57" duration="199.00" routeLength="1782.72" waitingTime="44.00" waitingCount="3" stopTime="0.00" timeLoss="70.57" rerouteNo="0" devices="tripinfo_63" vType="DEFAULT_VEHTYPE" speedFactor="1.01" vaporized=""/>
    <tripinfo id="70" depart="364.00" departLane="right0D0_0" departPos="5.10" departSpeed="0.00" departDelay="0.00" arrival="540.00" arrivalLane="D3right3_0" arrivalPos="286.40" arrivalSpeed="16.00" duration="176.00" routeLength="1461.60" waitingTime="57.00" waitingCount="3" stopTime="0.00" timeLoss="89.33" rerouteNo="0" devices="tripinfo_70" vType="DEFAULT_VEHTYPE" speedFactor="1.23" vaporized=""/>
    <tripinfo id="47" depart="269.00" departLane="right0D0_0" departPos="5.10" departSpeed="0.00" departDelay="2.00" arrival="541.00" arrivalLane="B3top1_0" arrivalPos="286.40" arrivalSpeed="12.18" duration="272.00" routeLength="2080.28" waitingTime="66.00" waitingCount="5" stopTime="0.00" timeLoss="108.51" rerouteNo="0" devices="tripinfo_47" vType="DEFAULT_VEHTYPE" speedFactor="0.92" vaporized=""/>
    <tripinfo id="23" depart="114.00" departLane="bottom1B0_0" departPos="5.10" departSpeed="0.00" departDelay="0.00" arrival="559.00" arrivalLane="D3right3_0" arrivalPos="286.40" arrivalSpeed="13.45" duration="445.00" routeLength="2080.28" waitingTime="250.00" waitingCount="6" stopTime="0.00" timeLoss="295.05" rerouteNo="0" devices="tripinfo_23" vType="DEFAULT_VEHTYPE" speedFactor="1.00" vaporized=""/>
    <tripinfo id="60" depart="334.00" departLane="bottom3D0_0" departPos="5.10" departSpeed="0.00" departDelay="0.00" arrival="560.00" arrivalLane="A0bottom0_0" arrivalPos="286.40" arrivalSpeed="12.92" duration="226.00" routeLength="1497.83" waitingTime="85.00" waitingCount="3" stopTime="0.00" timeLoss="117.32" rerouteNo="0" devices="tripinfo_60" vType="DEFAULT_VEHTYPE" speedFactor="1.01" vaporized=""/>
    <tripinfo id="97" depart="482.00" departLane="bottom2C0_0" departPos="5.10" departSpeed="0.00" departDelay="0.00" arrival="561.00" arrivalLane="B0bottom1_0" arrivalPos="286.40" arrivalSpeed="12.42" duration="79.00" routeLength="894.86" waitingTime="0.00" waitingCount="0" stopTime="0.00" timeLoss="7.19" rerouteNo="0" devices="tripinfo_97" vType="DEFAULT_VEHTYPE" speedFactor="0.91" vaporized=""/>
    <tripinfo id="30" depart="157.00" departLane="left0A0_0" departPos="5.10" departSpeed="0.00" departDelay="0.00" arrival="563.00" arrivalLane="D3right3_0" arrivalPos="286.40" arrivalSpeed="12.65" duration="406.00" routeLength="2380.22" waitingTime="175.00" waitingCount="5" stopTime="0.00" timeLoss="217.39" rerouteNo="0" devices="tripinfo_30" vType="DEFAULT_VEHTYPE" speedFactor="0.91" vaporized=""/>