<?xml version="1.0" encoding="UTF-8"?>

<!-- generated on 2023-08-30 11:58:13 by Eclipse SUMO libsumo Version 1.18.0
<configuration xmlns:xsi="http://www.w3.org/2001/XMLSchema-instance" xsi:noNamespaceSchemaLocation="http://sumo.dlr.de/xsd/libsumoConfiguration.xsd">

    <input>
        <net-file value="/home/stefan/RESCO/./environments/grid4x4/grid4x4.net.xml"/>
        <route-files value="/home/stefan/RESCO/./environments/grid4x4/grid4x4_21.rou.xml"/>
    </input>

    <output>
        <tripinfo-output value="/home/stefan/results/ITRPO-tr0-grid4x4-0-drq_norm-wait_norm/tripinfo_21.xml"/>
        <tripinfo-output.write-unfinished value="true"/>
    </output>

    <processing>
        <time-to-teleport value="-1"/>
    </processing>

    <report>
        <no-warnings value="True"/>
        <no-step-log value="True"/>
    </report>

    <random_number>
        <random value="true"/>
    </random_number>

</configuration>
-->

<tripinfos xmlns:xsi="http://www.w3.org/2001/XMLSchema-instance" xsi:noNamespaceSchemaLocation="http://sumo.dlr.de/xsd/tripinfo_file.xsd">
    <tripinfo id="1" depart="10.00" departLane="left3A3_0" departPos="5.10" departSpeed="0.00" departDelay="0.00" arrival="87.00" arrivalLane="A2left2_0" arrivalPos="286.40" arrivalSpeed="12.96" duration="77.00" routeLength="858.56" waitingTime="1.00" waitingCount="1" stopTime="0.00" timeLoss="13.51" rerouteNo="0" devices="tripinfo_1" vType="DEFAULT_VEHTYPE" speedFactor="1.00" vaporized=""/>
    <tripinfo id="10" depart="62.00" departLane="right0D0_0" departPos="5.10" departSpeed="0.00" departDelay="0.00" arrival="169.00" arrivalLane="C0bottom2_0" arrivalPos="286.40" arrivalSpeed="13.39" duration="107.00" routeLength="897.72" waitingTime="28.00" waitingCount="2" stopTime="0.00" timeLoss="43.80" rerouteNo="0" devices="tripinfo_10" vType="DEFAULT_VEHTYPE" speedFactor="1.04" vaporized=""/>
    <tripinfo id="20" depart="105.00" departLane="bottom1B0_0" departPos="5.10" departSpeed="0.00" departDelay="0.00" arrival="181.00" arrivalLane="C0bottom2_0" arrivalPos="286.40" arrivalSpeed="15.10" duration="76.00" routeLength="858.56" waitingTime="2.00" waitingCount="2" stopTime="0.00" timeLoss="18.78" rerouteNo="0" devices="tripinfo_20" vType="DEFAULT_VEHTYPE" speedFactor="1.11" vaporized=""/>
    <tripinfo id="5" depart="31.00" departLane="bottom0A0_0" departPos="5.10" departSpeed="0.00" departDelay="0.00" arrival="187.00" arrivalLane="D0bottom3_0" arrivalPos="286.40" arrivalSpeed="12.91" duration="156.00" routeLength="1461.60" waitingTime="20.00" waitingCount="4" stopTime="0.00" timeLoss="49.31" rerouteNo="0" devices="tripinfo_5" vType="DEFAULT_VEHTYPE" speedFactor="1.00" vaporized=""/>
    <tripinfo id="6" depart="34.00" departLane="bottom0A0_0" departPos="5.10" departSpeed="0.00" departDelay="0.00" arrival="208.00" arrivalLane="A2left2_0" arrivalPos="286.40" arrivalSpeed="14.30" duration="174.00" routeLength="1197.89" waitingTime="66.00" waitingCount="3" stopTime="0.00" timeLoss="92.10" rerouteNo="0" devices="tripinfo_6" vType="DEFAULT_VEHTYPE" speedFactor="1.07" vaporized=""/>
    <tripinfo id="18" depart="95.00" departLane="left1A1_0" departPos="5.10" departSpeed="0.00" departDelay="0.00" arrival="209.00" arrivalLane="A2left2_1" arrivalPos="286.40" arrivalSpeed="14.67" duration="114.00" routeLength="894.86" waitingTime="37.00" waitingCount="2" stopTime="0.00" timeLoss="56.00" rerouteNo="0" devices="tripinfo_18" vType="DEFAULT_VEHTYPE" speedFactor="1.13" vaporized=""/>
    <tripinfo id="29" depart="122.00" departLane="bottom3D0_0" departPos="5.10" departSpeed="0.00" departDelay="0.00" arrival="219.00" arrivalLane="D1right1_0" arrivalPos="286.40" arrivalSpeed="13.34" duration="97.00" routeLength="876.90" waitingTime="16.00" waitingCount="2" stopTime="0.00" timeLoss="32.27" rerouteNo="0" devices="tripinfo_29" vType="DEFAULT_VEHTYPE" speedFactor="0.99" vaporized=""/>
    <tripinfo id="16" depart="88.00" departLane="left1A1_0" departPos="5.10" departSpeed="0.00" departDelay="0.00" arrival="232.00" arrivalLane="B0bottom1_0" arrivalPos="286.40" arrivalSpeed="11.40" duration="144.00" routeLength="1179.77" waitingTime="22.00" waitingCount="3" stopTime="0.00" timeLoss="45.66" rerouteNo="0" devices="tripinfo_16" vType="DEFAULT_VEHTYPE" speedFactor="0.87" vaporized=""/>
    <tripinfo id="24" depart="112.00" departLane="bottom0A0_0" departPos="5.10" departSpeed="0.00" departDelay="0.00" arrival="233.00" arrivalLane="C0bottom2_0" arrivalPos="286.40" arrivalSpeed="11.23" duration="121.00" routeLength="1161.43" waitingTime="2.00" waitingCount="2" stopTime="0.00" timeLoss="20.62" rerouteNo="0" devices="tripinfo_24" vType="DEFAULT_VEHTYPE" speedFactor="0.85" vaporized=""/>
    <tripinfo id="14" depart="77.00" departLane="left3A3_0" departPos="5.10" departSpeed="0.00" departDelay="0.00" arrival="250.00" arrivalLane="C3top2_0" arrivalPos="286.40" arrivalSpeed="13.67" duration="173.00" routeLength="1197.89" waitingTime="64.00" waitingCount="2" stopTime="0.00" timeLoss="85.49" rerouteNo="0" devices="tripinfo_14" vType="DEFAULT_VEHTYPE" speedFactor="1.00" vaporized=""/>
    <tripinfo id="28" depart="119.00" departLane="left0A0_0" departPos="5.10" departSpeed="0.00" departDelay="0.00" arrival="259.00" arrivalLane="A3left3_0" arrivalPos="286.40" arrivalSpeed="13.86" duration="140.00" routeLength="1497.83" waitingTime="16.00" waitingCount="2" stopTime="0.00" timeLoss="39.08" rerouteNo="0" devices="tripinfo_28" vType="DEFAULT_VEHTYPE" speedFactor="1.09" vaporized=""/>
    <tripinfo id="11" depart="67.00" departLane="bottom0A0_0" departPos="5.10" departSpeed="0.00" departDelay="0.00" arrival="262.00" arrivalLane="A0bottom0_0" arrivalPos="286.40" arrivalSpeed="12.14" duration="195.00" routeLength="1748.75" waitingTime="25.00" waitingCount="4" stopTime="0.00" timeLoss="55.58" rerouteNo="0" devices="tripinfo_11" vType="DEFAULT_VEHTYPE" speedFactor="0.93" vaporized=""/>
    <tripinfo id="4" depart="20.00" departLane="right3D3_0" departPos="5.10" departSpeed="0.00" departDelay="0.00" arrival="269.00" arrivalLane="D0bottom3_0" arrivalPos="286.40" arrivalSpeed="13.56" duration="249.00" routeLength="1495.35" waitingTime="111.00" waitingCount="4" stopTime="0.00" timeLoss="139.03" rerouteNo="0" devices="tripinfo_4" vType="DEFAULT_VEHTYPE" speedFactor="0.98" vaporized=""/>
    <tripinfo id="21" depart="106.00" departLane="right1D1_0" departPos="5.10" departSpeed="0.00" departDelay="0.00" arrival="271.00" arrivalLane="C0bottom2_0" arrivalPos="286.40" arrivalSpeed="12.87" duration="165.00" routeLength="1195.18" waitingTime="48.00" waitingCount="2" stopTime="0.00" timeLoss="71.40" rerouteNo="0" devices="tripinfo_21" vType="DEFAULT_VEHTYPE" speedFactor="0.93" vaporized=""/>
    <tripinfo id="49" depart="221.00" departLane="top2C3_0" departPos="5.10" departSpeed="0.00" departDelay="0.00" arrival="299.00" arrivalLane="D3right3_1" arrivalPos="286.40" arrivalSpeed="15.22" duration="78.00" routeLength="895.01" waitingTime="5.00" waitingCount="1" stopTime="0.00" timeLoss="20.43" rerouteNo="0" devices="tripinfo_49" vType="DEFAULT_VEHTYPE" speedFactor="1.14" vaporized=""/>
    <tripinfo id="17" depart="93.00" departLane="right3D3_0" departPos="5.10" departSpeed="0.00" departDelay="0.00" arrival="303.00" arrivalLane="D3right3_0" arrivalPos="286.40" arrivalSpeed="11.50" duration="210.00" routeLength="1745.91" waitingTime="29.00" waitingCount="5" stopTime="0.00" timeLoss="61.02" rerouteNo="0" devices="tripinfo_17" vType="DEFAULT_VEHTYPE" speedFactor="0.86" vaporized=""/>
    <tripinfo id="61" depart="269.00" departLane="right3D3_0" departPos="5.10" departSpeed="0.00" departDelay="0.00" arrival="315.00" arrivalLane="D3top3_0" arrivalPos="286.40" arrivalSpeed="14.44" duration="46.00" routeLength="576.73" waitingTime="0.00" waitingCount="0" stopTime="0.00" timeLoss="7.12" rerouteNo="0" devices="tripinfo_61" vType="DEFAULT_VEHTYPE" speedFactor="1.11" vaporized=""/>
    <tripinfo id="30" depart="125.00" departLane="top3D3_0" departPos="5.10" departSpeed="0.00" departDelay="0.00" arrival="321.00" arrivalLane="A3left3_1" arrivalPos="286.40" arrivalSpeed="14.16" duration="196.00" routeLength="1479.94" waitingTime="62.00" waitingCount="4" stopTime="0.00" timeLoss="94.42" rerouteNo="0" devices="tripinfo_30" vType="DEFAULT_VEHTYPE" speedFactor="1.06" vaporized=""/>
    <tripinfo id="3" depart="17.00" departLane="bottom1B0_0" departPos="5.10" departSpeed="0.00" departDelay="0.00" arrival="323.00" arrivalLane="A3left3_0" arrivalPos="286.40" arrivalSpeed="10.89" duration="306.00" routeLength="1795.52" waitingTime="123.00" waitingCount="4" stopTime="0.00" timeLoss="157.07" rerouteNo="0" devices="tripinfo_3" vType="DEFAULT_VEHTYPE" speedFactor="0.88" vaporized=""/>
    <tripinfo id="26" depart="114.00" departLane="top1B3_0" departPos="5.10" departSpeed="0.00" departDelay="0.00" arrival="331.00" arrivalLane="D2right2_0" arrivalPos="286.40" arrivalSpeed="11.66" duration="217.00" routeLength="1495.35" waitingTime="80.00" waitingCount="2" stopTime="0.00" timeLoss="99.02" rerouteNo="0" devices="tripinfo_26" vType="DEFAULT_VEHTYPE" speedFactor="0.92" vaporized=""/>
    <tripinfo id="41" depart="201.00" departLane="left3A3_0" departPos="5.10" departSpeed="0.00" departDelay="0.00" arrival="338.00" arrivalLane="A1left1_0" arrivalPos="286.40" arrivalSpeed="13.53" duration="137.00" routeLength="1161.43" waitingTime="30.00" waitingCount="3" stopTime="0.00" timeLoss="52.70" rerouteNo="0" devices="tripinfo_41" vType="DEFAULT_VEHTYPE" speedFactor="1.01" vaporized=""/>
    <tripinfo id="27" depart="115.00" departLane="top3D3_0" departPos="5.10" departSpeed="0.00" departDelay="0.00" arrival="340.00" arrivalLane="D3top3_0" arrivalPos="286.40" arrivalSpeed="13.77" duration="225.00" routeLength="1748.75" waitingTime="61.00" waitingCount="5" stopTime="0.00" timeLoss="95.13" rerouteNo="0" devices="tripinfo_27" vType="DEFAULT_VEHTYPE" speedFactor="0.99" vaporized=""/>
    <tripinfo id="2" depart="13.00" departLane="top0A3_0" departPos="5.10" departSpeed="0.00" departDelay="0.00" arrival="341.00" arrivalLane="D1right1_0" arrivalPos="286.40" arrivalSpeed="12.74" duration="328.00" routeLength="2095.69" waitingTime="129.00" waitingCount="5" stopTime="0.00" timeLoss="168.60" rerouteNo="0" devices="tripinfo_2" vType="DEFAULT_VEHTYPE" speedFactor="0.95" vaporized=""/>
    <tripinfo id="36" depart="180.00" departLane="bottom1B0_0" departPos="5.10" departSpeed="0.00" departDelay="0.00" arrival="341.00" arrivalLane="D1right1_1" arrivalPos="286.40" arrivalSpeed="13.63" duration="161.00" routeLength="1479.94" waitingTime="28.00" waitingCount="2" stopTime="0.00" timeLoss="57.72" rerouteNo="0" devices="tripinfo_36" vType="DEFAULT_VEHTYPE" speedFactor="1.04" vaporized=""/>
    <tripinfo id="59" depart="259.00" departLane="top2C3_0" departPos="5.10" departSpeed="0.00" departDelay="0.00" arrival="342.00" arrivalLane="D3top3_0" arrivalPos="286.40" arrivalSpeed="12.33" duration="83.00" routeLength="894.86" waitingTime="2.00" waitingCount="1" stopTime="0.00" timeLoss="15.21" rerouteNo="0" devices="tripinfo_59" vType="DEFAULT_VEHTYPE" speedFactor="0.97" vaporized=""/>
    <tripinfo id="39" depart="198.00" departLane="top2C3_0" departPos="5.10" departSpeed="0.00" departDelay="0.00" arrival="349.00" arrivalLane="A2left2_1" arrivalPos="286.40" arrivalSpeed="15.02" duration="151.00" routeLength="1479.94" waitingTime="26.00" waitingCount="2" stopTime="0.00" timeLoss="53.32" rerouteNo="0" devices="tripinfo_39" vType="DEFAULT_VEHTYPE" speedFactor="1.10" vaporized=""/>
    <tripinfo id="8" depart="42.00" departLane="bottom2C0_0" departPos="5.10" departSpeed="0.00" departDelay="0.00" arrival="354.00" arrivalLane="A2left2_0" arrivalPos="286.40" arrivalSpeed="11.27" duration="312.00" routeLength="1795.52" waitingTime="124.00" waitingCount="4" stopTime="0.00" timeLoss="153.29" rerouteNo="0" devices="tripinfo_8" vType="DEFAULT_VEHTYPE" speedFactor="0.82" vaporized=""/>
    <tripinfo id="13" depart="76.00" departLane="bottom3D0_0" departPos="5.10" departSpeed="0.00" departDelay="0.00" arrival="361.00" arrivalLane="D3top3_0" arrivalPos="286.40" arrivalSpeed="12.01" duration="285.00" routeLength="1495.58" waitingTime="137.00" waitingCount="4" stopTime="0.00" timeLoss="166.93" rerouteNo="0" devices="tripinfo_13" vType="DEFAULT_VEHTYPE" speedFactor="0.91" vaporized=""/>
    <tripinfo id="12" depart="70.00" departLane="left2A2_0" departPos="5.10" departSpeed="0.00" departDelay="0.00" arrival="367.00" arrivalLane="A3top0_0" arrivalPos="286.40" arrivalSpeed="14.82" duration="297.00" routeLength="895.01" waitingTime="221.00" waitingCount="2" stopTime="0.00" timeLoss="237.81" rerouteNo="0" devices="tripinfo_12" vType="DEFAULT_VEHTYPE" speedFactor="1.10" vaporized=""/>
    <tripinfo id="25" depart="114.00" departLane="top2C3_0" departPos="5.10" departSpeed="0.00" departDelay="0.00" arrival="368.00" arrivalLane="C0bottom2_0" arrivalPos="286.40" arrivalSpeed="13.95" duration="254.00" routeLength="1495.58" waitingTime="121.00" waitingCount="3" stopTime="0.00" timeLoss="148.43" rerouteNo="0" devices="tripinfo_25" vType="DEFAULT_VEHTYPE" speedFactor="1.02" vaporized=""/>
    <tripinfo id="47" depart="214.00" departLane="right3D3_0" departPos="5.10" departSpeed="0.00" departDelay="0.00" arrival="376.00" arrivalLane="B3top1_0" arrivalPos="286.40" arrivalSpeed="14.20" duration="162.00" routeLength="1177.07" waitingTime="53.00" waitingCount="3" stopTime="0.00" timeLoss="80.03" rerouteNo="0" devices="tripinfo_47" vType="DEFAULT_VEHTYPE" speedFactor="1.04" vaporized=""/>
    <tripinfo id="15" depart="79.00" departLane="left1A1_0" departPos="5.10" departSpeed="0.00" departDelay="0.00" arrival="377.00" arrivalLane="C0bottom2_0" arrivalPos="286.40" arrivalSpeed="9.86" duration="298.00" routeLength="1479.94" waitingTime="137.00" waitingCount="3" stopTime="0.00" timeLoss="158.67" rerouteNo="0" devices="tripinfo_15" vType="DEFAULT_VEHTYPE" speedFactor="0.77" vaporized=""/>
    <tripinfo id="52" depart="229.00" departLane="right2D2_0" departPos="5.10" departSpeed="0.00" departDelay="0.00" arrival="378.00" arrivalLane="C3top2_0" arrivalPos="286.40" arrivalSpeed="13.80" duration="149.00" routeLength="1179.77" waitingTime="40.00" waitingCount="2" stopTime="0.00" timeLoss="68.23" rerouteNo="0" devices="tripinfo_52" vType="DEFAULT_VEHTYPE" speedFactor="1.07" vaporized=""/>
    <tripinfo id="55" depart="248.00" departLane="right3D3_0" departPos="5.10" departSpeed="0.00" departDelay="0.00" arrival="386.00" arrivalLane="B3top1_0" arrivalPos="286.40" arrivalSpeed="12.33" duration="138.00" routeLength="1177.07" waitingTime="14.00" waitingCount="4" stopTime="0.00" timeLoss="45.54" rerouteNo="0" devices="tripinfo_55" vType="DEFAULT_VEHTYPE" speedFactor="0.93" vaporized=""/>
    <tripinfo id="44" depart="206.00" departLane="right3D3_0" departPos="5.10" departSpeed="0.00" departDelay="0.00" arrival="387.00" arrivalLane="A3top0_0" arrivalPos="286.40" arrivalSpeed="13.76" duration="181.00" routeLength="1477.24" waitingTime="47.00" waitingCount="3" stopTime="0.00" timeLoss="74.66" rerouteNo="0" devices="tripinfo_44" vType="DEFAULT_VEHTYPE" speedFactor="1.01" vaporized=""/>
    <tripinfo id="45" depart="206.00" departLane="top3D3_0" departPos="5.10" departSpeed="0.00" departDelay="0.00" arrival="388.00" arrivalLane="D3top3_0" arrivalPos="286.40" arrivalSpeed="13.64" duration="182.00" routeLength="1748.75" waitingTime="20.00" waitingCount="4" stopTime="0.00" timeLoss="62.35" rerouteNo="0" devices="tripinfo_45" vType="DEFAULT_VEHTYPE" speedFactor="1.07" vaporized=""/>
    <tripinfo id="57" depart="252.00" departLane="bottom3D0_0" departPos="5.10" departSpeed="0.00" departDelay="0.00" arrival="388.00" arrivalLane="A0bottom0_1" arrivalPos="286.40" arrivalSpeed="14.67" duration="136.00" routeLength="1497.83" waitingTime="13.00" waitingCount="2" stopTime="0.00" timeLoss="41.12" rerouteNo="0" devices="tripinfo_57" vType="DEFAULT_VEHTYPE" speedFactor="1.15" vaporized=""/>
    <tripinfo id="9" depart="54.00" departLane="top3D3_0" departPos="5.10" departSpeed="0.00" departDelay="0.00" arrival="390.00" arrivalLane="A0bottom0_0" arrivalPos="286.40" arrivalSpeed="12.72" duration="336.00" routeLength="2382.93" waitingTime="103.00" waitingCount="6" stopTime="0.00" timeLoss="153.85" rerouteNo="0" devices="tripinfo_9" vType="DEFAULT_VEHTYPE" speedFactor="0.95" vaporized=""/>
    <tripinfo id="0" depart="0.00" departLane="left0A0_0" departPos="5.10" departSpeed="0.00" departDelay="0.00" arrival="402.00" arrivalLane="D3top3_0" arrivalPos="286.40" arrivalSpeed="11.77" duration="402.00" routeLength="2395.86" waitingTime="162.00" waitingCount="6" stopTime="0.00" timeLoss="210.65" rerouteNo="0" devices="tripinfo_0" vType="DEFAULT_VEHTYPE" speedFactor="0.91" vaporized=""/>
    <tripinfo id="23" depart="109.00" departLane="bottom2C0_0" departPos="5.10" departSpeed="0.00" departDelay="0.00" arrival="404.00" arrivalLane="D3top3_0" arrivalPos="286.40" arrivalSpeed="11.69" duration="295.00" routeLength="1782.72" waitingTime="111.00" waitingCount="4" stopTime="0.00" timeLoss="148.36" rerouteNo="0" devices="tripinfo_23" vType="DEFAULT_VEHTYPE" speedFactor="0.89" vaporized=""/>
    <tripinfo id="54" depart="237.00" departLane="top1B3_0" departPos="5.10" departSpeed="0.00" departDelay="0.00" arrival="409.00" arrivalLane="B3top1_0" arrivalPos="286.40" arrivalSpeed="14.42" duration="172.00" routeLength="1748.75" waitingTime="23.00" waitingCount="3" stopTime="0.00" timeLoss="49.05" rerouteNo="0" devices="tripinfo_54" vType="DEFAULT_VEHTYPE" speedFactor="1.05" vaporized=""/>
    <tripinfo id="64" depart="289.00" departLane="top2C3_0" departPos="5.10" departSpeed="0.00" departDelay="0.00" arrival="417.00" arrivalLane="A3top0_0" arrivalPos="286.40" arrivalSpeed="13.42" duration="128.00" routeLength="1161.43" waitingTime="18.00" waitingCount="3" stopTime="0.00" timeLoss="40.87" rerouteNo="0" devices="tripinfo_64" vType="DEFAULT_VEHTYPE" speedFactor="0.98" vaporized=""/>
    <tripinfo id="42" depart="202.00" departLane="right0D0_0" departPos="5.10" departSpeed="0.00" departDelay="0.00" arrival="418.00" arrivalLane="A0left0_0" arrivalPos="286.40" arrivalSpeed="14.63" duration="216.00" routeLength="1495.58" waitingTime="81.00" waitingCount="4" stopTime="0.00" timeLoss="114.38" rerouteNo="0" devices="tripinfo_42" vType="DEFAULT_VEHTYPE" speedFactor="1.06" vaporized=""/>
    <tripinfo id="34" depart="161.00" departLane="left0A0_0" departPos="5.10" departSpeed="0.00" departDelay="0.00" arrival="420.00" arrivalLane="A0left0_0" arrivalPos="286.40" arrivalSpeed="14.37" duration="259.00" routeLength="1745.91" waitingTime="104.00" waitingCount="4" stopTime="0.00" timeLoss="138.33" rerouteNo="0" devices="tripinfo_34" vType="DEFAULT_VEHTYPE" speedFactor="1.06" vaporized=""/>
    <tripinfo id="46" depart="209.00" departLane="top1B3_0" departPos="5.10" departSpeed="0.00" departDelay="0.00" arrival="425.00" arrivalLane="A0left0_0" arrivalPos="286.40" arrivalSpeed="12.86" duration="216.00" routeLength="1780.11" waitingTime="52.00" waitingCount="3" stopTime="0.00" timeLoss="79.90" rerouteNo="0" devices="tripinfo_46" vType="DEFAULT_VEHTYPE" speedFactor="0.95" vaporized=""/>
    <tripinfo id="32" depart="153.00" departLane="right0D0_0" departPos="5.10" departSpeed="0.00" departDelay="0.00" arrival="429.00" arrivalLane="A3left3_0" arrivalPos="286.40" arrivalSpeed="14.41" duration="276.00" routeLength="2382.93" waitingTime="65.00" waitingCount="6" stopTime="0.00" timeLoss="111.51" rerouteNo="0" devices="tripinfo_32" vType="DEFAULT_VEHTYPE" speedFactor="1.05" vaporized=""/>
    <tripinfo id="60" depart="268.00" departLane="top1B3_0" departPos="5.10" departSpeed="0.00" departDelay="0.00" arrival="429.00" arrivalLane="B0bottom1_0" arrivalPos="286.40" arrivalSpeed="13.34" duration="161.00" routeLength="1495.58" waitingTime="30.00" waitingCount="2" stopTime="0.00" timeLoss="52.85" rerouteNo="0" devices="tripinfo_60" vType="DEFAULT_VEHTYPE" speedFactor="1.00" vaporized=""/>
    <tripinfo id="53" depart="236.00" departLane="left0A0_0" departPos="5.10" departSpeed="0.00" departDelay="0.00" arrival="430.00" arrivalLane="A3top0_0" arrivalPos="286.40" arrivalSpeed="13.37" duration="194.00" routeLength="1495.35" waitingTime="59.00" waitingCount="2" stopTime="0.00" timeLoss="83.45" rerouteNo="0" devices="tripinfo_53" vType="DEFAULT_VEHTYPE" speedFactor="0.98" vaporized=""/>
    <tripinfo id="40" depart="200.00" departLane="right2D2_0" departPos="5.10" departSpeed="0.00" departDelay="1.00" arrival="431.00" arrivalLane="B0bottom1_0" arrivalPos="286.40" arrivalSpeed="13.39" duration="231.00" routeLength="1795.52" waitingTime="72.00" waitingCount="3" stopTime="0.00" timeLoss="101.64" rerouteNo="0" devices="tripinfo_40" vType="DEFAULT_VEHTYPE" speedFactor="1.00" vaporized=""/>
    <tripinfo id="56" depart="250.00" departLane="top0A3_0" departPos="5.10" departSpeed="0.00" departDelay="0.00" arrival="437.00" arrivalLane="A0left0_0" arrivalPos="286.40" arrivalSpeed="11.56" duration="187.00" routeLength="1477.24" waitingTime="43.00" waitingCount="3" stopTime="0.00" timeLoss="69.05" rerouteNo="0" devices="tripinfo_56" vType="DEFAULT_VEHTYPE" speedFactor="0.91" vaporized=""/>
    <tripinfo id="77" depart="336.00" departLane="bottom0A0_0" departPos="5.10" departSpeed="0.00" departDelay="0.00" arrival="439.00" arrivalLane="A1left1_0" arrivalPos="286.40" arrivalSpeed="12.87" duration="103.00" routeLength="897.72" waitingTime="21.00" waitingCount="2" stopTime="0.00" timeLoss="36.98" rerouteNo="0" devices="tripinfo_77" vType="DEFAULT_VEHTYPE" speedFactor="0.99" vaporized=""/>
    <tripinfo id="79" depart="352.00" departLane="top1B3_0" departPos="5.10" departSpeed="0.00" departDelay="0.00" arrival="448.00" arrivalLane="A3top0_0" arrivalPos="286.40" arrivalSpeed="10.94" duration="96.00" routeLength="858.56" waitingTime="8.00" waitingCount="2" stopTime="0.00" timeLoss="23.44" rerouteNo="0" devices="tripinfo_79" vType="DEFAULT_VEHTYPE" speedFactor="0.87" vaporized=""/>
    <tripinfo id="51" depart="225.00" departLane="right2D2_0" departPos="5.10" departSpeed="0.00" departDelay="0.00" arrival="451.00" arrivalLane="D2right2_0" arrivalPos="286.40" arrivalSpeed="12.08" duration="226.00" routeLength="1748.75" waitingTime="58.00" waitingCount="4" stopTime="0.00" timeLoss="92.40" rerouteNo="0" devices="tripinfo_51" vType="DEFAULT_VEHTYPE" speedFactor="0.96" vaporized=""/>
    <tripinfo id="43" depart="205.00" departLane="top0A3_0" departPos="5.10" departSpeed="0.00" departDelay="0.00" arrival="460.00" arrivalLane="D2right2_0" arrivalPos="286.40" arrivalSpeed="12.71" duration="255.00" routeLength="1795.52" waitingTime="87.00" waitingCount="4" stopTime="0.00" timeLoss="116.02" rerouteNo="0" devices="tripinfo_43" vType="DEFAULT_VEHTYPE" speedFactor="0.94" vaporized=""/>
    <tripinfo id="35" depart="180.00" departLane="bottom0A0_0" departPos="5.10" departSpeed="0.00" departDelay="0.00" arrival="461.00" arrivalLane="D3right3_0" arrivalPos="286.40" arrivalSpeed="14.48" duration="281.00" routeLength="2380.45" waitingTime="75.00" waitingCount="5" stopTime="0.00" timeLoss="119.58" rerouteNo="0" devices="tripinfo_35" vType="DEFAULT_VEHTYPE" speedFactor="1.07" vaporized=""/>
    <tripinfo id="33" depart="156.00" departLane="bottom3D0_0" departPos="5.10" departSpeed="0.00" departDelay="0.00" arrival="462.00" arrivalLane="C3top2_0" arrivalPos="286.40" arrivalSpeed="11.64" duration="306.00" routeLength="1782.59" waitingTime="133.00" waitingCount="3" stopTime="0.00" timeLoss="161.95" rerouteNo="0" devices="tripinfo_33" vType="DEFAULT_VEHTYPE" speedFactor="0.90" vaporized=""/>
    <tripinfo id="7" depart="39.00" departLane="left1A1_0" departPos="5.10" departSpeed="0.00" departDelay="0.00" arrival="463.00" arrivalLane="C3top2_1" arrivalPos="286.40" arrivalSpeed="12.49" duration="424.00" routeLength="1795.52" waitingTime="259.00" waitingCount="4" stopTime="0.00" timeLoss="292.64" rerouteNo="0" devices="tripinfo_7" vType="DEFAULT_VEHTYPE" speedFactor="0.99" vaporized=""/>
    <tripinfo id="31" depart="136.00" departLane="top2C3_0" departPos="5.10" departSpeed="0.00" departDelay="0.00" arrival="488.00" arrivalLane="D0right0_0" arrivalPos="286.40" arrivalSpeed="13.94" duration="352.00" routeLength="1795.52" waitingTime="203.00" waitingCount="3" stopTime="0.00" timeLoss="229.53" rerouteNo="0" devices="tripinfo_31" vType="DEFAULT_VEHTYPE" speedFactor="1.06" vaporized=""/>
    <tripinfo id="58" depart="253.00" departLane="bottom0A0_0" departPos="5.10" departSpeed="0.00" departDelay="0.00" arrival="488.00" arrivalLane="A3top0_0" arrivalPos="286.40" arrivalSpeed="13.48" duration="235.00" routeLength="1495.58" waitingTime="106.00" waitingCount="3" stopTime="0.00" timeLoss="131.01" rerouteNo="0" devices="tripinfo_58" vType="DEFAULT_VEHTYPE" speedFactor="1.04" vaporized=""/>
    <tripinfo id="76" depart="335.00" departLane="left3A3_0" departPos="5.10" departSpeed="0.00" departDelay="3.00" arrival="488.00" arrivalLane="A0left0_0" arrivalPos="286.40" arrivalSpeed="13.27" duration="153.00" routeLength="1461.60" waitingTime="17.00" waitingCount="4" stopTime="0.00" timeLoss="47.71" rerouteNo="0" devices="tripinfo_76" vType="DEFAULT_VEHTYPE" speedFactor="1.02" vaporized=""/>
    <tripinfo id="19" depart="96.00" departLane="right2D2_0" departPos="5.10" departSpeed="0.00" departDelay="0.00" arrival="493.00" arrivalLane="A3top0_0" arrivalPos="286.40" arrivalSpeed="11.49" duration="397.00" routeLength="1780.11" waitingTime="220.00" waitingCount="5" stopTime="0.00" timeLoss="254.09" rerouteNo="0" devices="tripinfo_19" vType="DEFAULT_VEHTYPE" speedFactor="0.90" vaporized=""/>
    <tripinfo id="38" depart="197.00" departLane="right2D2_0" departPos="5.10" departSpeed="0.00" departDelay="0.00" arrival="494.00" arrivalLane="A3top0_1" arrivalPos="286.40" arrivalSpeed="12.15" duration="297.00" routeLength="1780.11" waitingTime="122.00" waitingCount="5" stopTime="0.00" timeLoss="163.06" rerouteNo="0" devices="tripinfo_38" vType="DEFAULT_VEHTYPE" speedFactor="0.96" vaporized=""/>
    <tripinfo id="48" depart="215.00" departLane="left1A1_0" departPos="5.10" departSpeed="0.00" departDelay="0.00" arrival="495.00" arrivalLane="B3top1_0" arrivalPos="286.40" arrivalSpeed="9.97" duration="280.00" routeLength="1495.35" waitingTime="117.00" waitingCount="3" stopTime="0.00" timeLoss="145.34" rerouteNo="0" devices="tripinfo_48" vType="DEFAULT_VEHTYPE" speedFactor="0.81" vaporized=""/>
    <tripinfo id="82" depart="366.00" departLane="left0A0_0" departPos="5.10" departSpeed="0.00" departDelay="0.00" arrival="495.00" arrivalLane="B0bottom1_0" arrivalPos="286.40" arrivalSpeed="11.42" duration="129.00" routeLength="876.90" waitingTime="39.00" waitingCount="2" stopTime="0.00" timeLoss="56.61" rerouteNo="0" devices="tripinfo_82" vType="DEFAULT_VEHTYPE" speedFactor="0.89" vaporized=""/>
    <tripinfo id="37" depart="196.00" departLane="right3D3_0" departPos="5.10" departSpeed="0.00" departDelay="0.00" arrival="498.00" arrivalLane="C0bottom2_0" arrivalPos="286.40" arrivalSpeed="13.89" duration="302.00" routeLength="1795.52" waitingTime="152.00" waitingCount="3" stopTime="0.00" timeLoss="179.59" rerouteNo="0" devices="tripinfo_37" vType="DEFAULT_VEHTYPE" speedFactor="1.06" vaporized=""/>
    <tripinfo id="50" depart="222.00" departLane="bottom3D0_0" departPos="5.10" departSpeed="0.00" departDelay="0.00" arrival="498.00" arrivalLane="A1left1_0" arrivalPos="286.40" arrivalSpeed="13.97" duration="276.00" routeLength="1795.52" waitingTime="115.00" waitingCount="4" stopTime="0.00" timeLoss="147.21" rerouteNo="0" devices="tripinfo_50" vType="DEFAULT_VEHTYPE" speedFactor="1.01" vaporized=""/>
    <tripinfo id="65" depart="297.00" departLane="top0A3_0" departPos="5.10" departSpeed="0.00" departDelay="0.00" arrival="498.00" arrivalLane="D2right2_0" arrivalPos="286.40" arrivalSpeed="13.98" duration="201.00" routeLength="1795.52" waitingTime="41.00" waitingCount="3" stopTime="0.00" timeLoss="78.90" rerouteNo="0" devices="tripinfo_65" vType="DEFAULT_VEHTYPE" speedFactor="1.06" vaporized=""/>
    <tripinfo id="75" depart="332.00" departLane="left1A1_0" departPos="5.10" departSpeed="0.00" departDelay="0.00" arrival="526.00" arrivalLane="C0bottom2_0" arrivalPos="286.40" arrivalSpeed="15.89" duration="194.00" routeLength="1479.94" waitingTime="71.00" waitingCount="4" stopTime="0.00" timeLoss="106.44" rerouteNo="0" devices="tripinfo_75" vType="DEFAULT_VEHTYPE" speedFactor="1.24" vaporized=""/>
    <tripinfo id="22" depart="106.00" departLane="right2D2_0" departPos="5.10" departSpeed="0.00" departDelay="0.00" arrival="538.00" arrivalLane="A0left0_0" arrivalPos="286.40" arrivalSpeed="13.64" duration="432.00" routeLength="2080.05" waitingTime="244.00" waitingCount="6" stopTime="0.00" timeLoss="287.67" rerouteNo="0" devices="tripinfo_22" vType="DEFAULT_VEHTYPE" speedFactor="1.05" vaporized=""/>
    <tripinfo id="69" depart="310.00" departLane="top2C3_0" departPos="5.10" departSpeed="0.00" departDelay="0.00" arrival="543.00" arrivalLane="D1right1_0" arrivalPos="286.40" arrivalSpeed="10.81" duration="233.00" routeLength="1495.35" waitingTime="73.00" waitingCount="4" stopTime="0.00" timeLoss="103.57" rerouteNo="0" devices="tripinfo_69" vType="DEFAULT_VEHTYPE" speedFactor="0.84" vaporized=""/>
    <tripinfo id="110" depart="503.00" departLane="top0A3_0" departPos="5.10" departSpeed="0.00" departDelay="0.00" arrival="546.00" arrivalLane="A3left3_0" arrivalPos="286.40" arrivalSpeed="16.27" duration="43.00" routeLength="576.73" waitingTime="0.00" waitingCount="0" stopTime="0.00" timeLoss="6.58" rerouteNo="0" devices="tripinfo_110" vType="DEFAULT_VEHTYPE" speedFactor="1.18" vaporized=""/>