<?xml version="1.0" encoding="UTF-8"?>

<!-- generated on 2023-08-30 12:03:05 by Eclipse SUMO libsumo Version 1.18.0
<configuration xmlns:xsi="http://www.w3.org/2001/XMLSchema-instance" xsi:noNamespaceSchemaLocation="http://sumo.dlr.de/xsd/libsumoConfiguration.xsd">

    <input>
        <net-file value="/home/stefan/RESCO/./environments/grid4x4/grid4x4.net.xml"/>
        <route-files value="/home/stefan/RESCO/./environments/grid4x4/grid4x4_47.rou.xml"/>
    </input>

    <output>
        <tripinfo-output value="/home/stefan/results/ITRPO-tr0-grid4x4-0-drq_norm-wait_norm/tripinfo_47.xml"/>
        <tripinfo-output.write-unfinished value="true"/>
    </output>

    <processing>
        <time-to-teleport value="-1"/>
    </processing>

    <report>
        <no-warnings value="True"/>
        <no-step-log value="True"/>
    </report>

    <random_number>
        <random value="true"/>
    </random_number>

</configuration>
-->

<tripinfos xmlns:xsi="http://www.w3.org/2001/XMLSchema-instance" xsi:noNamespaceSchemaLocation="http://sumo.dlr.de/xsd/tripinfo_file.xsd">
    <tripinfo id="8" depart="41.00" departLane="left1A1_0" departPos="5.10" departSpeed="0.00" departDelay="0.00" arrival="107.00" arrivalLane="A0left0_0" arrivalPos="286.40" arrivalSpeed="16.27" duration="66.00" routeLength="858.56" waitingTime="1.00" waitingCount="1" stopTime="0.00" timeLoss="13.86" rerouteNo="0" devices="tripinfo_8" vType="DEFAULT_VEHTYPE" speedFactor="1.23" vaporized=""/>
    <tripinfo id="3" depart="10.00" departLane="bottom1B0_0" departPos="5.10" departSpeed="0.00" departDelay="0.00" arrival="150.00" arrivalLane="A1left1_0" arrivalPos="286.40" arrivalSpeed="12.04" duration="140.00" routeLength="1195.18" waitingTime="31.00" waitingCount="2" stopTime="0.00" timeLoss="47.73" rerouteNo="0" devices="tripinfo_3" vType="DEFAULT_VEHTYPE" speedFactor="0.94" vaporized=""/>
    <tripinfo id="16" depart="88.00" departLane="bottom1B0_0" departPos="5.10" departSpeed="0.00" departDelay="0.00" arrival="161.00" arrivalLane="C0bottom2_0" arrivalPos="286.40" arrivalSpeed="14.04" duration="73.00" routeLength="858.56" waitingTime="1.00" waitingCount="1" stopTime="0.00" timeLoss="12.86" rerouteNo="0" devices="tripinfo_16" vType="DEFAULT_VEHTYPE" speedFactor="1.05" vaporized=""/>
    <tripinfo id="21" depart="106.00" departLane="top2C3_0" departPos="5.10" departSpeed="0.00" departDelay="0.00" arrival="207.00" arrivalLane="D2right2_0" arrivalPos="286.40" arrivalSpeed="14.17" duration="101.00" routeLength="1195.18" waitingTime="2.00" waitingCount="2" stopTime="0.00" timeLoss="21.73" rerouteNo="0" devices="tripinfo_21" vType="DEFAULT_VEHTYPE" speedFactor="1.09" vaporized=""/>
    <tripinfo id="9" depart="49.00" departLane="bottom2C0_0" departPos="5.10" departSpeed="0.00" departDelay="0.00" arrival="210.00" arrivalLane="C0bottom2_0" arrivalPos="286.40" arrivalSpeed="11.48" duration="161.00" routeLength="1748.75" waitingTime="2.00" waitingCount="2" stopTime="0.00" timeLoss="20.56" rerouteNo="0" devices="tripinfo_9" vType="DEFAULT_VEHTYPE" speedFactor="0.91" vaporized=""/>
    <tripinfo id="5" depart="18.00" departLane="top2C3_0" departPos="5.10" departSpeed="0.00" departDelay="0.00" arrival="213.00" arrivalLane="D0bottom3_0" arrivalPos="286.40" arrivalSpeed="12.68" duration="195.00" routeLength="1782.59" waitingTime="35.00" waitingCount="4" stopTime="0.00" timeLoss="59.68" rerouteNo="0" devices="tripinfo_5" vType="DEFAULT_VEHTYPE" speedFactor="0.96" vaporized=""/>
    <tripinfo id="4" depart="12.00" departLane="bottom3D0_0" departPos="5.10" departSpeed="0.00" departDelay="0.00" arrival="224.00" arrivalLane="A0bottom0_0" arrivalPos="286.40" arrivalSpeed="11.34" duration="212.00" routeLength="1497.83" waitingTime="58.00" waitingCount="2" stopTime="0.00" timeLoss="80.54" rerouteNo="0" devices="tripinfo_4" vType="DEFAULT_VEHTYPE" speedFactor="0.83" vaporized=""/>
    <tripinfo id="11" depart="53.00" departLane="bottom1B0_0" departPos="5.10" departSpeed="0.00" departDelay="0.00" arrival="225.00" arrivalLane="B3top1_0" arrivalPos="286.40" arrivalSpeed="15.32" duration="172.00" routeLength="1495.58" waitingTime="55.00" waitingCount="3" stopTime="0.00" timeLoss="78.32" rerouteNo="0" devices="tripinfo_11" vType="DEFAULT_VEHTYPE" speedFactor="1.15" vaporized=""/>
    <tripinfo id="25" depart="137.00" departLane="bottom1B0_0" departPos="5.10" departSpeed="0.00" departDelay="0.00" arrival="228.00" arrivalLane="C0bottom2_0" arrivalPos="286.40" arrivalSpeed="11.28" duration="91.00" routeLength="858.56" waitingTime="2.00" waitingCount="2" stopTime="0.00" timeLoss="18.12" rerouteNo="0" devices="tripinfo_25" vType="DEFAULT_VEHTYPE" speedFactor="0.87" vaporized=""/>
    <tripinfo id="1" depart="7.00" departLane="right0D0_0" departPos="5.10" departSpeed="0.00" departDelay="0.00" arrival="270.00" arrivalLane="A1left1_0" arrivalPos="286.40" arrivalSpeed="12.69" duration="263.00" routeLength="1782.72" waitingTime="89.00" waitingCount="5" stopTime="0.00" timeLoss="121.38" rerouteNo="0" devices="tripinfo_1" vType="DEFAULT_VEHTYPE" speedFactor="0.92" vaporized=""/>
    <tripinfo id="41" depart="204.00" departLane="top1B3_0" departPos="5.10" departSpeed="0.00" departDelay="0.00" arrival="278.00" arrivalLane="A3top0_0" arrivalPos="286.40" arrivalSpeed="13.58" duration="74.00" routeLength="858.56" waitingTime="1.00" waitingCount="1" stopTime="0.00" timeLoss="12.33" rerouteNo="0" devices="tripinfo_41" vType="DEFAULT_VEHTYPE" speedFactor="1.03" vaporized=""/>
    <tripinfo id="22" depart="122.00" departLane="right0D0_0" departPos="5.10" departSpeed="0.00" departDelay="0.00" arrival="282.00" arrivalLane="A1left1_0" arrivalPos="286.40" arrivalSpeed="13.64" duration="160.00" routeLength="1782.72" waitingTime="23.00" waitingCount="1" stopTime="0.00" timeLoss="38.19" rerouteNo="0" devices="tripinfo_22" vType="DEFAULT_VEHTYPE" speedFactor="1.07" vaporized=""/>
    <tripinfo id="36" depart="187.00" departLane="top0A3_0" departPos="5.10" departSpeed="0.00" departDelay="0.00" arrival="290.00" arrivalLane="B3top1_0" arrivalPos="286.40" arrivalSpeed="13.50" duration="103.00" routeLength="894.86" waitingTime="22.00" waitingCount="1" stopTime="0.00" timeLoss="35.23" rerouteNo="0" devices="tripinfo_36" vType="DEFAULT_VEHTYPE" speedFactor="0.98" vaporized=""/>
    <tripinfo id="18" depart="101.00" departLane="left1A1_0" departPos="5.10" departSpeed="0.00" departDelay="0.00" arrival="293.00" arrivalLane="A3left3_0" arrivalPos="286.40" arrivalSpeed="13.43" duration="192.00" routeLength="1197.66" waitingTime="87.00" waitingCount="2" stopTime="0.00" timeLoss="105.07" rerouteNo="0" devices="tripinfo_18" vType="DEFAULT_VEHTYPE" speedFactor="1.01" vaporized=""/>
    <tripinfo id="10" depart="52.00" departLane="left2A2_0" departPos="5.10" departSpeed="0.00" departDelay="0.00" arrival="317.00" arrivalLane="D3right3_0" arrivalPos="286.40" arrivalSpeed="14.82" duration="265.00" routeLength="1782.59" waitingTime="119.00" waitingCount="4" stopTime="0.00" timeLoss="148.19" rerouteNo="0" devices="tripinfo_10" vType="DEFAULT_VEHTYPE" speedFactor="1.11" vaporized=""/>
    <tripinfo id="7" depart="35.00" departLane="bottom1B0_0" departPos="5.10" departSpeed="0.00" departDelay="0.00" arrival="318.00" arrivalLane="D3top3_0" arrivalPos="286.40" arrivalSpeed="14.64" duration="283.00" routeLength="2082.76" waitingTime="112.00" waitingCount="4" stopTime="0.00" timeLoss="139.74" rerouteNo="0" devices="tripinfo_7" vType="DEFAULT_VEHTYPE" speedFactor="1.06" vaporized=""/>
    <tripinfo id="32" depart="175.00" departLane="left0A0_0" departPos="5.10" departSpeed="0.00" departDelay="0.00" arrival="326.00" arrivalLane="A0left0_0" arrivalPos="286.40" arrivalSpeed="16.28" duration="151.00" routeLength="1745.91" waitingTime="11.00" waitingCount="4" stopTime="0.00" timeLoss="43.53" rerouteNo="0" devices="tripinfo_32" vType="DEFAULT_VEHTYPE" speedFactor="1.19" vaporized=""/>
    <tripinfo id="27" depart="163.00" departLane="top3D3_0" departPos="5.10" departSpeed="0.00" departDelay="0.00" arrival="329.00" arrivalLane="D0right0_0" arrivalPos="286.40" arrivalSpeed="13.36" duration="166.00" routeLength="1498.06" waitingTime="36.00" waitingCount="2" stopTime="0.00" timeLoss="54.86" rerouteNo="0" devices="tripinfo_27" vType="DEFAULT_VEHTYPE" speedFactor="0.98" vaporized=""/>
    <tripinfo id="42" depart="214.00" departLane="left0A0_0" departPos="5.10" departSpeed="0.00" departDelay="0.00" arrival="335.00" arrivalLane="D0bottom3_0" arrivalPos="286.40" arrivalSpeed="15.73" duration="121.00" routeLength="1477.24" waitingTime="3.00" waitingCount="2" stopTime="0.00" timeLoss="32.63" rerouteNo="0" devices="tripinfo_42" vType="DEFAULT_VEHTYPE" speedFactor="1.22" vaporized=""/>
    <tripinfo id="14" depart="71.00" departLane="right2D2_0" departPos="5.10" departSpeed="0.00" departDelay="0.00" arrival="337.00" arrivalLane="A1left1_0" arrivalPos="286.40" arrivalSpeed="15.17" duration="266.00" routeLength="1782.59" waitingTime="130.00" waitingCount="2" stopTime="0.00" timeLoss="152.35" rerouteNo="0" devices="tripinfo_14" vType="DEFAULT_VEHTYPE" speedFactor="1.15" vaporized=""/>
    <tripinfo id="39" depart="202.00" departLane="left0A0_0" departPos="5.10" departSpeed="0.00" departDelay="0.00" arrival="350.00" arrivalLane="D0right0_1" arrivalPos="286.40" arrivalSpeed="14.52" duration="148.00" routeLength="1495.58" waitingTime="17.00" waitingCount="3" stopTime="0.00" timeLoss="46.47" rerouteNo="0" devices="tripinfo_39" vType="DEFAULT_VEHTYPE" speedFactor="1.07" vaporized=""/>
    <tripinfo id="0" depart="3.00" departLane="top1B3_0" departPos="5.10" departSpeed="0.00" departDelay="0.00" arrival="353.00" arrivalLane="D0right0_0" arrivalPos="286.40" arrivalSpeed="10.99" duration="350.00" routeLength="2095.69" waitingTime="137.00" waitingCount="3" stopTime="0.00" timeLoss="172.42" rerouteNo="0" devices="tripinfo_0" vType="DEFAULT_VEHTYPE" speedFactor="0.85" vaporized=""/>
    <tripinfo id="20" depart="105.00" departLane="bottom2C0_0" departPos="5.10" departSpeed="0.00" departDelay="0.00" arrival="359.00" arrivalLane="C0bottom2_0" arrivalPos="286.40" arrivalSpeed="14.03" duration="254.00" routeLength="1748.75" waitingTime="95.00" waitingCount="5" stopTime="0.00" timeLoss="127.25" rerouteNo="0" devices="tripinfo_20" vType="DEFAULT_VEHTYPE" speedFactor="1.02" vaporized=""/>
    <tripinfo id="31" depart="174.00" departLane="right2D2_0" departPos="5.10" departSpeed="0.00" departDelay="0.00" arrival="377.00" arrivalLane="D0bottom3_0" arrivalPos="286.40" arrivalSpeed="9.08" duration="203.00" routeLength="1195.18" waitingTime="65.00" waitingCount="3" stopTime="0.00" timeLoss="85.63" rerouteNo="0" devices="tripinfo_31" vType="DEFAULT_VEHTYPE" speedFactor="0.74" vaporized=""/>
    <tripinfo id="2" depart="10.00" departLane="right0D0_0" departPos="5.10" departSpeed="0.00" departDelay="1.00" arrival="381.00" arrivalLane="A3top0_0" arrivalPos="286.40" arrivalSpeed="12.41" duration="371.00" routeLength="2380.45" waitingTime="141.00" waitingCount="7" stopTime="0.00" timeLoss="183.25" rerouteNo="0" devices="tripinfo_2" vType="DEFAULT_VEHTYPE" speedFactor="0.92" vaporized=""/>
    <tripinfo id="54" depart="309.00" departLane="left1A1_0" departPos="5.10" departSpeed="0.00" departDelay="0.00" arrival="383.00" arrivalLane="A0left0_0" arrivalPos="286.40" arrivalSpeed="13.26" duration="74.00" routeLength="858.56" waitingTime="0.00" waitingCount="0" stopTime="0.00" timeLoss="9.18" rerouteNo="0" devices="tripinfo_54" vType="DEFAULT_VEHTYPE" speedFactor="0.99" vaporized=""/>
    <tripinfo id="24" depart="136.00" departLane="left0A0_0" departPos="5.10" departSpeed="0.00" departDelay="0.00" arrival="384.00" arrivalLane="A3top0_0" arrivalPos="286.40" arrivalSpeed="11.59" duration="248.00" routeLength="1495.35" waitingTime="95.00" waitingCount="3" stopTime="0.00" timeLoss="124.03" rerouteNo="0" devices="tripinfo_24" vType="DEFAULT_VEHTYPE" speedFactor="0.87" vaporized=""/>
    <tripinfo id="48" depart="277.00" departLane="left3A3_0" departPos="5.10" departSpeed="0.00" departDelay="0.00" arrival="390.00" arrivalLane="B3top1_0" arrivalPos="286.40" arrivalSpeed="12.75" duration="113.00" routeLength="897.72" waitingTime="33.00" waitingCount="1" stopTime="0.00" timeLoss="44.09" rerouteNo="0" devices="tripinfo_48" vType="DEFAULT_VEHTYPE" speedFactor="0.95" vaporized=""/>
    <tripinfo id="51" depart="302.00" departLane="left3A3_0" departPos="5.10" departSpeed="0.00" departDelay="0.00" arrival="396.00" arrivalLane="A1left1_0" arrivalPos="286.40" arrivalSpeed="13.66" duration="94.00" routeLength="1161.43" waitingTime="1.00" waitingCount="1" stopTime="0.00" timeLoss="13.55" rerouteNo="0" devices="tripinfo_51" vType="DEFAULT_VEHTYPE" speedFactor="1.06" vaporized=""/>
    <tripinfo id="26" depart="160.00" departLane="left0A0_0" departPos="5.10" departSpeed="0.00" departDelay="0.00" arrival="399.00" arrivalLane="A3left3_0" arrivalPos="286.40" arrivalSpeed="13.70" duration="239.00" routeLength="1497.83" waitingTime="90.00" waitingCount="4" stopTime="0.00" timeLoss="129.13" rerouteNo="0" devices="tripinfo_26" vType="DEFAULT_VEHTYPE" speedFactor="0.99" vaporized=""/>
    <tripinfo id="40" depart="203.00" departLane="top0A3_0" departPos="5.10" departSpeed="0.00" departDelay="0.00" arrival="418.00" arrivalLane="D3right3_0" arrivalPos="286.40" arrivalSpeed="13.81" duration="215.00" routeLength="1495.35" waitingTime="89.00" waitingCount="3" stopTime="0.00" timeLoss="113.24" rerouteNo="0" devices="tripinfo_40" vType="DEFAULT_VEHTYPE" speedFactor="1.07" vaporized=""/>
    <tripinfo id="15" depart="84.00" departLane="bottom2C0_0" departPos="5.10" departSpeed="0.00" departDelay="0.00" arrival="419.00" arrivalLane="D3right3_1" arrivalPos="286.40" arrivalSpeed="14.43" duration="335.00" routeLength="1780.11" waitingTime="183.00" waitingCount="5" stopTime="0.00" timeLoss="220.89" rerouteNo="0" devices="tripinfo_15" vType="DEFAULT_VEHTYPE" speedFactor="1.13" vaporized=""/>
    <tripinfo id="44" depart="262.00" departLane="right0D0_0" departPos="5.10" departSpeed="0.00" departDelay="0.00" arrival="435.00" arrivalLane="D3top3_0" arrivalPos="286.40" arrivalSpeed="13.19" duration="173.00" routeLength="1479.94" waitingTime="44.00" waitingCount="2" stopTime="0.00" timeLoss="61.99" rerouteNo="0" devices="tripinfo_44" vType="DEFAULT_VEHTYPE" speedFactor="0.97" vaporized=""/>
    <tripinfo id="12" depart="59.00" departLane="bottom3D0_0" departPos="5.10" departSpeed="0.00" departDelay="0.00" arrival="438.00" arrivalLane="A2left2_0" arrivalPos="286.40" arrivalSpeed="14.89" duration="379.00" routeLength="2095.69" waitingTime="205.00" waitingCount="4" stopTime="0.00" timeLoss="239.25" rerouteNo="0" devices="tripinfo_12" vType="DEFAULT_VEHTYPE" speedFactor="1.09" vaporized=""/>
    <tripinfo id="30" depart="171.00" departLane="bottom3D0_0" departPos="5.10" departSpeed="0.00" departDelay="0.00" arrival="442.00" arrivalLane="A2left2_0" arrivalPos="286.40" arrivalSpeed="13.24" duration="271.00" routeLength="2095.69" waitingTime="80.00" waitingCount="3" stopTime="0.00" timeLoss="115.18" rerouteNo="0" devices="tripinfo_30" vType="DEFAULT_VEHTYPE" speedFactor="0.97" vaporized=""/>
    <tripinfo id="6" depart="19.00" departLane="left1A1_0" departPos="5.10" departSpeed="0.00" departDelay="0.00" arrival="461.00" arrivalLane="D1right1_0" arrivalPos="286.40" arrivalSpeed="12.27" duration="442.00" routeLength="1495.58" waitingTime="298.00" waitingCount="4" stopTime="0.00" timeLoss="324.08" rerouteNo="0" devices="tripinfo_6" vType="DEFAULT_VEHTYPE" speedFactor="0.92" vaporized=""/>
    <tripinfo id="17" depart="94.00" departLane="top3D3_0" departPos="5.10" departSpeed="0.00" departDelay="0.00" arrival="467.00" arrivalLane="A0bottom0_0" arrivalPos="286.40" arrivalSpeed="15.14" duration="373.00" routeLength="2382.93" waitingTime="178.00" waitingCount="5" stopTime="0.00" timeLoss="220.11" rerouteNo="0" devices="tripinfo_17" vType="DEFAULT_VEHTYPE" speedFactor="1.14" vaporized=""/>
    <tripinfo id="38" depart="201.00" departLane="left2A2_0" departPos="5.10" departSpeed="0.00" departDelay="0.00" arrival="469.00" arrivalLane="C0bottom2_0" arrivalPos="286.40" arrivalSpeed="14.69" duration="268.00" routeLength="1780.11" waitingTime="120.00" waitingCount="4" stopTime="0.00" timeLoss="147.96" rerouteNo="0" devices="tripinfo_38" vType="DEFAULT_VEHTYPE" speedFactor="1.08" vaporized=""/>
    <tripinfo id="52" depart="305.00" departLane="bottom3D0_0" departPos="5.10" departSpeed="0.00" departDelay="0.00" arrival="471.00" arrivalLane="C3top2_0" arrivalPos="286.40" arrivalSpeed="12.84" duration="166.00" routeLength="1782.59" waitingTime="11.00" waitingCount="2" stopTime="0.00" timeLoss="33.30" rerouteNo="0" devices="tripinfo_52" vType="DEFAULT_VEHTYPE" speedFactor="0.98" vaporized=""/>
    <tripinfo id="58" depart="325.00" departLane="top2C3_0" departPos="5.10" departSpeed="0.00" departDelay="0.00" arrival="477.00" arrivalLane="D0right0_0" arrivalPos="286.40" arrivalSpeed="14.49" duration="152.00" routeLength="1795.52" waitingTime="15.00" waitingCount="1" stopTime="0.00" timeLoss="32.16" rerouteNo="0" devices="tripinfo_58" vType="DEFAULT_VEHTYPE" speedFactor="1.08" vaporized=""/>
    <tripinfo id="33" depart="180.00" departLane="left1A1_0" departPos="5.10" departSpeed="0.00" departDelay="0.00" arrival="480.00" arrivalLane="D0right0_0" arrivalPos="286.40" arrivalSpeed="13.82" duration="300.00" routeLength="1782.72" waitingTime="138.00" waitingCount="5" stopTime="0.00" timeLoss="174.86" rerouteNo="0" devices="tripinfo_33" vType="DEFAULT_VEHTYPE" speedFactor="1.04" vaporized=""/>
    <tripinfo id="74" depart="408.00" departLane="bottom2C0_0" departPos="5.10" departSpeed="0.00" departDelay="0.00" arrival="481.00" arrivalLane="D0right0_1" arrivalPos="286.40" arrivalSpeed="14.71" duration="73.00" routeLength="879.60" waitingTime="1.00" waitingCount="1" stopTime="0.00" timeLoss="15.14" rerouteNo="0" devices="tripinfo_74" vType="DEFAULT_VEHTYPE" speedFactor="1.11" vaporized=""/>
    <tripinfo id="45" depart="274.00" departLane="left2A2_0" departPos="5.10" departSpeed="0.00" departDelay="0.00" arrival="483.00" arrivalLane="D3right3_1" arrivalPos="286.40" arrivalSpeed="14.02" duration="209.00" routeLength="1782.59" waitingTime="58.00" waitingCount="2" stopTime="0.00" timeLoss="82.85" rerouteNo="0" devices="tripinfo_45" vType="DEFAULT_VEHTYPE" speedFactor="1.03" vaporized=""/>
    <tripinfo id="46" depart="276.00" departLane="right3D3_0" departPos="5.10" departSpeed="0.00" departDelay="0.00" arrival="484.00" arrivalLane="D3right3_0" arrivalPos="286.40" arrivalSpeed="12.61" duration="208.00" routeLength="1745.91" waitingTime="40.00" waitingCount="3" stopTime="0.00" timeLoss="68.29" rerouteNo="0" devices="tripinfo_46" vType="DEFAULT_VEHTYPE" speedFactor="0.92" vaporized=""/>
    <tripinfo id="34" depart="182.00" departLane="right1D1_0" departPos="5.10" departSpeed="0.00" departDelay="0.00" arrival="491.00" arrivalLane="B0bottom1_0" arrivalPos="286.40" arrivalSpeed="11.64" duration="309.00" routeLength="1495.35" waitingTime="161.00" waitingCount="4" stopTime="0.00" timeLoss="191.29" rerouteNo="0" devices="tripinfo_34" vType="DEFAULT_VEHTYPE" speedFactor="0.92" vaporized=""/>
    <tripinfo id="64" depart="349.00" departLane="top1B3_0" departPos="5.10" departSpeed="0.00" departDelay="0.00" arrival="491.00" arrivalLane="C3top2_0" arrivalPos="286.40" arrivalSpeed="13.44" duration="142.00" routeLength="894.86" waitingTime="69.00" waitingCount="1" stopTime="0.00" timeLoss="79.01" rerouteNo="0" devices="tripinfo_64" vType="DEFAULT_VEHTYPE" speedFactor="1.05" vaporized=""/>
    <tripinfo id="23" depart="129.00" departLane="bottom2C0_0" departPos="5.10" departSpeed="0.00" departDelay="0.00" arrival="499.00" arrivalLane="A3left3_1" arrivalPos="286.40" arrivalSpeed="14.99" duration="370.00" routeLength="2095.69" waitingTime="187.00" waitingCount="5" stopTime="0.00" timeLoss="234.33" rerouteNo="0" devices="tripinfo_23" vType="DEFAULT_VEHTYPE" speedFactor="1.12" vaporized=""/>
    <tripinfo id="57" depart="320.00" departLane="left2A2_0" departPos="5.10" departSpeed="0.00" departDelay="0.00" arrival="499.00" arrivalLane="D3right3_0" arrivalPos="286.40" arrivalSpeed="13.83" duration="179.00" routeLength="1782.59" waitingTime="17.00" waitingCount="4" stopTime="0.00" timeLoss="50.06" rerouteNo="0" devices="tripinfo_57" vType="DEFAULT_VEHTYPE" speedFactor="1.01" vaporized=""/>
    <tripinfo id="13" depart="67.00" departLane="bottom3D0_0" departPos="5.10" departSpeed="0.00" departDelay="0.00" arrival="501.00" arrivalLane="A3left3_0" arrivalPos="286.40" arrivalSpeed="11.85" duration="434.00" routeLength="2395.86" waitingTime="206.00" waitingCount="6" stopTime="0.00" timeLoss="246.73" rerouteNo="0" devices="tripinfo_13" vType="DEFAULT_VEHTYPE" speedFactor="0.93" vaporized=""/>
    <tripinfo id="37" depart="188.00" departLane="right3D3_0" departPos="5.10" departSpeed="0.00" departDelay="0.00" arrival="509.00" arrivalLane="A0left0_0" arrivalPos="286.40" arrivalSpeed="13.33" duration="321.00" routeLength="2380.22" waitingTime="111.00" waitingCount="5" stopTime="0.00" timeLoss="145.14" rerouteNo="0" devices="tripinfo_37" vType="DEFAULT_VEHTYPE" speedFactor="0.98" vaporized=""/>
    <tripinfo id="80" depart="422.00" departLane="right0D0_0" departPos="5.10" departSpeed="0.00" departDelay="0.00" arrival="509.00" arrivalLane="D1right1_0" arrivalPos="286.40" arrivalSpeed="12.10" duration="87.00" routeLength="858.56" waitingTime="2.00" waitingCount="2" stopTime="0.00" timeLoss="18.01" rerouteNo="0" devices="tripinfo_80" vType="DEFAULT_VEHTYPE" speedFactor="0.92" vaporized=""/>
    <tripinfo id="56" depart="319.00" departLane="top1B3_0" departPos="5.10" departSpeed="0.00" departDelay="0.00" arrival="510.00" arrivalLane="A0left0_1" arrivalPos="286.40" arrivalSpeed="13.48" duration="191.00" routeLength="1780.11" waitingTime="39.00" waitingCount="3" stopTime="0.00" timeLoss="69.25" rerouteNo="0" devices="tripinfo_56" vType="DEFAULT_VEHTYPE" speedFactor="1.06" vaporized=""/>
    <tripinfo id="90" depart="437.00" departLane="right0D0_0" departPos="5.10" departSpeed="0.00" departDelay="0.00" arrival="510.00" arrivalLane="D1right1_1" arrivalPos="286.40" arrivalSpeed="16.35" duration="73.00" routeLength="858.56" waitingTime="2.00" waitingCount="2" stopTime="0.00" timeLoss="20.26" rerouteNo="0" devices="tripinfo_90" vType="DEFAULT_VEHTYPE" speedFactor="1.21" vaporized=""/>
    <tripinfo id="19" depart="102.00" departLane="right1D1_0" departPos="5.10" departSpeed="0.00" departDelay="0.00" arrival="512.00" arrivalLane="A0left0_0" arrivalPos="286.40" arrivalSpeed="13.73" duration="410.00" routeLength="1782.59" waitingTime="255.00" waitingCount="4" stopTime="0.00" timeLoss="289.48" rerouteNo="0" devices="tripinfo_19" vType="DEFAULT_VEHTYPE" speedFactor="1.08" vaporized=""/>
    <tripinfo id="28" depart="166.00" departLane="right0D0_0" departPos="5.10" departSpeed="0.00" departDelay="0.00" arrival="518.00" arrivalLane="A3top0_0" arrivalPos="286.40" arrivalSpeed="13.54" duration="352.00" routeLength="2380.45" waitingTime="135.00" waitingCount="6" stopTime="0.00" timeLoss="184.95" rerouteNo="0" devices="tripinfo_28" vType="DEFAULT_VEHTYPE" speedFactor="1.03" vaporized=""/>
    <tripinfo id="49" depart="296.00" departLane="bottom1B0_0" departPos="5.10" departSpeed="0.00" departDelay="0.00" arrival="520.00" arrivalLane="D3right3_0" arrivalPos="286.40" arrivalSpeed="10.66" duration="224.00" routeLength="2080.28" waitingTime="18.00" waitingCount="2" stopTime="0.00" timeLoss="40.13" rerouteNo="0" devices="tripinfo_49" vType="DEFAULT_VEHTYPE" speedFactor="0.82" vaporized=""/>
    <tripinfo id="47" depart="277.00" departLane="left2A2_0" departPos="5.10" departSpeed="0.00" departDelay="0.00" arrival="521.00" arrivalLane="D1right1_0" arrivalPos="286.40" arrivalSpeed="12.20" duration="244.00" routeLength="1782.72" waitingTime="68.00" waitingCount="4" stopTime="0.00" timeLoss="98.51" rerouteNo="0" devices="tripinfo_47" vType="DEFAULT_VEHTYPE" speedFactor="0.89" vaporized=""/>
    <tripinfo id="77" depart="416.00" departLane="bottom2C0_0" departPos="5.10" departSpeed="0.00" departDelay="0.00" arrival="535.00" arrivalLane="B0bottom1_0" arrivalPos="286.40" arrivalSpeed="13.11" duration="119.00" routeLength="894.86" waitingTime="40.00" waitingCount="1" stopTime="0.00" timeLoss="49.53" rerouteNo="0" devices="tripinfo_77" vType="DEFAULT_VEHTYPE" speedFactor="0.95" vaporized=""/>
    <tripinfo id="89" depart="432.00" departLane="right1D1_0" departPos="5.10" departSpeed="0.00" departDelay="0.00" arrival="542.00" arrivalLane="D3right3_0" arrivalPos="286.40" arrivalSpeed="14.97" duration="110.00" routeLength="1161.43" waitingTime="16.00" waitingCount="2" stopTime="0.00" timeLoss="35.57" rerouteNo="0" devices="tripinfo_89" vType="DEFAULT_VEHTYPE" speedFactor="1.15" vaporized=""/>
    <tripinfo id="95" depart="473.00" departLane="bottom0A0_0" departPos="5.10" departSpeed="0.00" departDelay="0.00" arrival="544.00" arrivalLane="B0bottom1_0" arrivalPos="286.40" arrivalSpeed="17.04" duration="71.00" routeLength="858.56" waitingTime="1.00" waitingCount="1" stopTime="0.00" timeLoss="19.81" rerouteNo="0" devices="tripinfo_95" vType="DEFAULT_VEHTYPE" speedFactor="1.24" vaporized=""/>
    <tripinfo id="61" depart="338.00" departLane="left0A0_0" departPos="5.10" departSpeed="0.00" departDelay="0.00" arrival="552.00" arrivalLane="D1right1_0" arrivalPos="286.40" arrivalSpeed="13.11" duration="214.00" routeLength="1782.59" waitingTime="61.00" waitingCount="2" stopTime="0.00" timeLoss="83.64" rerouteNo="0" devices="tripinfo_61" vType="DEFAULT_VEHTYPE" speedFactor="1.00" vaporized=""/>
    <tripinfo id="55" depart="319.00" departLane="left1A1_0" departPos="5.10" departSpeed="0.00" departDelay="0.00" arrival="556.00" arrivalLane="D0bottom3_0" arrivalPos="286.40" arrivalSpeed="15.41" duration="237.00" routeLength="1780.11" waitingTime="77.00" waitingCount="5" stopTime="0.00" timeLoss="122.61" rerouteNo="0" devices="tripinfo_55" vType="DEFAULT_VEHTYPE" speedFactor="1.13" vaporized=""/>
    <tripinfo id="76" depart="416.00" departLane="right0D0_0" departPos="5.10" departSpeed="0.00" departDelay="0.00" arrival="557.00" arrivalLane="C0bottom2_0" arrivalPos="286.40" arrivalSpeed="11.85" duration="141.00" routeLength="897.72" waitingTime="59.00" waitingCount="1" stopTime="0.00" timeLoss="69.81" rerouteNo="0" devices="tripinfo_76" vType="DEFAULT_VEHTYPE" speedFactor="0.92" vaporized=""/>
    <tripinfo id="62" depart="344.00" departLane="top2C3_0" departPos="5.10" departSpeed="0.00" departDelay="0.00" arrival="568.00" arrivalLane="C0bottom2_0" arrivalPos="286.40" arrivalSpeed="14.48" duration="224.00" routeLength="1495.58" waitingTime="91.00" waitingCount="4" stopTime="0.00" timeLoss="120.99" rerouteNo="0" devices="tripinfo_62" vType="DEFAULT_VEHTYPE" speedFactor="1.05" vaporized=""/>
    <tripinfo id="97" depart="485.00" departLane="top0A3_0" departPos="5.10" departSpeed="0.00" departDelay="0.00" arrival="579.00" arrivalLane="A2left2_0" arrivalPos="286.40" arrivalSpeed="12.06" duration="94.00" routeLength="876.90" waitingTime="11.00" waitingCount="2" stopTime="0.00" timeLoss="25.89" rerouteNo="0" devices="tripinfo_97" vType="DEFAULT_VEHTYPE" speedFactor="0.94" vaporized=""/>
    <tripinfo id="101" depart="503.00" departLane="right1D1_0" departPos="5.10" departSpeed="0.00" departDelay="0.00" arrival="585.00" arrivalLane="D2right2_0" arrivalPos="286.40" arrivalSpeed="11.45" duration="82.00" routeLength="858.56" waitingTime="0.00" waitingCount="0" stopTime="0.00" timeLoss="10.01" rerouteNo="0" devices="tripinfo_101" vType="DEFAULT_VEHTYPE" speedFactor="0.89" vaporized=""/>
    <tripinfo id="79" depart="421.00" departLane="top1B3_0" departPos="5.10" departSpeed="0.00" departDelay="0.00" arrival="600.00" arrivalLane="A1left1_0" arrivalPos="286.40" arrivalSpeed="12.12" duration="179.00" routeLength="1479.94" waitingTime="41.00" waitingCount="2" stopTime="0.00" timeLoss="67.00" rerouteNo="0" devices="tripinfo_79" vType="DEFAULT_VEHTYPE" speedFactor="0.96" vaporized=""/>
    <tripinfo id="72" depart="376.00" departLane="top3D3_0" departPos="5.10" departSpeed="0.00" departDelay="0.00" arrival="607.00" arrivalLane="A3top0_0" arrivalPos="286.40" arrivalSpeed="13.12" duration="231.00" routeLength="1461.60" waitingTime="96.00" waitingCount="4" stopTime="0.00" timeLoss="122.07" rerouteNo="0" devices="tripinfo_72" vType="DEFAULT_VEHTYPE" speedFactor="0.98" vaporized=""/>
    <tripinfo id="59" depart="333.00" departLane="bottom2C0_0" departPos="5.10" departSpeed="0.00" departDelay="0.00" arrival="609.00" arrivalLane="A3top0_0" arrivalPos="286.40" arrivalSpeed="13.73" duration="276.00" routeLength="2080.05" waitingTime="86.00" waitingCount="5" stopTime="0.00" timeLoss="123.64" rerouteNo="0" devices="tripinfo_59" vType="DEFAULT_VEHTYPE" speedFactor="0.99" vaporized=""/>
    <tripinfo id="68" depart="369.00" departLane="left1A1_0" departPos="5.10" departSpeed="0.00" departDelay="0.00" arrival="611.00" arrivalLane="C0bottom2_0" arrivalPos="286.40" arrivalSpeed="14.69" duration="242.00" routeLength="1479.94" waitingTime="120.00" waitingCount="2" stopTime="0.00" timeLoss="141.01" rerouteNo="0" devices="tripinfo_68" vType="DEFAULT_VEHTYPE" speedFactor="1.07" vaporized=""/>
    <tripinfo id="29" depart="167.00" departLane="bottom3D0_0" departPos="5.10" departSpeed="0.00" departDelay="0.00" arrival="617.00" arrivalLane="A3left3_0" arrivalPos="286.40" arrivalSpeed="14.73" duration="450.00" routeLength="2395.86" waitingTime="246.00" waitingCount="5" stopTime="0.00" timeLoss="291.38" rerouteNo="0" devices="tripinfo_29" vType="DEFAULT_VEHTYPE" speedFactor="1.09" vaporized=""/>