<?xml version="1.0" encoding="UTF-8"?>

<!-- generated on 2023-08-30 11:19:48 by Eclipse SUMO libsumo Version 1.18.0
<configuration xmlns:xsi="http://www.w3.org/2001/XMLSchema-instance" xsi:noNamespaceSchemaLocation="http://sumo.dlr.de/xsd/libsumoConfiguration.xsd">

    <input>
        <net-file value="/home/stefan/RESCO/./environments/cologne8/cologne8.net.xml"/>
        <route-files value="/home/stefan/RESCO/./environments/cologne8/cologne8.rou.xml"/>
    </input>

    <output>
        <tripinfo-output value="/home/stefan/results/ITRPO-tr0-cologne8-0-drq_norm-wait_norm/tripinfo_93.xml"/>
        <tripinfo-output.write-unfinished value="true"/>
    </output>

    <time>
        <begin value="25200"/>
        <end value="28800"/>
    </time>

    <processing>
        <time-to-teleport value="-1"/>
    </processing>

    <report>
        <no-warnings value="True"/>
        <no-step-log value="True"/>
    </report>

    <random_number>
        <random value="true"/>
    </random_number>

</configuration>
-->

<tripinfos xmlns:xsi="http://www.w3.org/2001/XMLSchema-instance" xsi:noNamespaceSchemaLocation="http://sumo.dlr.de/xsd/tripinfo_file.xsd">
    <tripinfo id="142890_415_0" depart="25218.00" departLane="-23283579#1_0" departPos="4.40" departSpeed="0.00" departDelay="0.00" arrival="25225.00" arrivalLane="23283579#1_0" arrivalPos="22.22" arrivalSpeed="12.33" duration="7.00" routeLength="44.72" waitingTime="0.00" waitingCount="0" stopTime="0.00" timeLoss="3.66" rerouteNo="0" devices="tripinfo_142890_415_0 routing_142890_415_0" vType="pkw" speedFactor="1.01" vaporized=""/>
    <tripinfo id="137312_412_0" depart="25200.00" departLane="-23283579#1_0" departPos="4.40" departSpeed="0.00" departDelay="0.00" arrival="25239.00" arrivalLane="23283436_0" arrivalPos="65.76" arrivalSpeed="12.58" duration="39.00" routeLength="404.67" waitingTime="0.00" waitingCount="0" stopTime="0.00" timeLoss="9.37" rerouteNo="1" devices="tripinfo_137312_412_0 routing_137312_412_0" vType="pkw" speedFactor="1.00" vaporized=""/>
    <tripinfo id="155570_420_0" depart="25200.00" departLane="-28675510#11_0" departPos="4.40" departSpeed="0.00" departDelay="0.00" arrival="25242.00" arrivalLane="28675510#7_0" arrivalPos="257.94" arrivalSpeed="13.79" duration="42.00" routeLength="516.12" waitingTime="0.00" waitingCount="0" stopTime="0.00" timeLoss="7.02" rerouteNo="0" devices="tripinfo_155570_420_0 routing_155570_420_0" vType="pkw" speedFactor="1.08" vaporized=""/>
    <tripinfo id="134603_411_0" depart="25206.00" departLane="-28675510#11_0" departPos="4.40" departSpeed="0.00" departDelay="0.00" arrival="25248.00" arrivalLane="28675510#7_0" arrivalPos="257.94" arrivalSpeed="14.03" duration="42.00" routeLength="516.12" waitingTime="0.00" waitingCount="0" stopTime="0.00" timeLoss="6.65" rerouteNo="0" devices="tripinfo_134603_411_0 routing_134603_411_0" vType="pkw" speedFactor="1.08" vaporized=""/>
    <tripinfo id="137959_412_0" depart="25209.00" departLane="-186623965#18_0" departPos="4.40" departSpeed="0.00" departDelay="0.00" arrival="25248.00" arrivalLane="-22917421#4_0" arrivalPos="96.26" arrivalSpeed="6.48" duration="39.00" routeLength="263.02" waitingTime="3.00" waitingCount="1" stopTime="0.00" timeLoss="10.78" rerouteNo="0" devices="tripinfo_137959_412_0 routing_137959_412_0" vType="pkw" speedFactor="0.87" vaporized=""/>
    <tripinfo id="114597_403_0" depart="25201.00" departLane="22917421#3_0" departPos="4.40" departSpeed="0.00" departDelay="0.00" arrival="25258.00" arrivalLane="-186623965#14_0" arrivalPos="159.69" arrivalSpeed="12.10" duration="57.00" routeLength="476.78" waitingTime="4.00" waitingCount="1" stopTime="0.00" timeLoss="14.00" rerouteNo="1" devices="tripinfo_114597_403_0 routing_114597_403_0" vType="pkw" speedFactor="0.92" vaporized=""/>
    <tripinfo id="138070_412_0" depart="25229.00" departLane="22917421#3_0" departPos="4.40" departSpeed="0.00" departDelay="0.00" arrival="25264.00" arrivalLane="186623965#17_0" arrivalPos="143.63" arrivalSpeed="13.28" duration="35.00" routeLength="257.42" waitingTime="4.00" waitingCount="1" stopTime="0.00" timeLoss="11.87" rerouteNo="0" devices="tripinfo_138070_412_0 routing_138070_412_0" vType="pkw" speedFactor="1.02" vaporized=""/>
    <tripinfo id="119181_405_0" depart="25226.00" departLane="186623965#9_0" departPos="4.40" departSpeed="0.00" departDelay="0.00" arrival="25267.00" arrivalLane="42925825#0_0" arrivalPos="254.17" arrivalSpeed="13.75" duration="41.00" routeLength="418.48" waitingTime="0.00" waitingCount="0" stopTime="0.00" timeLoss="11.27" rerouteNo="0" devices="tripinfo_119181_405_0 routing_119181_405_0" vType="pkw" speedFactor="1.03" vaporized=""/>
    <tripinfo id="133416_410_0" depart="25228.00" departLane="186623965#9_0" departPos="4.40" departSpeed="0.00" departDelay="0.00" arrival="25269.00" arrivalLane="42925825#0_0" arrivalPos="254.17" arrivalSpeed="14.42" duration="41.00" routeLength="418.48" waitingTime="1.00" waitingCount="1" stopTime="0.00" timeLoss="11.79" rerouteNo="0" devices="tripinfo_133416_410_0 routing_133416_410_0" vType="pkw" speedFactor="1.06" vaporized=""/>
    <tripinfo id="140143_414_0" depart="25211.00" departLane="-28675510#11_0" departPos="4.40" departSpeed="0.00" departDelay="1.00" arrival="25275.00" arrivalLane="28675510#7_0" arrivalPos="257.94" arrivalSpeed="11.06" duration="64.00" routeLength="516.12" waitingTime="7.00" waitingCount="1" stopTime="0.00" timeLoss="19.79" rerouteNo="0" devices="tripinfo_140143_414_0 routing_140143_414_0" vType="pkw" speedFactor="0.85" vaporized=""/>
    <tripinfo id="153496_420_0" depart="25232.00" departLane="22917421#3_0" departPos="4.40" departSpeed="0.00" departDelay="0.00" arrival="25278.00" arrivalLane="186623965#17_0" arrivalPos="143.63" arrivalSpeed="13.97" duration="46.00" routeLength="257.42" waitingTime="9.00" waitingCount="1" stopTime="0.00" timeLoss="22.86" rerouteNo="0" devices="tripinfo_153496_420_0 routing_153496_420_0" vType="pkw" speedFactor="1.01" vaporized=""/>
    <tripinfo id="155353_420_0" depart="25235.00" departLane="22917421#3_0" departPos="4.40" departSpeed="0.00" departDelay="1.00" arrival="25281.00" arrivalLane="186623965#17_0" arrivalPos="143.63" arrivalSpeed="12.04" duration="46.00" routeLength="257.42" waitingTime="9.00" waitingCount="1" stopTime="0.00" timeLoss="20.50" rerouteNo="0" devices="tripinfo_155353_420_0 routing_155353_420_0" vType="pkw" speedFactor="0.92" vaporized=""/>
    <tripinfo id="161942_421_0" depart="25233.00" departLane="-42925825#2_0" departPos="4.40" departSpeed="0.00" departDelay="0.00" arrival="25284.00" arrivalLane="42925825#0_0" arrivalPos="254.17" arrivalSpeed="10.17" duration="51.00" routeLength="508.64" waitingTime="0.00" waitingCount="0" stopTime="0.00" timeLoss="6.41" rerouteNo="0" devices="tripinfo_161942_421_0 routing_161942_421_0" vType="pkw" speedFactor="0.83" vaporized=""/>
    <tripinfo id="76230_386_0" depart="25204.00" departLane="-23283579#1_0" departPos="4.40" departSpeed="0.00" departDelay="0.00" arrival="25285.00" arrivalLane="297047309#0_0" arrivalPos="91.17" arrivalSpeed="13.68" duration="81.00" routeLength="656.20" waitingTime="2.00" waitingCount="1" stopTime="0.00" timeLoss="17.39" rerouteNo="1" devices="tripinfo_76230_386_0 routing_76230_386_0" vType="pkw" speedFactor="1.03" vaporized=""/>
    <tripinfo id="118788_405_0" depart="25248.00" departLane="22917421#3_0" departPos="4.40" departSpeed="0.00" departDelay="1.00" arrival="25287.00" arrivalLane="186623965#17_0" arrivalPos="143.63" arrivalSpeed="12.31" duration="39.00" routeLength="257.42" waitingTime="5.00" waitingCount="1" stopTime="0.00" timeLoss="14.10" rerouteNo="0" devices="tripinfo_118788_405_0 routing_118788_405_0" vType="pkw" speedFactor="0.96" vaporized=""/>
    <tripinfo id="144617_416_0" depart="25256.00" departLane="22917421#3_0" departPos="4.40" departSpeed="0.00" departDelay="0.00" arrival="25291.00" arrivalLane="186623965#17_0" arrivalPos="143.63" arrivalSpeed="11.50" duration="35.00" routeLength="257.42" waitingTime="0.00" waitingCount="0" stopTime="0.00" timeLoss="6.82" rerouteNo="0" devices="tripinfo_144617_416_0 routing_144617_416_0" vType="pkw" speedFactor="0.85" vaporized=""/>
    <tripinfo id="111571_401_0" depart="25267.00" departLane="-353069169#0_0" departPos="4.40" departSpeed="0.00" departDelay="0.00" arrival="25296.00" arrivalLane="24487264_0" arrivalPos="166.35" arrivalSpeed="11.67" duration="29.00" routeLength="286.19" waitingTime="0.00" waitingCount="0" stopTime="0.00" timeLoss="5.80" rerouteNo="1" devices="tripinfo_111571_401_0 routing_111571_401_0" vType="pkw" speedFactor="0.93" vaporized=""/>
    <tripinfo id="110248_401_0" depart="25207.00" departLane="-23283579#1_0" departPos="4.40" departSpeed="0.00" departDelay="1.00" arrival="25297.00" arrivalLane="297047309#0_0" arrivalPos="91.17" arrivalSpeed="15.26" duration="90.00" routeLength="656.20" waitingTime="10.00" waitingCount="2" stopTime="0.00" timeLoss="34.35" rerouteNo="1" devices="tripinfo_110248_401_0 routing_110248_401_0" vType="pkw" speedFactor="1.18" vaporized=""/>
    <tripinfo id="141355_415_0" depart="25232.00" departLane="-186623965#18_0" departPos="4.40" departSpeed="0.00" departDelay="0.00" arrival="25300.00" arrivalLane="42925825#0_0" arrivalPos="254.17" arrivalSpeed="15.56" duration="68.00" routeLength="625.62" waitingTime="10.00" waitingCount="2" stopTime="0.00" timeLoss="27.33" rerouteNo="1" devices="tripinfo_141355_415_0 routing_141355_415_0" vType="pkw" speedFactor="1.13" vaporized=""/>
    <tripinfo id="113370_402_0" depart="25249.00" departLane="186623965#9_0" departPos="4.40" departSpeed="0.00" departDelay="0.00" arrival="25307.00" arrivalLane="42925825#0_0" arrivalPos="254.17" arrivalSpeed="12.21" duration="58.00" routeLength="418.48" waitingTime="16.00" waitingCount="1" stopTime="0.00" timeLoss="24.67" rerouteNo="0" devices="tripinfo_113370_402_0 routing_113370_402_0" vType="pkw" speedFactor="0.93" vaporized=""/>
    <tripinfo id="145282_416_0" depart="25259.00" departLane="186623965#9_0" departPos="4.40" departSpeed="0.00" departDelay="0.00" arrival="25308.00" arrivalLane="42925825#0_0" arrivalPos="254.17" arrivalSpeed="13.22" duration="49.00" routeLength="418.48" waitingTime="8.00" waitingCount="1" stopTime="0.00" timeLoss="17.83" rerouteNo="0" devices="tripinfo_145282_416_0 routing_145282_416_0" vType="pkw" speedFactor="0.97" vaporized=""/>
    <tripinfo id="121484_406_0" depart="25268.00" departLane="-23283579#1_0" departPos="4.40" departSpeed="0.00" departDelay="0.00" arrival="25308.00" arrivalLane="133081987#3_0" arrivalPos="99.94" arrivalSpeed="13.73" duration="40.00" routeLength="434.85" waitingTime="0.00" waitingCount="0" stopTime="0.00" timeLoss="9.49" rerouteNo="1" devices="tripinfo_121484_406_0 routing_121484_406_0" vType="pkw" speedFactor="1.05" vaporized=""/>
    <tripinfo id="135663_411_0" depart="25217.00" departLane="-28675510#11_0" departPos="4.40" departSpeed="0.00" departDelay="3.00" arrival="25309.00" arrivalLane="28675510#7_0" arrivalPos="257.94" arrivalSpeed="12.46" duration="92.00" routeLength="516.12" waitingTime="33.00" waitingCount="2" stopTime="0.00" timeLoss="50.74" rerouteNo="0" devices="tripinfo_135663_411_0 routing_135663_411_0" vType="pkw" speedFactor="0.90" vaporized=""/>
    <tripinfo id="149045_417_0" depart="25220.00" departLane="-28675510#11_0" departPos="4.40" departSpeed="0.00" departDelay="3.00" arrival="25311.00" arrivalLane="28675510#7_0" arrivalPos="257.94" arrivalSpeed="14.66" duration="91.00" routeLength="516.12" waitingTime="32.00" waitingCount="2" stopTime="0.00" timeLoss="55.87" rerouteNo="0" devices="tripinfo_149045_417_0 routing_149045_417_0" vType="pkw" speedFactor="1.08" vaporized=""/>
    <tripinfo id="131071_409_0" depart="25236.00" departLane="-186623965#18_0" departPos="4.40" departSpeed="0.00" departDelay="0.00" arrival="25311.00" arrivalLane="42925825#0_0" arrivalPos="254.17" arrivalSpeed="11.14" duration="75.00" routeLength="625.62" waitingTime="2.00" waitingCount="2" stopTime="0.00" timeLoss="24.47" rerouteNo="1" devices="tripinfo_131071_409_0 routing_131071_409_0" vType="pkw" speedFactor="0.89" vaporized=""/>
    <tripinfo id="150593_418_0" depart="25297.00" departLane="22959552#0_0" departPos="4.40" departSpeed="0.00" departDelay="0.00" arrival="25311.00" arrivalLane="22959552#0_0" arrivalPos="91.39" arrivalSpeed="7.47" duration="14.00" routeLength="86.99" waitingTime="0.00" waitingCount="0" stopTime="0.00" timeLoss="3.19" rerouteNo="1" devices="tripinfo_150593_418_0 routing_150593_418_0" vType="pkw" speedFactor="1.00" vaporized=""/>
    <tripinfo id="126900_407_0" depart="25239.00" departLane="-186623965#18_0" departPos="4.40" departSpeed="0.00" departDelay="0.00" arrival="25313.00" arrivalLane="42925825#0_0" arrivalPos="254.17" arrivalSpeed="12.21" duration="74.00" routeLength="625.62" waitingTime="0.00" waitingCount="0" stopTime="0.00" timeLoss="23.57" rerouteNo="1" devices="tripinfo_126900_407_0 routing_126900_407_0" vType="pkw" speedFactor="0.90" vaporized=""/>
    <tripinfo id="162497_421_0" depart="25273.00" departLane="22917421#3_0" departPos="4.40" departSpeed="0.00" departDelay="0.00" arrival="25313.00" arrivalLane="186623965#17_0" arrivalPos="143.63" arrivalSpeed="13.98" duration="40.00" routeLength="257.42" waitingTime="9.00" waitingCount="1" stopTime="0.00" timeLoss="18.30" rerouteNo="0" devices="tripinfo_162497_421_0 routing_162497_421_0" vType="pkw" speedFactor="1.08" vaporized=""/>
    <tripinfo id="127809_407_0" depart="25258.00" departLane="-23283579#1_0" departPos="4.40" departSpeed="0.00" departDelay="1.00" arrival="25319.00" arrivalLane="23285888#0_0" arrivalPos="109.58" arrivalSpeed="7.94" duration="61.00" routeLength="410.95" waitingTime="3.00" waitingCount="1" stopTime="0.00" timeLoss="18.00" rerouteNo="1" devices="tripinfo_127809_407_0 routing_127809_407_0" vType="pkw" speedFactor="1.04" vaporized=""/>
    <tripinfo id="91556_392_0" depart="25271.00" departLane="-23283579#1_0" departPos="4.40" departSpeed="0.00" departDelay="1.00" arrival="25323.00" arrivalLane="23840972_0" arrivalPos="97.66" arrivalSpeed="8.60" duration="52.00" routeLength="525.30" waitingTime="0.00" waitingCount="0" stopTime="0.00" timeLoss="9.94" rerouteNo="1" devices="tripinfo_91556_392_0 routing_91556_392_0" vType="pkw" speedFactor="1.12" vaporized=""/>
    <tripinfo id="140525_414_0" depart="25221.00" departLane="186623965#9_0" departPos="4.40" departSpeed="0.00" departDelay="0.00" arrival="25329.00" arrivalLane="186623965#17_0" arrivalPos="143.63" arrivalSpeed="13.24" duration="108.00" routeLength="527.61" waitingTime="51.00" waitingCount="2" stopTime="0.00" timeLoss="68.29" rerouteNo="1" devices="tripinfo_140525_414_0 routing_140525_414_0" vType="pkw" speedFactor="0.96" vaporized=""/>
    <tripinfo id="158885_421_0" depart="25220.00" departLane="22917421#3_0" departPos="4.40" departSpeed="0.00" departDelay="0.00" arrival="25332.00" arrivalLane="28675510#7_0" arrivalPos="257.94" arrivalSpeed="13.40" duration="112.00" routeLength="937.03" waitingTime="0.00" waitingCount="0" stopTime="0.00" timeLoss="11.35" rerouteNo="1" devices="tripinfo_158885_421_0 routing_158885_421_0" vType="pkw" speedFactor="0.99" vaporized=""/>
    <tripinfo id="163799_422_0" depart="25256.00" departLane="-186623965#18_0" departPos="4.40" departSpeed="0.00" departDelay="1.00" arrival="25333.00" arrivalLane="-22917421#4_0" arrivalPos="96.26" arrivalSpeed="8.59" duration="77.00" routeLength="263.02" waitingTime="39.00" waitingCount="2" stopTime="0.00" timeLoss="55.19" rerouteNo="0" devices="tripinfo_163799_422_0 routing_163799_422_0" vType="pkw" speedFactor="1.13" vaporized=""/>
    <tripinfo id="156485_420_0" depart="25205.00" departLane="22959552#0_0" departPos="4.40" departSpeed="0.00" departDelay="0.00" arrival="25337.00" arrivalLane="28675510#7_0" arrivalPos="257.94" arrivalSpeed="13.19" duration="132.00" routeLength="1112.54" waitingTime="7.00" waitingCount="1" stopTime="0.00" timeLoss="29.64" rerouteNo="1" devices="tripinfo_156485_420_0 routing_156485_420_0" vType="pkw" speedFactor="1.01" vaporized=""/>
    <tripinfo id="166162_424_0" depart="25233.00" departLane="22959550#0_0" departPos="4.40" departSpeed="0.00" departDelay="0.00" arrival="25339.00" arrivalLane="28675510#7_0" arrivalPos="257.94" arrivalSpeed="13.69" duration="106.00" routeLength="903.30" waitingTime="9.00" waitingCount="1" stopTime="0.00" timeLoss="27.10" rerouteNo="1" devices="tripinfo_166162_424_0 routing_166162_424_0" vType="pkw" speedFactor="1.08" vaporized=""/>
    <tripinfo id="146152_416_0" depart="25210.00" departLane="25166682#0_0" departPos="4.40" departSpeed="0.00" departDelay="0.00" arrival="25340.00" arrivalLane="28675510#7_0" arrivalPos="257.94" arrivalSpeed="15.93" duration="130.00" routeLength="1219.50" waitingTime="3.00" waitingCount="1" stopTime="0.00" timeLoss="40.14" rerouteNo="1" devices="tripinfo_146152_416_0 routing_146152_416_0" vType="pkw" speedFactor="1.20" vaporized=""/>
    <tripinfo id="124742_406_0" depart="25238.00" departLane="22917421#3_0" departPos="4.40" departSpeed="0.00" departDelay="2.00" arrival="25349.00" arrivalLane="28675493_0" arrivalPos="90.85" arrivalSpeed="13.26" duration="111.00" routeLength="1141.94" waitingTime="8.00" waitingCount="1" stopTime="0.00" timeLoss="25.59" rerouteNo="1" devices="tripinfo_124742_406_0 routing_124742_406_0" vType="pkw" speedFactor="1.02" vaporized=""/>
    <tripinfo id="152801_419_0" depart="25300.00" departLane="-297047307_0" departPos="4.40" departSpeed="0.00" departDelay="1.00" arrival="25349.00" arrivalLane="297047309#0_0" arrivalPos="91.17" arrivalSpeed="13.66" duration="49.00" routeLength="439.92" waitingTime="6.00" waitingCount="1" stopTime="0.00" timeLoss="18.86" rerouteNo="1" devices="tripinfo_152801_419_0 routing_152801_419_0" vType="pkw" speedFactor="1.07" vaporized=""/>
    <tripinfo id="171184_426_0" depart="25326.00" departLane="133081987#0_0" departPos="4.40" departSpeed="0.00" departDelay="0.00" arrival="25350.00" arrivalLane="23283436_0" arrivalPos="65.76" arrivalSpeed="12.02" duration="24.00" routeLength="154.99" waitingTime="2.00" waitingCount="1" stopTime="0.00" timeLoss="10.97" rerouteNo="0" devices="tripinfo_171184_426_0 routing_171184_426_0" vType="pkw" speedFactor="0.90" vaporized=""/>
    <tripinfo id="126698_407_0" depart="25242.00" departLane="-186623965#18_0" departPos="4.40" departSpeed="0.00" departDelay="1.00" arrival="25352.00" arrivalLane="42925825#0_0" arrivalPos="254.17" arrivalSpeed="13.88" duration="110.00" routeLength="625.62" waitingTime="50.00" waitingCount="1" stopTime="0.00" timeLoss="65.36" rerouteNo="1" devices="tripinfo_126698_407_0 routing_126698_407_0" vType="pkw" speedFactor="1.03" vaporized=""/>
    <tripinfo id="159622_421_0" depart="25254.00" departLane="-186623965#18_0" departPos="4.40" departSpeed="0.00" departDelay="3.00" arrival="25353.00" arrivalLane="42925825#0_0" arrivalPos="254.17" arrivalSpeed="14.61" duration="99.00" routeLength="625.62" waitingTime="39.00" waitingCount="2" stopTime="0.00" timeLoss="57.77" rerouteNo="1" devices="tripinfo_159622_421_0 routing_159622_421_0" vType="pkw" speedFactor="1.10" vaporized=""/>
    <tripinfo id="145512_416_0" depart="25308.00" departLane="22917421#3_0" departPos="4.40" departSpeed="0.00" departDelay="0.00" arrival="25354.00" arrivalLane="186623965#17_0" arrivalPos="143.63" arrivalSpeed="13.67" duration="46.00" routeLength="257.42" waitingTime="14.00" waitingCount="1" stopTime="0.00" timeLoss="23.20" rerouteNo="0" devices="tripinfo_145512_416_0 routing_145512_416_0" vType="pkw" speedFactor="1.04" vaporized=""/>
    <tripinfo id="147744_416_0" depart="25272.00" departLane="-186623965#18_0" departPos="4.40" departSpeed="0.00" departDelay="0.00" arrival="25359.00" arrivalLane="42925825#0_0" arrivalPos="254.17" arrivalSpeed="12.43" duration="87.00" routeLength="625.62" waitingTime="23.00" waitingCount="2" stopTime="0.00" timeLoss="37.56" rerouteNo="1" devices="tripinfo_147744_416_0 routing_147744_416_0" vType="pkw" speedFactor="0.93" vaporized=""/>
    <tripinfo id="158136_421_0" depart="25240.00" departLane="28675510#1_0" departPos="4.40" departSpeed="0.00" departDelay="0.00" arrival="25360.00" arrivalLane="323416262_0" arrivalPos="87.54" arrivalSpeed="13.43" duration="120.00" routeLength="1126.93" waitingTime="0.00" waitingCount="0" stopTime="0.00" timeLoss="16.39" rerouteNo="1" devices="tripinfo_158136_421_0 routing_158136_421_0" vType="pkw" speedFactor="1.01" vaporized=""/>
    <tripinfo id="161216_421_0" depart="25251.00" departLane="-186623965#18_0" departPos="4.40" departSpeed="0.00" departDelay="3.00" arrival="25360.00" arrivalLane="42925825#0_0" arrivalPos="254.17" arrivalSpeed="13.03" duration="109.00" routeLength="625.62" waitingTime="45.00" waitingCount="1" stopTime="0.00" timeLoss="63.76" rerouteNo="1" devices="tripinfo_161216_421_0 routing_161216_421_0" vType="pkw" speedFactor="1.00" vaporized=""/>
    <tripinfo id="134428_411_0" depart="25237.00" departLane="-28675510#11_0" departPos="4.40" departSpeed="0.00" departDelay="0.00" arrival="25362.00" arrivalLane="28675510#7_0" arrivalPos="257.94" arrivalSpeed="9.19" duration="125.00" routeLength="516.12" waitingTime="45.00" waitingCount="4" stopTime="0.00" timeLoss="73.25" rerouteNo="0" devices="tripinfo_134428_411_0 routing_134428_411_0" vType="pkw" speedFactor="0.72" vaporized=""/>
    <tripinfo id="122140_406_0" depart="25244.00" departLane="22917421#3_0" departPos="4.40" departSpeed="0.00" departDelay="0.00" arrival="25366.00" arrivalLane="23648008#2_0" arrivalPos="175.60" arrivalSpeed="15.06" duration="122.00" routeLength="1356.05" waitingTime="7.00" waitingCount="1" stopTime="0.00" timeLoss="32.63" rerouteNo="1" devices="tripinfo_122140_406_0 routing_122140_406_0" vType="pkw" speedFactor="1.15" vaporized=""/>
    <tripinfo id="144017_416_0" depart="25348.00" departLane="-353069169#0_0" departPos="4.40" departSpeed="0.00" departDelay="0.00" arrival="25366.00" arrivalLane="323416262_0" arrivalPos="87.54" arrivalSpeed="14.32" duration="18.00" routeLength="175.35" waitingTime="0.00" waitingCount="0" stopTime="0.00" timeLoss="5.96" rerouteNo="0" devices="tripinfo_144017_416_0 routing_144017_416_0" vType="pkw" speedFactor="1.09" vaporized=""/>
    <tripinfo id="131237_409_0" depart="25228.00" departLane="-186623965#18_0" departPos="4.40" departSpeed="0.00" departDelay="0.00" arrival="25369.00" arrivalLane="297047309#0_0" arrivalPos="91.17" arrivalSpeed="13.97" duration="141.00" routeLength="1417.37" waitingTime="18.00" waitingCount="3" stopTime="0.00" timeLoss="43.65" rerouteNo="1" devices="tripinfo_131237_409_0 routing_131237_409_0" vType="pkw" speedFactor="1.05" vaporized=""/>
    <tripinfo id="131243_409_0" depart="25248.00" departLane="-186623965#18_0" departPos="4.40" departSpeed="0.00" departDelay="0.00" arrival="25369.00" arrivalLane="-186623965#14_0" arrivalPos="159.69" arrivalSpeed="13.56" duration="121.00" routeLength="528.65" waitingTime="65.00" waitingCount="2" stopTime="0.00" timeLoss="81.97" rerouteNo="1" devices="tripinfo_131243_409_0 routing_131243_409_0" vType="pkw" speedFactor="0.99" vaporized=""/>
    <tripinfo id="174787_427_0" depart="25287.00" departLane="22959550#3_0" departPos="4.40" departSpeed="0.00" departDelay="0.00" arrival="25370.00" arrivalLane="28675510#7_0" arrivalPos="257.94" arrivalSpeed="11.52" duration="83.00" routeLength="757.45" waitingTime="0.00" waitingCount="0" stopTime="0.00" timeLoss="9.28" rerouteNo="1" devices="tripinfo_174787_427_0 routing_174787_427_0" vType="pkw" speedFactor="0.92" vaporized=""/>
    <tripinfo id="166776_424_0" depart="25208.00" departLane="-28675510#11_0" departPos="4.40" departSpeed="0.00" departDelay="0.00" arrival="25371.00" arrivalLane="-186623965#14_0" arrivalPos="159.69" arrivalSpeed="12.72" duration="163.00" routeLength="1202.17" waitingTime="27.00" waitingCount="2" stopTime="0.00" timeLoss="49.78" rerouteNo="1" devices="tripinfo_166776_424_0 routing_166776_424_0" vType="pkw" speedFactor="1.01" vaporized=""/>
    <tripinfo id="163043_422_0" depart="25214.00" departLane="-28675510#11_0" departPos="4.40" departSpeed="0.00" departDelay="2.00" arrival="25372.00" arrivalLane="8716827#0_0" arrivalPos="109.12" arrivalSpeed="7.25" duration="158.00" routeLength="1154.53" waitingTime="36.00" waitingCount="3" stopTime="0.00" timeLoss="56.35" rerouteNo="1" devices="tripinfo_163043_422_0 routing_163043_422_0" vType="pkw" speedFactor="0.88" vaporized=""/>
    <tripinfo id="134167_411_0" depart="25211.00" departLane="-23283579#1_0" departPos="4.40" departSpeed="0.00" departDelay="0.00" arrival="25378.00" arrivalLane="-186623965#14_0" arrivalPos="159.69" arrivalSpeed="13.65" duration="167.00" routeLength="1526.65" waitingTime="16.00" waitingCount="2" stopTime="0.00" timeLoss="44.18" rerouteNo="1" devices="tripinfo_134167_411_0 routing_134167_411_0" vType="pkw" speedFactor="1.05" vaporized=""/>
    <tripinfo id="139269_413_0" depart="25307.00" departLane="-23283579#1_0" departPos="4.40" departSpeed="0.00" departDelay="0.00" arrival="25379.00" arrivalLane="-297047308_0" arrivalPos="28.52" arrivalSpeed="13.29" duration="72.00" routeLength="517.28" waitingTime="13.00" waitingCount="1" stopTime="0.00" timeLoss="28.40" rerouteNo="1" devices="tripinfo_139269_413_0 routing_139269_413_0" vType="pkw" speedFactor="1.27" vaporized=""/>
    <tripinfo id="129175_408_0" depart="25255.00" departLane="-23283579#1_0" departPos="4.40" departSpeed="0.00" departDelay="0.00" arrival="25385.00" arrivalLane="323450710#0_0" arrivalPos="95.59" arrivalSpeed="10.58" duration="130.00" routeLength="843.12" waitingTime="15.00" waitingCount="2" stopTime="0.00" timeLoss="34.33" rerouteNo="1" devices="tripinfo_129175_408_0 routing_129175_408_0" vType="pkw" speedFactor="0.83" vaporized=""/>
    <tripinfo id="138639_413_0" depart="25314.00" departLane="186623965#9_0" departPos="4.40" departSpeed="0.00" departDelay="0.00" arrival="25388.00" arrivalLane="186623965#17_0" arrivalPos="143.63" arrivalSpeed="12.79" duration="74.00" routeLength="527.61" waitingTime="22.00" waitingCount="1" stopTime="0.00" timeLoss="35.33" rerouteNo="1" devices="tripinfo_138639_413_0 routing_138639_413_0" vType="pkw" speedFactor="1.00" vaporized=""/>
    <tripinfo id="148039_417_0" depart="25331.00" departLane="-186623965#16_0" departPos="4.40" departSpeed="0.00" departDelay="0.00" arrival="25389.00" arrivalLane="186623965#17_0" arrivalPos="143.63" arrivalSpeed="12.17" duration="58.00" routeLength="545.21" waitingTime="2.00" waitingCount="1" stopTime="0.00" timeLoss="14.23" rerouteNo="1" devices="tripinfo_148039_417_0 routing_148039_417_0" vType="pkw" speedFactor="0.91" vaporized=""/>
    <tripinfo id="108769_400_0" depart="25356.00" departLane="-186623965#18_0" departPos="4.40" departSpeed="0.00" departDelay="0.00" arrival="25393.00" arrivalLane="-22917421#4_0" arrivalPos="96.26" arrivalSpeed="8.47" duration="37.00" routeLength="263.02" waitingTime="3.00" waitingCount="1" stopTime="0.00" timeLoss="14.72" rerouteNo="0" devices="tripinfo_108769_400_0 routing_108769_400_0" vType="pkw" speedFactor="1.10" vaporized=""/>
    <tripinfo id="84611_390_0" depart="25261.00" departLane="-23283579#1_0" departPos="4.40" departSpeed="0.00" departDelay="0.00" arrival="25395.00" arrivalLane="-23648008#0_0" arrivalPos="75.90" arrivalSpeed="15.46" duration="134.00" routeLength="782.02" waitingTime="23.00" waitingCount="3" stopTime="0.00" timeLoss="67.14" rerouteNo="1" devices="tripinfo_84611_390_0 routing_84611_390_0" vType="pkw" speedFactor="1.13" vaporized=""/>
    <tripinfo id="163025_422_0" depart="25248.00" departLane="-28675510#11_0" departPos="4.40" departSpeed="0.00" departDelay="2.00" arrival="25398.00" arrivalLane="8716807#1_0" arrivalPos="110.75" arrivalSpeed="8.40" duration="150.00" routeLength="862.02" waitingTime="39.00" waitingCount="4" stopTime="0.00" timeLoss="76.93" rerouteNo="1" devices="tripinfo_163025_422_0 routing_163025_422_0" vType="pkw" speedFactor="1.01" vaporized=""/>
    <tripinfo id="166783_424_0" depart="25349.00" departLane="22917421#3_0" departPos="4.40" departSpeed="0.00" departDelay="0.00" arrival="25401.00" arrivalLane="186623965#17_0" arrivalPos="143.63" arrivalSpeed="13.22" duration="52.00" routeLength="257.42" waitingTime="15.00" waitingCount="2" stopTime="0.00" timeLoss="29.33" rerouteNo="0" devices="tripinfo_166783_424_0 routing_166783_424_0" vType="pkw" speedFactor="1.04" vaporized=""/>
    <tripinfo id="152887_419_0" depart="25229.00" departLane="-28675510#11_0" departPos="4.40" departSpeed="0.00" departDelay="0.00" arrival="25403.00" arrivalLane="8716827#0_0" arrivalPos="109.12" arrivalSpeed="7.04" duration="174.00" routeLength="1154.53" waitingTime="47.00" waitingCount="6" stopTime="0.00" timeLoss="84.09" rerouteNo="1" devices="tripinfo_152887_419_0 routing_152887_419_0" vType="pkw" speedFactor="0.99" vaporized=""/>
    <tripinfo id="142950_415_0" depart="25275.00" departLane="-28675510#11_0" departPos="4.40" departSpeed="0.00" departDelay="1.00" arrival="25405.00" arrivalLane="155723703#0_0" arrivalPos="92.60" arrivalSpeed="13.73" duration="130.00" routeLength="1137.50" waitingTime="15.00" waitingCount="3" stopTime="0.00" timeLoss="53.89" rerouteNo="1" devices="tripinfo_142950_415_0 routing_142950_415_0" vType="pkw" speedFactor="1.08" vaporized=""/>
    <tripinfo id="164277_422_0" depart="25343.00" departLane="23285888#0_0" departPos="4.40" departSpeed="0.00" departDelay="0.00" arrival="25406.00" arrivalLane="297047309#0_0" arrivalPos="91.17" arrivalSpeed="15.11" duration="63.00" routeLength="518.80" waitingTime="3.00" waitingCount="1" stopTime="0.00" timeLoss="15.62" rerouteNo="1" devices="tripinfo_164277_422_0 routing_164277_422_0" vType="pkw" speedFactor="1.14" vaporized=""/>