<?xml version="1.0" encoding="UTF-8"?>

<!-- generated on 2023-08-30 11:11:40 by Eclipse SUMO libsumo Version 1.18.0
<configuration xmlns:xsi="http://www.w3.org/2001/XMLSchema-instance" xsi:noNamespaceSchemaLocation="http://sumo.dlr.de/xsd/libsumoConfiguration.xsd">

    <input>
        <net-file value="/home/stefan/RESCO/./environments/cologne8/cologne8.net.xml"/>
        <route-files value="/home/stefan/RESCO/./environments/cologne8/cologne8.rou.xml"/>
    </input>

    <output>
        <tripinfo-output value="/home/stefan/results/ITRPO-tr0-cologne8-0-drq_norm-wait_norm/tripinfo_24.xml"/>
        <tripinfo-output.write-unfinished value="true"/>
    </output>

    <time>
        <begin value="25200"/>
        <end value="28800"/>
    </time>

    <processing>
        <time-to-teleport value="-1"/>
    </processing>

    <report>
        <no-warnings value="True"/>
        <no-step-log value="True"/>
    </report>

    <random_number>
        <random value="true"/>
    </random_number>

</configuration>
-->

<tripinfos xmlns:xsi="http://www.w3.org/2001/XMLSchema-instance" xsi:noNamespaceSchemaLocation="http://sumo.dlr.de/xsd/tripinfo_file.xsd">
    <tripinfo id="142890_415_0" depart="25218.00" departLane="-23283579#1_0" departPos="4.40" departSpeed="0.00" departDelay="0.00" arrival="25225.00" arrivalLane="23283579#1_0" arrivalPos="22.22" arrivalSpeed="11.07" duration="7.00" routeLength="44.72" waitingTime="0.00" waitingCount="0" stopTime="0.00" timeLoss="3.71" rerouteNo="0" devices="tripinfo_142890_415_0 routing_142890_415_0" vType="pkw" speedFactor="1.00" vaporized=""/>
    <tripinfo id="137312_412_0" depart="25200.00" departLane="-23283579#1_0" departPos="4.40" departSpeed="0.00" departDelay="0.00" arrival="25233.00" arrivalLane="23283436_0" arrivalPos="65.76" arrivalSpeed="13.92" duration="33.00" routeLength="404.67" waitingTime="0.00" waitingCount="0" stopTime="0.00" timeLoss="3.65" rerouteNo="1" devices="tripinfo_137312_412_0 routing_137312_412_0" vType="pkw" speedFactor="1.01" vaporized=""/>
    <tripinfo id="137959_412_0" depart="25209.00" departLane="-186623965#18_0" departPos="4.40" departSpeed="0.00" departDelay="0.00" arrival="25243.00" arrivalLane="-22917421#4_0" arrivalPos="96.26" arrivalSpeed="6.81" duration="34.00" routeLength="263.02" waitingTime="0.00" waitingCount="0" stopTime="0.00" timeLoss="4.47" rerouteNo="0" devices="tripinfo_137959_412_0 routing_137959_412_0" vType="pkw" speedFactor="0.84" vaporized=""/>
    <tripinfo id="155570_420_0" depart="25200.00" departLane="-28675510#11_0" departPos="4.40" departSpeed="0.00" departDelay="0.00" arrival="25255.00" arrivalLane="28675510#7_0" arrivalPos="257.94" arrivalSpeed="13.83" duration="55.00" routeLength="516.12" waitingTime="7.00" waitingCount="1" stopTime="0.00" timeLoss="17.43" rerouteNo="0" devices="tripinfo_155570_420_0 routing_155570_420_0" vType="pkw" speedFactor="1.00" vaporized=""/>
    <tripinfo id="134603_411_0" depart="25206.00" departLane="-28675510#11_0" departPos="4.40" departSpeed="0.00" departDelay="0.00" arrival="25257.00" arrivalLane="28675510#7_0" arrivalPos="257.94" arrivalSpeed="13.34" duration="51.00" routeLength="516.12" waitingTime="3.00" waitingCount="1" stopTime="0.00" timeLoss="14.68" rerouteNo="0" devices="tripinfo_134603_411_0 routing_134603_411_0" vType="pkw" speedFactor="1.04" vaporized=""/>
    <tripinfo id="161942_421_0" depart="25233.00" departLane="-42925825#2_0" departPos="4.40" departSpeed="0.00" departDelay="0.00" arrival="25271.00" arrivalLane="42925825#0_0" arrivalPos="254.17" arrivalSpeed="14.96" duration="38.00" routeLength="508.64" waitingTime="0.00" waitingCount="0" stopTime="0.00" timeLoss="4.47" rerouteNo="0" devices="tripinfo_161942_421_0 routing_161942_421_0" vType="pkw" speedFactor="1.09" vaporized=""/>
    <tripinfo id="140143_414_0" depart="25212.00" departLane="-28675510#11_0" departPos="4.40" departSpeed="0.00" departDelay="2.00" arrival="25273.00" arrivalLane="28675510#7_0" arrivalPos="257.94" arrivalSpeed="12.47" duration="61.00" routeLength="516.12" waitingTime="8.00" waitingCount="1" stopTime="0.00" timeLoss="18.92" rerouteNo="0" devices="tripinfo_140143_414_0 routing_140143_414_0" vType="pkw" speedFactor="0.90" vaporized=""/>
    <tripinfo id="114597_403_0" depart="25201.00" departLane="22917421#3_0" departPos="4.40" departSpeed="0.00" departDelay="0.00" arrival="25278.00" arrivalLane="-186623965#14_0" arrivalPos="159.69" arrivalSpeed="14.12" duration="77.00" routeLength="476.78" waitingTime="30.00" waitingCount="1" stopTime="0.00" timeLoss="41.10" rerouteNo="1" devices="tripinfo_114597_403_0 routing_114597_403_0" vType="pkw" speedFactor="1.11" vaporized=""/>
    <tripinfo id="119181_405_0" depart="25226.00" departLane="186623965#9_0" departPos="4.40" departSpeed="0.00" departDelay="0.00" arrival="25287.00" arrivalLane="42925825#0_0" arrivalPos="254.17" arrivalSpeed="13.00" duration="61.00" routeLength="418.48" waitingTime="20.00" waitingCount="1" stopTime="0.00" timeLoss="30.06" rerouteNo="0" devices="tripinfo_119181_405_0 routing_119181_405_0" vType="pkw" speedFactor="1.00" vaporized=""/>
    <tripinfo id="133416_410_0" depart="25228.00" departLane="186623965#9_0" departPos="4.40" departSpeed="0.00" departDelay="0.00" arrival="25289.00" arrivalLane="42925825#0_0" arrivalPos="254.17" arrivalSpeed="12.95" duration="61.00" routeLength="418.48" waitingTime="19.00" waitingCount="1" stopTime="0.00" timeLoss="29.59" rerouteNo="0" devices="tripinfo_133416_410_0 routing_133416_410_0" vType="pkw" speedFactor="0.97" vaporized=""/>
    <tripinfo id="163799_422_0" depart="25255.00" departLane="-186623965#18_0" departPos="4.40" departSpeed="0.00" departDelay="0.00" arrival="25289.00" arrivalLane="-22917421#4_0" arrivalPos="96.26" arrivalSpeed="6.07" duration="34.00" routeLength="263.02" waitingTime="0.00" waitingCount="0" stopTime="0.00" timeLoss="5.42" rerouteNo="0" devices="tripinfo_163799_422_0 routing_163799_422_0" vType="pkw" speedFactor="0.86" vaporized=""/>
    <tripinfo id="113370_402_0" depart="25249.00" departLane="186623965#9_0" departPos="4.40" departSpeed="0.00" departDelay="0.00" arrival="25291.00" arrivalLane="42925825#0_0" arrivalPos="254.17" arrivalSpeed="16.30" duration="42.00" routeLength="418.48" waitingTime="1.00" waitingCount="1" stopTime="0.00" timeLoss="16.39" rerouteNo="0" devices="tripinfo_113370_402_0 routing_113370_402_0" vType="pkw" speedFactor="1.22" vaporized=""/>
    <tripinfo id="138070_412_0" depart="25229.00" departLane="22917421#3_0" departPos="4.40" departSpeed="0.00" departDelay="0.00" arrival="25292.00" arrivalLane="186623965#17_0" arrivalPos="143.63" arrivalSpeed="15.42" duration="63.00" routeLength="257.42" waitingTime="31.00" waitingCount="2" stopTime="0.00" timeLoss="42.18" rerouteNo="0" devices="tripinfo_138070_412_0 routing_138070_412_0" vType="pkw" speedFactor="1.14" vaporized=""/>
    <tripinfo id="111571_401_0" depart="25267.00" departLane="-353069169#0_0" departPos="4.40" departSpeed="0.00" departDelay="0.00" arrival="25293.00" arrivalLane="24487264_0" arrivalPos="166.35" arrivalSpeed="13.22" duration="26.00" routeLength="286.19" waitingTime="0.00" waitingCount="0" stopTime="0.00" timeLoss="5.02" rerouteNo="1" devices="tripinfo_111571_401_0 routing_111571_401_0" vType="pkw" speedFactor="1.03" vaporized=""/>
    <tripinfo id="131243_409_0" depart="25248.00" departLane="-186623965#18_0" departPos="4.40" departSpeed="0.00" departDelay="0.00" arrival="25295.00" arrivalLane="-186623965#14_0" arrivalPos="159.69" arrivalSpeed="12.59" duration="47.00" routeLength="528.65" waitingTime="0.00" waitingCount="0" stopTime="0.00" timeLoss="4.50" rerouteNo="1" devices="tripinfo_131243_409_0 routing_131243_409_0" vType="pkw" speedFactor="0.91" vaporized=""/>
    <tripinfo id="145282_416_0" depart="25259.00" departLane="186623965#9_0" departPos="4.40" departSpeed="0.00" departDelay="0.00" arrival="25295.00" arrivalLane="42925825#0_0" arrivalPos="254.17" arrivalSpeed="13.45" duration="36.00" routeLength="418.48" waitingTime="0.00" waitingCount="0" stopTime="0.00" timeLoss="5.19" rerouteNo="0" devices="tripinfo_145282_416_0 routing_145282_416_0" vType="pkw" speedFactor="1.00" vaporized=""/>
    <tripinfo id="141355_415_0" depart="25232.00" departLane="-186623965#18_0" departPos="4.40" departSpeed="0.00" departDelay="0.00" arrival="25298.00" arrivalLane="42925825#0_0" arrivalPos="254.17" arrivalSpeed="13.97" duration="66.00" routeLength="625.62" waitingTime="6.00" waitingCount="2" stopTime="0.00" timeLoss="21.60" rerouteNo="1" devices="tripinfo_141355_415_0 routing_141355_415_0" vType="pkw" speedFactor="1.03" vaporized=""/>
    <tripinfo id="131071_409_0" depart="25236.00" departLane="-186623965#18_0" departPos="4.40" departSpeed="0.00" departDelay="0.00" arrival="25299.00" arrivalLane="42925825#0_0" arrivalPos="254.17" arrivalSpeed="14.22" duration="63.00" routeLength="625.62" waitingTime="2.00" waitingCount="1" stopTime="0.00" timeLoss="19.58" rerouteNo="1" devices="tripinfo_131071_409_0 routing_131071_409_0" vType="pkw" speedFactor="1.04" vaporized=""/>
    <tripinfo id="126900_407_0" depart="25239.00" departLane="-186623965#18_0" departPos="4.40" departSpeed="0.00" departDelay="0.00" arrival="25303.00" arrivalLane="42925825#0_0" arrivalPos="254.17" arrivalSpeed="12.80" duration="64.00" routeLength="625.62" waitingTime="0.00" waitingCount="0" stopTime="0.00" timeLoss="16.36" rerouteNo="1" devices="tripinfo_126900_407_0 routing_126900_407_0" vType="pkw" speedFactor="0.96" vaporized=""/>
    <tripinfo id="153496_420_0" depart="25232.00" departLane="22917421#3_0" departPos="4.40" departSpeed="0.00" departDelay="0.00" arrival="25305.00" arrivalLane="186623965#17_0" arrivalPos="143.63" arrivalSpeed="12.94" duration="73.00" routeLength="257.42" waitingTime="34.00" waitingCount="3" stopTime="0.00" timeLoss="48.41" rerouteNo="0" devices="tripinfo_153496_420_0 routing_153496_420_0" vType="pkw" speedFactor="0.98" vaporized=""/>
    <tripinfo id="126698_407_0" depart="25242.00" departLane="-186623965#18_0" departPos="4.40" departSpeed="0.00" departDelay="1.00" arrival="25305.00" arrivalLane="42925825#0_0" arrivalPos="254.17" arrivalSpeed="12.37" duration="63.00" routeLength="625.62" waitingTime="0.00" waitingCount="0" stopTime="0.00" timeLoss="14.46" rerouteNo="1" devices="tripinfo_126698_407_0 routing_126698_407_0" vType="pkw" speedFactor="0.94" vaporized=""/>
    <tripinfo id="161216_421_0" depart="25250.00" departLane="-186623965#18_0" departPos="4.40" departSpeed="0.00" departDelay="2.00" arrival="25307.00" arrivalLane="42925825#0_0" arrivalPos="254.17" arrivalSpeed="12.06" duration="57.00" routeLength="625.62" waitingTime="0.00" waitingCount="0" stopTime="0.00" timeLoss="8.66" rerouteNo="1" devices="tripinfo_161216_421_0 routing_161216_421_0" vType="pkw" speedFactor="0.94" vaporized=""/>
    <tripinfo id="121484_406_0" depart="25268.00" departLane="-23283579#1_0" departPos="4.40" departSpeed="0.00" departDelay="0.00" arrival="25309.00" arrivalLane="133081987#3_0" arrivalPos="99.94" arrivalSpeed="12.98" duration="41.00" routeLength="434.85" waitingTime="0.00" waitingCount="0" stopTime="0.00" timeLoss="9.06" rerouteNo="1" devices="tripinfo_121484_406_0 routing_121484_406_0" vType="pkw" speedFactor="0.99" vaporized=""/>
    <tripinfo id="150593_418_0" depart="25297.00" departLane="22959552#0_0" departPos="4.40" departSpeed="0.00" departDelay="0.00" arrival="25312.00" arrivalLane="22959552#0_0" arrivalPos="91.39" arrivalSpeed="6.76" duration="15.00" routeLength="86.99" waitingTime="0.00" waitingCount="0" stopTime="0.00" timeLoss="2.13" rerouteNo="1" devices="tripinfo_150593_418_0 routing_150593_418_0" vType="pkw" speedFactor="0.84" vaporized=""/>
    <tripinfo id="159622_421_0" depart="25253.00" departLane="-186623965#18_0" departPos="4.40" departSpeed="0.00" departDelay="2.00" arrival="25316.00" arrivalLane="42925825#0_0" arrivalPos="254.17" arrivalSpeed="11.09" duration="63.00" routeLength="625.62" waitingTime="0.00" waitingCount="0" stopTime="0.00" timeLoss="6.26" rerouteNo="1" devices="tripinfo_159622_421_0 routing_159622_421_0" vType="pkw" speedFactor="0.81" vaporized=""/>
    <tripinfo id="140525_414_0" depart="25221.00" departLane="186623965#9_0" departPos="4.40" departSpeed="0.00" departDelay="0.00" arrival="25320.00" arrivalLane="186623965#17_0" arrivalPos="143.63" arrivalSpeed="11.83" duration="99.00" routeLength="527.61" waitingTime="41.00" waitingCount="2" stopTime="0.00" timeLoss="54.01" rerouteNo="1" devices="tripinfo_140525_414_0 routing_140525_414_0" vType="pkw" speedFactor="0.86" vaporized=""/>
    <tripinfo id="127809_407_0" depart="25257.00" departLane="-23283579#1_0" departPos="4.40" departSpeed="0.00" departDelay="0.00" arrival="25323.00" arrivalLane="23285888#0_0" arrivalPos="109.58" arrivalSpeed="6.95" duration="66.00" routeLength="410.95" waitingTime="4.00" waitingCount="1" stopTime="0.00" timeLoss="15.81" rerouteNo="1" devices="tripinfo_127809_407_0 routing_127809_407_0" vType="pkw" speedFactor="0.90" vaporized=""/>
    <tripinfo id="76230_386_0" depart="25204.00" departLane="-23283579#1_0" departPos="4.40" departSpeed="0.00" departDelay="0.00" arrival="25324.00" arrivalLane="297047309#0_0" arrivalPos="91.17" arrivalSpeed="14.20" duration="120.00" routeLength="656.20" waitingTime="43.00" waitingCount="2" stopTime="0.00" timeLoss="58.67" rerouteNo="1" devices="tripinfo_76230_386_0 routing_76230_386_0" vType="pkw" speedFactor="1.08" vaporized=""/>
    <tripinfo id="156485_420_0" depart="25205.00" departLane="22959552#0_0" departPos="4.40" departSpeed="0.00" departDelay="0.00" arrival="25324.00" arrivalLane="28675510#7_0" arrivalPos="257.94" arrivalSpeed="15.46" duration="119.00" routeLength="1112.54" waitingTime="18.00" waitingCount="1" stopTime="0.00" timeLoss="31.21" rerouteNo="1" devices="tripinfo_156485_420_0 routing_156485_420_0" vType="pkw" speedFactor="1.18" vaporized=""/>
    <tripinfo id="155353_420_0" depart="25235.00" departLane="22917421#3_0" departPos="4.40" departSpeed="0.00" departDelay="1.00" arrival="25329.00" arrivalLane="186623965#17_0" arrivalPos="143.63" arrivalSpeed="12.68" duration="94.00" routeLength="257.42" waitingTime="51.00" waitingCount="4" stopTime="0.00" timeLoss="68.27" rerouteNo="0" devices="tripinfo_155353_420_0 routing_155353_420_0" vType="pkw" speedFactor="0.93" vaporized=""/>
    <tripinfo id="91556_392_0" depart="25271.00" departLane="-23283579#1_0" departPos="4.40" departSpeed="0.00" departDelay="1.00" arrival="25332.00" arrivalLane="23840972_0" arrivalPos="97.66" arrivalSpeed="6.80" duration="61.00" routeLength="525.30" waitingTime="0.00" waitingCount="0" stopTime="0.00" timeLoss="8.51" rerouteNo="1" devices="tripinfo_91556_392_0 routing_91556_392_0" vType="pkw" speedFactor="0.89" vaporized=""/>
    <tripinfo id="135663_411_0" depart="25217.00" departLane="-28675510#11_0" departPos="4.40" departSpeed="0.00" departDelay="3.00" arrival="25333.00" arrivalLane="28675510#7_0" arrivalPos="257.94" arrivalSpeed="12.80" duration="116.00" routeLength="516.12" waitingTime="57.00" waitingCount="3" stopTime="0.00" timeLoss="76.03" rerouteNo="0" devices="tripinfo_135663_411_0 routing_135663_411_0" vType="pkw" speedFactor="0.95" vaporized=""/>
    <tripinfo id="118788_405_0" depart="25247.00" departLane="22917421#3_0" departPos="4.40" departSpeed="0.00" departDelay="0.00" arrival="25333.00" arrivalLane="186623965#17_0" arrivalPos="143.63" arrivalSpeed="14.90" duration="86.00" routeLength="257.42" waitingTime="42.00" waitingCount="3" stopTime="0.00" timeLoss="64.08" rerouteNo="0" devices="tripinfo_118788_405_0 routing_118788_405_0" vType="pkw" speedFactor="1.08" vaporized=""/>
    <tripinfo id="149045_417_0" depart="25220.00" departLane="-28675510#11_0" departPos="4.40" departSpeed="0.00" departDelay="3.00" arrival="25334.00" arrivalLane="28675510#7_0" arrivalPos="257.94" arrivalSpeed="11.82" duration="114.00" routeLength="516.12" waitingTime="55.00" waitingCount="3" stopTime="0.00" timeLoss="74.33" rerouteNo="0" devices="tripinfo_149045_417_0 routing_149045_417_0" vType="pkw" speedFactor="0.94" vaporized=""/>
    <tripinfo id="144617_416_0" depart="25256.00" departLane="22917421#3_0" departPos="4.40" departSpeed="0.00" departDelay="0.00" arrival="25336.00" arrivalLane="186623965#17_0" arrivalPos="143.63" arrivalSpeed="13.01" duration="80.00" routeLength="257.42" waitingTime="36.00" waitingCount="3" stopTime="0.00" timeLoss="56.48" rerouteNo="0" devices="tripinfo_144617_416_0 routing_144617_416_0" vType="pkw" speedFactor="1.00" vaporized=""/>
    <tripinfo id="166776_424_0" depart="25209.00" departLane="-28675510#11_0" departPos="4.40" departSpeed="0.00" departDelay="1.00" arrival="25339.00" arrivalLane="-186623965#14_0" arrivalPos="159.69" arrivalSpeed="16.33" duration="130.00" routeLength="1202.17" waitingTime="18.00" waitingCount="2" stopTime="0.00" timeLoss="39.48" rerouteNo="1" devices="tripinfo_166776_424_0 routing_166776_424_0" vType="pkw" speedFactor="1.26" vaporized=""/>
    <tripinfo id="162497_421_0" depart="25273.00" departLane="22917421#3_0" departPos="4.40" departSpeed="0.00" departDelay="0.00" arrival="25339.00" arrivalLane="186623965#17_0" arrivalPos="143.63" arrivalSpeed="11.86" duration="66.00" routeLength="257.42" waitingTime="21.00" waitingCount="3" stopTime="0.00" timeLoss="40.19" rerouteNo="0" devices="tripinfo_162497_421_0 routing_162497_421_0" vType="pkw" speedFactor="0.92" vaporized=""/>
    <tripinfo id="145512_416_0" depart="25308.00" departLane="22917421#3_0" departPos="4.40" departSpeed="0.00" departDelay="0.00" arrival="25340.00" arrivalLane="186623965#17_0" arrivalPos="143.63" arrivalSpeed="13.57" duration="32.00" routeLength="257.42" waitingTime="0.00" waitingCount="0" stopTime="0.00" timeLoss="10.73" rerouteNo="0" devices="tripinfo_145512_416_0 routing_145512_416_0" vType="pkw" speedFactor="1.10" vaporized=""/>
    <tripinfo id="171184_426_0" depart="25326.00" departLane="133081987#0_0" departPos="4.40" departSpeed="0.00" departDelay="0.00" arrival="25343.00" arrivalLane="23283436_0" arrivalPos="65.76" arrivalSpeed="13.32" duration="17.00" routeLength="154.99" waitingTime="0.00" waitingCount="0" stopTime="0.00" timeLoss="5.29" rerouteNo="0" devices="tripinfo_171184_426_0 routing_171184_426_0" vType="pkw" speedFactor="1.02" vaporized=""/>
    <tripinfo id="147744_416_0" depart="25272.00" departLane="-186623965#18_0" departPos="4.40" departSpeed="0.00" departDelay="0.00" arrival="25344.00" arrivalLane="42925825#0_0" arrivalPos="254.17" arrivalSpeed="15.64" duration="72.00" routeLength="625.62" waitingTime="13.00" waitingCount="1" stopTime="0.00" timeLoss="31.12" rerouteNo="1" devices="tripinfo_147744_416_0 routing_147744_416_0" vType="pkw" speedFactor="1.13" vaporized=""/>
    <tripinfo id="110248_401_0" depart="25206.00" departLane="-23283579#1_0" departPos="4.40" departSpeed="0.00" departDelay="0.00" arrival="25349.00" arrivalLane="297047309#0_0" arrivalPos="91.17" arrivalSpeed="15.45" duration="143.00" routeLength="656.20" waitingTime="60.00" waitingCount="3" stopTime="0.00" timeLoss="84.32" rerouteNo="1" devices="tripinfo_110248_401_0 routing_110248_401_0" vType="pkw" speedFactor="1.13" vaporized=""/>
    <tripinfo id="166162_424_0" depart="25233.00" departLane="22959550#0_0" departPos="4.40" departSpeed="0.00" departDelay="0.00" arrival="25350.00" arrivalLane="28675510#7_0" arrivalPos="257.94" arrivalSpeed="11.92" duration="117.00" routeLength="903.30" waitingTime="8.00" waitingCount="1" stopTime="0.00" timeLoss="22.81" rerouteNo="1" devices="tripinfo_166162_424_0 routing_166162_424_0" vType="pkw" speedFactor="0.90" vaporized=""/>
    <tripinfo id="146152_416_0" depart="25210.00" departLane="25166682#0_0" departPos="4.40" departSpeed="0.00" departDelay="0.00" arrival="25352.00" arrivalLane="28675510#7_0" arrivalPos="257.94" arrivalSpeed="15.01" duration="142.00" routeLength="1219.50" waitingTime="13.00" waitingCount="2" stopTime="0.00" timeLoss="44.51" rerouteNo="1" devices="tripinfo_146152_416_0 routing_146152_416_0" vType="pkw" speedFactor="1.11" vaporized=""/>
    <tripinfo id="134428_411_0" depart="25237.00" departLane="-28675510#11_0" departPos="4.40" departSpeed="0.00" departDelay="0.00" arrival="25359.00" arrivalLane="28675510#7_0" arrivalPos="257.94" arrivalSpeed="15.45" duration="122.00" routeLength="516.12" waitingTime="55.00" waitingCount="3" stopTime="0.00" timeLoss="88.35" rerouteNo="0" devices="tripinfo_134428_411_0 routing_134428_411_0" vType="pkw" speedFactor="1.11" vaporized=""/>
    <tripinfo id="138639_413_0" depart="25314.00" departLane="186623965#9_0" departPos="4.40" departSpeed="0.00" departDelay="0.00" arrival="25359.00" arrivalLane="186623965#17_0" arrivalPos="143.63" arrivalSpeed="13.13" duration="45.00" routeLength="527.61" waitingTime="0.00" waitingCount="0" stopTime="0.00" timeLoss="4.54" rerouteNo="1" devices="tripinfo_138639_413_0 routing_138639_413_0" vType="pkw" speedFactor="0.96" vaporized=""/>
    <tripinfo id="174787_427_0" depart="25287.00" departLane="22959550#3_0" departPos="4.40" departSpeed="0.00" departDelay="0.00" arrival="25367.00" arrivalLane="28675510#7_0" arrivalPos="257.94" arrivalSpeed="12.72" duration="80.00" routeLength="757.45" waitingTime="0.00" waitingCount="0" stopTime="0.00" timeLoss="11.67" rerouteNo="1" devices="tripinfo_174787_427_0 routing_174787_427_0" vType="pkw" speedFactor="0.98" vaporized=""/>
    <tripinfo id="144017_416_0" depart="25348.00" departLane="-353069169#0_0" departPos="4.40" departSpeed="0.00" departDelay="0.00" arrival="25367.00" arrivalLane="323416262_0" arrivalPos="87.54" arrivalSpeed="13.12" duration="19.00" routeLength="175.35" waitingTime="0.00" waitingCount="0" stopTime="0.00" timeLoss="4.99" rerouteNo="0" devices="tripinfo_144017_416_0 routing_144017_416_0" vType="pkw" speedFactor="0.97" vaporized=""/>
    <tripinfo id="140363_414_0" depart="25313.00" departLane="22917421#3_0" departPos="4.40" departSpeed="0.00" departDelay="0.00" arrival="25377.00" arrivalLane="-186623965#14_1" arrivalPos="159.69" arrivalSpeed="15.44" duration="64.00" routeLength="476.78" waitingTime="14.00" waitingCount="1" stopTime="0.00" timeLoss="29.49" rerouteNo="1" devices="tripinfo_140363_414_0 routing_140363_414_0" vType="pkw" speedFactor="1.14" vaporized=""/>
    <tripinfo id="129175_408_0" depart="25255.00" departLane="-23283579#1_0" departPos="4.40" departSpeed="0.00" departDelay="0.00" arrival="25379.00" arrivalLane="323450710#0_0" arrivalPos="95.59" arrivalSpeed="10.84" duration="124.00" routeLength="843.12" waitingTime="11.00" waitingCount="2" stopTime="0.00" timeLoss="30.89" rerouteNo="1" devices="tripinfo_129175_408_0 routing_129175_408_0" vType="pkw" speedFactor="0.85" vaporized=""/>
    <tripinfo id="152801_419_0" depart="25299.00" departLane="-297047307_0" departPos="4.40" departSpeed="0.00" departDelay="0.00" arrival="25379.00" arrivalLane="297047309#0_0" arrivalPos="91.17" arrivalSpeed="13.08" duration="80.00" routeLength="439.92" waitingTime="31.00" waitingCount="2" stopTime="0.00" timeLoss="47.04" rerouteNo="1" devices="tripinfo_152801_419_0 routing_152801_419_0" vType="pkw" speedFactor="0.96" vaporized=""/>
    <tripinfo id="131237_409_0" depart="25228.00" departLane="-186623965#18_0" departPos="4.40" departSpeed="0.00" departDelay="0.00" arrival="25381.00" arrivalLane="297047309#0_0" arrivalPos="91.17" arrivalSpeed="12.58" duration="153.00" routeLength="1417.37" waitingTime="22.00" waitingCount="3" stopTime="0.00" timeLoss="50.48" rerouteNo="1" devices="tripinfo_131237_409_0 routing_131237_409_0" vType="pkw" speedFactor="1.00" vaporized=""/>
    <tripinfo id="158136_421_0" depart="25240.00" departLane="28675510#1_0" departPos="4.40" departSpeed="0.00" departDelay="0.00" arrival="25385.00" arrivalLane="323416262_0" arrivalPos="87.54" arrivalSpeed="13.69" duration="145.00" routeLength="1126.93" waitingTime="20.00" waitingCount="2" stopTime="0.00" timeLoss="42.90" rerouteNo="1" devices="tripinfo_158136_421_0 routing_158136_421_0" vType="pkw" speedFactor="1.02" vaporized=""/>
    <tripinfo id="84611_390_0" depart="25261.00" departLane="-23283579#1_0" departPos="4.40" departSpeed="0.00" departDelay="0.00" arrival="25386.00" arrivalLane="-23648008#0_0" arrivalPos="75.90" arrivalSpeed="13.36" duration="125.00" routeLength="782.02" waitingTime="14.00" waitingCount="3" stopTime="0.00" timeLoss="47.71" rerouteNo="1" devices="tripinfo_84611_390_0 routing_84611_390_0" vType="pkw" speedFactor="0.97" vaporized=""/>
    <tripinfo id="148207_417_0" depart="25320.00" departLane="-186623965#18_0" departPos="4.40" departSpeed="0.00" departDelay="0.00" arrival="25388.00" arrivalLane="42925825#0_0" arrivalPos="254.17" arrivalSpeed="14.62" duration="68.00" routeLength="625.62" waitingTime="9.00" waitingCount="2" stopTime="0.00" timeLoss="26.04" rerouteNo="1" devices="tripinfo_148207_417_0 routing_148207_417_0" vType="pkw" speedFactor="1.07" vaporized=""/>
    <tripinfo id="108769_400_0" depart="25356.00" departLane="-186623965#18_0" departPos="4.40" departSpeed="0.00" departDelay="0.00" arrival="25388.00" arrivalLane="-22917421#4_0" arrivalPos="96.26" arrivalSpeed="7.31" duration="32.00" routeLength="263.02" waitingTime="0.00" waitingCount="0" stopTime="0.00" timeLoss="4.48" rerouteNo="0" devices="tripinfo_108769_400_0 routing_108769_400_0" vType="pkw" speedFactor="0.89" vaporized=""/>
    <tripinfo id="163043_422_0" depart="25214.00" departLane="-28675510#11_0" departPos="4.40" departSpeed="0.00" departDelay="2.00" arrival="25389.00" arrivalLane="8716827#0_0" arrivalPos="109.12" arrivalSpeed="7.63" duration="175.00" routeLength="1154.53" waitingTime="65.00" waitingCount="3" stopTime="0.00" timeLoss="92.01" rerouteNo="1" devices="tripinfo_163043_422_0 routing_163043_422_0" vType="pkw" speedFactor="1.07" vaporized=""/>
    <tripinfo id="158885_421_0" depart="25220.00" departLane="22917421#3_0" departPos="4.40" departSpeed="0.00" departDelay="0.00" arrival="25389.00" arrivalLane="28675510#7_0" arrivalPos="257.94" arrivalSpeed="8.48" duration="169.00" routeLength="937.03" waitingTime="7.00" waitingCount="1" stopTime="0.00" timeLoss="27.59" rerouteNo="1" devices="tripinfo_158885_421_0 routing_158885_421_0" vType="pkw" speedFactor="0.70" vaporized=""/>
    <tripinfo id="120970_405_0" depart="25343.00" departLane="-23283579#1_0" departPos="4.40" departSpeed="0.00" departDelay="0.00" arrival="25394.00" arrivalLane="23283470#5_0" arrivalPos="89.27" arrivalSpeed="7.67" duration="51.00" routeLength="393.04" waitingTime="0.00" waitingCount="0" stopTime="0.00" timeLoss="11.00" rerouteNo="1" devices="tripinfo_120970_405_0 routing_120970_405_0" vType="pkw" speedFactor="1.07" vaporized=""/>
    <tripinfo id="175709_428_0" depart="25324.00" departLane="-186623965#18_0" departPos="4.40" departSpeed="0.00" departDelay="0.00" arrival="25398.00" arrivalLane="-186623965#14_0" arrivalPos="159.69" arrivalSpeed="13.90" duration="74.00" routeLength="528.65" waitingTime="14.00" waitingCount="3" stopTime="0.00" timeLoss="38.41" rerouteNo="1" devices="tripinfo_175709_428_0 routing_175709_428_0" vType="pkw" speedFactor="1.08" vaporized=""/>
    <tripinfo id="139269_413_0" depart="25307.00" departLane="-23283579#1_0" departPos="4.40" departSpeed="0.00" departDelay="0.00" arrival="25400.00" arrivalLane="-297047308_0" arrivalPos="28.52" arrivalSpeed="14.36" duration="93.00" routeLength="517.28" waitingTime="24.00" waitingCount="2" stopTime="0.00" timeLoss="42.40" rerouteNo="1" devices="tripinfo_139269_413_0 routing_139269_413_0" vType="pkw" speedFactor="1.11" vaporized=""/>
    <tripinfo id="137686_412_0" depart="25330.00" departLane="-186623965#18_0" departPos="4.40" departSpeed="0.00" departDelay="0.00" arrival="25401.00" arrivalLane="42925825#0_0" arrivalPos="254.17" arrivalSpeed="14.94" duration="71.00" routeLength="625.62" waitingTime="9.00" waitingCount="2" stopTime="0.00" timeLoss="28.35" rerouteNo="1" devices="tripinfo_137686_412_0 routing_137686_412_0" vType="pkw" speedFactor="1.08" vaporized=""/>
    <tripinfo id="163025_422_0" depart="25246.00" departLane="-28675510#11_0" departPos="4.40" departSpeed="0.00" departDelay="0.00" arrival="25402.00" arrivalLane="8716807#1_0" arrivalPos="110.75" arrivalSpeed="9.34" duration="156.00" routeLength="862.02" waitingTime="51.00" waitingCount="3" stopTime="0.00" timeLoss="93.33" rerouteNo="1" devices="tripinfo_163025_422_0 routing_163025_422_0" vType="pkw" speedFactor="1.18" vaporized=""/>
    <tripinfo id="96268_394_0" depart="25369.00" departLane="-186623965#18_0" departPos="4.40" departSpeed="0.00" departDelay="0.00" arrival="25404.00" arrivalLane="-22917421#4_0" arrivalPos="96.26" arrivalSpeed="9.75" duration="35.00" routeLength="263.02" waitingTime="4.00" waitingCount="1" stopTime="0.00" timeLoss="14.68" rerouteNo="0" devices="tripinfo_96268_394_0 routing_96268_394_0" vType="pkw" speedFactor="1.20" vaporized=""/>
    <tripinfo id="146391_416_0" depart="25313.00" departLane="-28675510#0_0" departPos="4.40" departSpeed="0.00" departDelay="0.00" arrival="25408.00" arrivalLane="28675510#7_0" arrivalPos="257.94" arrivalSpeed="12.23" duration="95.00" routeLength="752.27" waitingTime="25.00" waitingCount="1" stopTime="0.00" timeLoss="37.19" rerouteNo="1" devices="tripinfo_146391_416_0 routing_146391_416_0" vType="pkw" speedFactor="0.95" vaporized=""/>
    <tripinfo id="162890_422_0" depart="25265.00" departLane="8716807#1_0" departPos="4.40" departSpeed="0.00" departDelay="1.00" arrival="25409.00" arrivalLane="28675510#7_0" arrivalPos="257.94" arrivalSpeed="13.83" duration="144.00" routeLength="973.61" waitingTime="44.00" waitingCount="2" stopTime="0.00" timeLoss="61.73" rerouteNo="1" devices="tripinfo_162890_422_0 routing_162890_422_0" vType="pkw" speedFactor="1.05" vaporized=""/>