<?xml version="1.0" encoding="UTF-8"?>

<!-- generated on 2023-08-30 11:18:42 by Eclipse SUMO libsumo Version 1.18.0
<configuration xmlns:xsi="http://www.w3.org/2001/XMLSchema-instance" xsi:noNamespaceSchemaLocation="http://sumo.dlr.de/xsd/libsumoConfiguration.xsd">

    <input>
        <net-file value="/home/stefan/RESCO/./environments/cologne8/cologne8.net.xml"/>
        <route-files value="/home/stefan/RESCO/./environments/cologne8/cologne8.rou.xml"/>
    </input>

    <output>
        <tripinfo-output value="/home/stefan/results/ITRPO-tr0-cologne8-0-drq_norm-wait_norm/tripinfo_84.xml"/>
        <tripinfo-output.write-unfinished value="true"/>
    </output>

    <time>
        <begin value="25200"/>
        <end value="28800"/>
    </time>

    <processing>
        <time-to-teleport value="-1"/>
    </processing>

    <report>
        <no-warnings value="True"/>
        <no-step-log value="True"/>
    </report>

    <random_number>
        <random value="true"/>
    </random_number>

</configuration>
-->

<tripinfos xmlns:xsi="http://www.w3.org/2001/XMLSchema-instance" xsi:noNamespaceSchemaLocation="http://sumo.dlr.de/xsd/tripinfo_file.xsd">
    <tripinfo id="142890_415_0" depart="25218.00" departLane="-23283579#1_0" departPos="4.40" departSpeed="0.00" departDelay="0.00" arrival="25225.00" arrivalLane="23283579#1_0" arrivalPos="22.22" arrivalSpeed="13.60" duration="7.00" routeLength="44.72" waitingTime="0.00" waitingCount="0" stopTime="0.00" timeLoss="3.76" rerouteNo="0" devices="tripinfo_142890_415_0 routing_142890_415_0" vType="pkw" speedFactor="1.12" vaporized=""/>
    <tripinfo id="155570_420_0" depart="25200.00" departLane="-28675510#11_0" departPos="4.40" departSpeed="0.00" departDelay="0.00" arrival="25244.00" arrivalLane="28675510#7_0" arrivalPos="257.94" arrivalSpeed="12.49" duration="44.00" routeLength="516.12" waitingTime="0.00" waitingCount="0" stopTime="0.00" timeLoss="4.48" rerouteNo="0" devices="tripinfo_155570_420_0 routing_155570_420_0" vType="pkw" speedFactor="0.95" vaporized=""/>
    <tripinfo id="137959_412_0" depart="25209.00" departLane="-186623965#18_0" departPos="4.40" departSpeed="0.00" departDelay="0.00" arrival="25244.00" arrivalLane="-22917421#4_0" arrivalPos="96.26" arrivalSpeed="6.29" duration="35.00" routeLength="263.02" waitingTime="0.00" waitingCount="0" stopTime="0.00" timeLoss="5.30" rerouteNo="0" devices="tripinfo_137959_412_0 routing_137959_412_0" vType="pkw" speedFactor="0.83" vaporized=""/>
    <tripinfo id="134603_411_0" depart="25206.00" departLane="-28675510#11_0" departPos="4.40" departSpeed="0.00" departDelay="0.00" arrival="25246.00" arrivalLane="28675510#7_0" arrivalPos="257.94" arrivalSpeed="13.89" duration="40.00" routeLength="516.12" waitingTime="0.00" waitingCount="0" stopTime="0.00" timeLoss="5.01" rerouteNo="0" devices="tripinfo_134603_411_0 routing_134603_411_0" vType="pkw" speedFactor="1.08" vaporized=""/>
    <tripinfo id="137312_412_0" depart="25200.00" departLane="-23283579#1_0" departPos="4.40" departSpeed="0.00" departDelay="0.00" arrival="25258.00" arrivalLane="23283436_0" arrivalPos="65.76" arrivalSpeed="14.04" duration="58.00" routeLength="404.67" waitingTime="20.00" waitingCount="1" stopTime="0.00" timeLoss="28.88" rerouteNo="1" devices="tripinfo_137312_412_0 routing_137312_412_0" vType="pkw" speedFactor="1.02" vaporized=""/>
    <tripinfo id="140143_414_0" depart="25212.00" departLane="-28675510#11_0" departPos="4.40" departSpeed="0.00" departDelay="2.00" arrival="25260.00" arrivalLane="28675510#7_0" arrivalPos="257.94" arrivalSpeed="12.46" duration="48.00" routeLength="516.12" waitingTime="0.00" waitingCount="0" stopTime="0.00" timeLoss="6.80" rerouteNo="0" devices="tripinfo_140143_414_0 routing_140143_414_0" vType="pkw" speedFactor="0.90" vaporized=""/>
    <tripinfo id="161942_421_0" depart="25233.00" departLane="-42925825#2_0" departPos="4.40" departSpeed="0.00" departDelay="0.00" arrival="25271.00" arrivalLane="42925825#0_0" arrivalPos="254.17" arrivalSpeed="14.25" duration="38.00" routeLength="508.64" waitingTime="0.00" waitingCount="0" stopTime="0.00" timeLoss="4.49" rerouteNo="0" devices="tripinfo_161942_421_0 routing_161942_421_0" vType="pkw" speedFactor="1.10" vaporized=""/>
    <tripinfo id="135663_411_0" depart="25217.00" departLane="-28675510#11_0" departPos="4.40" departSpeed="0.00" departDelay="3.00" arrival="25274.00" arrivalLane="28675510#7_0" arrivalPos="257.94" arrivalSpeed="14.08" duration="57.00" routeLength="516.12" waitingTime="9.00" waitingCount="1" stopTime="0.00" timeLoss="20.75" rerouteNo="0" devices="tripinfo_135663_411_0 routing_135663_411_0" vType="pkw" speedFactor="1.03" vaporized=""/>
    <tripinfo id="114597_403_0" depart="25201.00" departLane="22917421#3_0" departPos="4.40" departSpeed="0.00" departDelay="0.00" arrival="25276.00" arrivalLane="-186623965#14_0" arrivalPos="159.69" arrivalSpeed="16.77" duration="75.00" routeLength="476.78" waitingTime="27.00" waitingCount="2" stopTime="0.00" timeLoss="44.63" rerouteNo="1" devices="tripinfo_114597_403_0 routing_114597_403_0" vType="pkw" speedFactor="1.29" vaporized=""/>
    <tripinfo id="149045_417_0" depart="25220.00" departLane="-28675510#11_0" departPos="4.40" departSpeed="0.00" departDelay="3.00" arrival="25276.00" arrivalLane="28675510#7_0" arrivalPos="257.94" arrivalSpeed="14.99" duration="56.00" routeLength="516.12" waitingTime="9.00" waitingCount="1" stopTime="0.00" timeLoss="23.57" rerouteNo="0" devices="tripinfo_149045_417_0 routing_149045_417_0" vType="pkw" speedFactor="1.16" vaporized=""/>
    <tripinfo id="141355_415_0" depart="25232.00" departLane="-186623965#18_0" departPos="4.40" departSpeed="0.00" departDelay="0.00" arrival="25282.00" arrivalLane="42925825#0_0" arrivalPos="254.17" arrivalSpeed="13.45" duration="50.00" routeLength="625.62" waitingTime="0.00" waitingCount="0" stopTime="0.00" timeLoss="5.47" rerouteNo="1" devices="tripinfo_141355_415_0 routing_141355_415_0" vType="pkw" speedFactor="1.03" vaporized=""/>
    <tripinfo id="119181_405_0" depart="25226.00" departLane="186623965#9_0" departPos="4.40" departSpeed="0.00" departDelay="0.00" arrival="25288.00" arrivalLane="42925825#0_0" arrivalPos="254.17" arrivalSpeed="11.72" duration="62.00" routeLength="418.48" waitingTime="20.00" waitingCount="1" stopTime="0.00" timeLoss="29.46" rerouteNo="0" devices="tripinfo_119181_405_0 routing_119181_405_0" vType="pkw" speedFactor="0.93" vaporized=""/>
    <tripinfo id="133416_410_0" depart="25228.00" departLane="186623965#9_0" departPos="4.40" departSpeed="0.00" departDelay="0.00" arrival="25290.00" arrivalLane="42925825#0_0" arrivalPos="254.17" arrivalSpeed="12.28" duration="62.00" routeLength="418.48" waitingTime="20.00" waitingCount="2" stopTime="0.00" timeLoss="30.52" rerouteNo="0" devices="tripinfo_133416_410_0 routing_133416_410_0" vType="pkw" speedFactor="0.97" vaporized=""/>
    <tripinfo id="138070_412_0" depart="25229.00" departLane="22917421#3_0" departPos="4.40" departSpeed="0.00" departDelay="0.00" arrival="25290.00" arrivalLane="186623965#17_0" arrivalPos="143.63" arrivalSpeed="10.98" duration="61.00" routeLength="257.42" waitingTime="27.00" waitingCount="1" stopTime="0.00" timeLoss="33.85" rerouteNo="0" devices="tripinfo_138070_412_0 routing_138070_412_0" vType="pkw" speedFactor="0.87" vaporized=""/>
    <tripinfo id="153496_420_0" depart="25232.00" departLane="22917421#3_0" departPos="4.40" departSpeed="0.00" departDelay="0.00" arrival="25292.00" arrivalLane="186623965#17_0" arrivalPos="143.63" arrivalSpeed="12.91" duration="60.00" routeLength="257.42" waitingTime="26.00" waitingCount="1" stopTime="0.00" timeLoss="35.54" rerouteNo="0" devices="tripinfo_153496_420_0 routing_153496_420_0" vType="pkw" speedFactor="0.98" vaporized=""/>
    <tripinfo id="131071_409_0" depart="25236.00" departLane="-186623965#18_0" departPos="4.40" departSpeed="0.00" departDelay="0.00" arrival="25293.00" arrivalLane="42925825#0_0" arrivalPos="254.17" arrivalSpeed="13.38" duration="57.00" routeLength="625.62" waitingTime="0.00" waitingCount="0" stopTime="0.00" timeLoss="9.82" rerouteNo="1" devices="tripinfo_131071_409_0 routing_131071_409_0" vType="pkw" speedFactor="0.97" vaporized=""/>
    <tripinfo id="155353_420_0" depart="25235.00" departLane="22917421#3_0" departPos="4.40" departSpeed="0.00" departDelay="1.00" arrival="25294.00" arrivalLane="186623965#17_0" arrivalPos="143.63" arrivalSpeed="10.32" duration="59.00" routeLength="257.42" waitingTime="24.00" waitingCount="1" stopTime="0.00" timeLoss="30.97" rerouteNo="0" devices="tripinfo_155353_420_0 routing_155353_420_0" vType="pkw" speedFactor="0.83" vaporized=""/>
    <tripinfo id="111571_401_0" depart="25267.00" departLane="-353069169#0_0" departPos="4.40" departSpeed="0.00" departDelay="0.00" arrival="25294.00" arrivalLane="24487264_0" arrivalPos="166.35" arrivalSpeed="13.56" duration="27.00" routeLength="286.19" waitingTime="0.00" waitingCount="0" stopTime="0.00" timeLoss="5.18" rerouteNo="1" devices="tripinfo_111571_401_0 routing_111571_401_0" vType="pkw" speedFactor="1.01" vaporized=""/>
    <tripinfo id="76230_386_0" depart="25204.00" departLane="-23283579#1_0" departPos="4.40" departSpeed="0.00" departDelay="0.00" arrival="25301.00" arrivalLane="297047309#0_0" arrivalPos="91.17" arrivalSpeed="12.30" duration="97.00" routeLength="656.20" waitingTime="18.00" waitingCount="1" stopTime="0.00" timeLoss="29.35" rerouteNo="1" devices="tripinfo_76230_386_0 routing_76230_386_0" vType="pkw" speedFactor="0.97" vaporized=""/>
    <tripinfo id="110248_401_0" depart="25206.00" departLane="-23283579#1_0" departPos="4.40" departSpeed="0.00" departDelay="0.00" arrival="25302.00" arrivalLane="297047309#0_0" arrivalPos="91.17" arrivalSpeed="14.25" duration="96.00" routeLength="656.20" waitingTime="15.00" waitingCount="1" stopTime="0.00" timeLoss="34.24" rerouteNo="1" devices="tripinfo_110248_401_0 routing_110248_401_0" vType="pkw" speedFactor="1.06" vaporized=""/>
    <tripinfo id="127809_407_0" depart="25257.00" departLane="-23283579#1_0" departPos="4.40" departSpeed="0.00" departDelay="0.00" arrival="25306.00" arrivalLane="23285888#0_0" arrivalPos="109.58" arrivalSpeed="8.08" duration="49.00" routeLength="410.95" waitingTime="0.00" waitingCount="0" stopTime="0.00" timeLoss="6.58" rerouteNo="1" devices="tripinfo_127809_407_0 routing_127809_407_0" vType="pkw" speedFactor="1.07" vaporized=""/>
    <tripinfo id="118788_405_0" depart="25247.00" departLane="22917421#3_0" departPos="4.40" departSpeed="0.00" departDelay="0.00" arrival="25310.00" arrivalLane="186623965#17_0" arrivalPos="143.63" arrivalSpeed="10.99" duration="63.00" routeLength="257.42" waitingTime="22.00" waitingCount="2" stopTime="0.00" timeLoss="34.98" rerouteNo="0" devices="tripinfo_118788_405_0 routing_118788_405_0" vType="pkw" speedFactor="0.85" vaporized=""/>
    <tripinfo id="150593_418_0" depart="25297.00" departLane="22959552#0_0" departPos="4.40" departSpeed="0.00" departDelay="0.00" arrival="25310.00" arrivalLane="22959552#0_0" arrivalPos="91.39" arrivalSpeed="8.65" duration="13.00" routeLength="86.99" waitingTime="0.00" waitingCount="0" stopTime="0.00" timeLoss="2.71" rerouteNo="1" devices="tripinfo_150593_418_0 routing_150593_418_0" vType="pkw" speedFactor="1.08" vaporized=""/>
    <tripinfo id="144617_416_0" depart="25256.00" departLane="22917421#3_0" departPos="4.40" departSpeed="0.00" departDelay="0.00" arrival="25312.00" arrivalLane="186623965#17_0" arrivalPos="143.63" arrivalSpeed="12.11" duration="56.00" routeLength="257.42" waitingTime="15.00" waitingCount="2" stopTime="0.00" timeLoss="28.43" rerouteNo="0" devices="tripinfo_144617_416_0 routing_144617_416_0" vType="pkw" speedFactor="0.87" vaporized=""/>
    <tripinfo id="162497_421_0" depart="25273.00" departLane="22917421#3_0" departPos="4.40" departSpeed="0.00" departDelay="0.00" arrival="25313.00" arrivalLane="186623965#17_0" arrivalPos="143.63" arrivalSpeed="13.25" duration="40.00" routeLength="257.42" waitingTime="4.00" waitingCount="1" stopTime="0.00" timeLoss="16.06" rerouteNo="0" devices="tripinfo_162497_421_0 routing_162497_421_0" vType="pkw" speedFactor="0.98" vaporized=""/>
    <tripinfo id="121484_406_0" depart="25268.00" departLane="-23283579#1_0" departPos="4.40" departSpeed="0.00" departDelay="0.00" arrival="25316.00" arrivalLane="133081987#3_0" arrivalPos="99.94" arrivalSpeed="13.46" duration="48.00" routeLength="434.85" waitingTime="2.00" waitingCount="1" stopTime="0.00" timeLoss="15.31" rerouteNo="1" devices="tripinfo_121484_406_0 routing_121484_406_0" vType="pkw" speedFactor="0.98" vaporized=""/>
    <tripinfo id="163043_422_0" depart="25214.00" departLane="-28675510#11_0" departPos="4.40" departSpeed="0.00" departDelay="2.00" arrival="25320.00" arrivalLane="8716827#0_0" arrivalPos="109.12" arrivalSpeed="8.31" duration="106.00" routeLength="1154.53" waitingTime="4.00" waitingCount="1" stopTime="0.00" timeLoss="24.07" rerouteNo="1" devices="tripinfo_163043_422_0 routing_163043_422_0" vType="pkw" speedFactor="1.09" vaporized=""/>
    <tripinfo id="140525_414_0" depart="25221.00" departLane="186623965#9_0" departPos="4.40" departSpeed="0.00" departDelay="0.00" arrival="25328.00" arrivalLane="186623965#17_0" arrivalPos="143.63" arrivalSpeed="12.57" duration="107.00" routeLength="527.61" waitingTime="53.00" waitingCount="2" stopTime="0.00" timeLoss="67.65" rerouteNo="1" devices="tripinfo_140525_414_0 routing_140525_414_0" vType="pkw" speedFactor="0.97" vaporized=""/>
    <tripinfo id="91556_392_0" depart="25271.00" departLane="-23283579#1_0" departPos="4.40" departSpeed="0.00" departDelay="1.00" arrival="25328.00" arrivalLane="23840972_0" arrivalPos="97.66" arrivalSpeed="8.76" duration="57.00" routeLength="525.30" waitingTime="0.00" waitingCount="0" stopTime="0.00" timeLoss="16.77" rerouteNo="1" devices="tripinfo_91556_392_0 routing_91556_392_0" vType="pkw" speedFactor="1.15" vaporized=""/>
    <tripinfo id="126900_407_0" depart="25239.00" departLane="-186623965#18_0" departPos="4.40" departSpeed="0.00" departDelay="0.00" arrival="25334.00" arrivalLane="42925825#0_0" arrivalPos="254.17" arrivalSpeed="11.56" duration="95.00" routeLength="625.62" waitingTime="34.00" waitingCount="1" stopTime="0.00" timeLoss="45.01" rerouteNo="1" devices="tripinfo_126900_407_0 routing_126900_407_0" vType="pkw" speedFactor="0.91" vaporized=""/>
    <tripinfo id="126698_407_0" depart="25241.00" departLane="-186623965#18_0" departPos="4.40" departSpeed="0.00" departDelay="0.00" arrival="25336.00" arrivalLane="42925825#0_0" arrivalPos="254.17" arrivalSpeed="13.06" duration="95.00" routeLength="625.62" waitingTime="34.00" waitingCount="1" stopTime="0.00" timeLoss="48.05" rerouteNo="1" devices="tripinfo_126698_407_0 routing_126698_407_0" vType="pkw" speedFactor="0.97" vaporized=""/>
    <tripinfo id="163799_422_0" depart="25256.00" departLane="-186623965#18_0" departPos="4.40" departSpeed="0.00" departDelay="1.00" arrival="25336.00" arrivalLane="-22917421#4_0" arrivalPos="96.26" arrivalSpeed="7.69" duration="80.00" routeLength="263.02" waitingTime="41.00" waitingCount="1" stopTime="0.00" timeLoss="53.72" rerouteNo="0" devices="tripinfo_163799_422_0 routing_163799_422_0" vType="pkw" speedFactor="0.95" vaporized=""/>
    <tripinfo id="158885_421_0" depart="25220.00" departLane="22917421#3_0" departPos="4.40" departSpeed="0.00" departDelay="0.00" arrival="25342.00" arrivalLane="28675510#7_0" arrivalPos="257.94" arrivalSpeed="12.28" duration="122.00" routeLength="937.03" waitingTime="1.00" waitingCount="1" stopTime="0.00" timeLoss="16.57" rerouteNo="1" devices="tripinfo_158885_421_0 routing_158885_421_0" vType="pkw" speedFactor="0.94" vaporized=""/>
    <tripinfo id="171184_426_0" depart="25326.00" departLane="133081987#0_0" departPos="4.40" departSpeed="0.00" departDelay="0.00" arrival="25343.00" arrivalLane="23283436_0" arrivalPos="65.76" arrivalSpeed="13.24" duration="17.00" routeLength="154.99" waitingTime="0.00" waitingCount="0" stopTime="0.00" timeLoss="5.63" rerouteNo="0" devices="tripinfo_171184_426_0 routing_171184_426_0" vType="pkw" speedFactor="1.01" vaporized=""/>
    <tripinfo id="113370_402_0" depart="25249.00" departLane="186623965#9_0" departPos="4.40" departSpeed="0.00" departDelay="0.00" arrival="25344.00" arrivalLane="42925825#0_0" arrivalPos="254.17" arrivalSpeed="14.07" duration="95.00" routeLength="418.48" waitingTime="49.00" waitingCount="1" stopTime="0.00" timeLoss="66.09" rerouteNo="0" devices="tripinfo_113370_402_0 routing_113370_402_0" vType="pkw" speedFactor="1.06" vaporized=""/>
    <tripinfo id="145282_416_0" depart="25259.00" departLane="186623965#9_0" departPos="4.40" departSpeed="0.00" departDelay="0.00" arrival="25346.00" arrivalLane="42925825#0_0" arrivalPos="254.17" arrivalSpeed="13.70" duration="87.00" routeLength="418.48" waitingTime="46.00" waitingCount="1" stopTime="0.00" timeLoss="58.72" rerouteNo="0" devices="tripinfo_145282_416_0 routing_145282_416_0" vType="pkw" speedFactor="1.07" vaporized=""/>
    <tripinfo id="145512_416_0" depart="25308.00" departLane="22917421#3_0" departPos="4.40" departSpeed="0.00" departDelay="0.00" arrival="25347.00" arrivalLane="186623965#17_0" arrivalPos="143.63" arrivalSpeed="15.48" duration="39.00" routeLength="257.42" waitingTime="10.00" waitingCount="1" stopTime="0.00" timeLoss="18.33" rerouteNo="0" devices="tripinfo_145512_416_0 routing_145512_416_0" vType="pkw" speedFactor="1.17" vaporized=""/>
    <tripinfo id="129175_408_0" depart="25255.00" departLane="-23283579#1_0" departPos="4.40" departSpeed="0.00" departDelay="0.00" arrival="25355.00" arrivalLane="323450710#0_0" arrivalPos="95.59" arrivalSpeed="14.97" duration="100.00" routeLength="843.12" waitingTime="9.00" waitingCount="1" stopTime="0.00" timeLoss="28.05" rerouteNo="1" devices="tripinfo_129175_408_0 routing_129175_408_0" vType="pkw" speedFactor="1.11" vaporized=""/>
    <tripinfo id="161216_421_0" depart="25251.00" departLane="-186623965#18_0" departPos="4.40" departSpeed="0.00" departDelay="3.00" arrival="25356.00" arrivalLane="42925825#0_0" arrivalPos="254.17" arrivalSpeed="11.51" duration="105.00" routeLength="625.62" waitingTime="45.00" waitingCount="1" stopTime="0.00" timeLoss="54.63" rerouteNo="1" devices="tripinfo_161216_421_0 routing_161216_421_0" vType="pkw" speedFactor="0.90" vaporized=""/>
    <tripinfo id="147744_416_0" depart="25272.00" departLane="-186623965#18_0" departPos="4.40" departSpeed="0.00" departDelay="0.00" arrival="25357.00" arrivalLane="42925825#0_0" arrivalPos="254.17" arrivalSpeed="12.42" duration="85.00" routeLength="625.62" waitingTime="22.00" waitingCount="2" stopTime="0.00" timeLoss="39.23" rerouteNo="1" devices="tripinfo_147744_416_0 routing_147744_416_0" vType="pkw" speedFactor="0.98" vaporized=""/>
    <tripinfo id="134428_411_0" depart="25237.00" departLane="-28675510#11_0" departPos="4.40" departSpeed="0.00" departDelay="0.00" arrival="25359.00" arrivalLane="28675510#7_0" arrivalPos="257.94" arrivalSpeed="15.06" duration="122.00" routeLength="516.12" waitingTime="67.00" waitingCount="2" stopTime="0.00" timeLoss="89.21" rerouteNo="0" devices="tripinfo_134428_411_0 routing_134428_411_0" vType="pkw" speedFactor="1.16" vaporized=""/>
    <tripinfo id="159622_421_0" depart="25254.00" departLane="-186623965#18_0" departPos="4.40" departSpeed="0.00" departDelay="3.00" arrival="25359.00" arrivalLane="42925825#0_0" arrivalPos="254.17" arrivalSpeed="14.03" duration="105.00" routeLength="625.62" waitingTime="43.00" waitingCount="1" stopTime="0.00" timeLoss="62.74" rerouteNo="1" devices="tripinfo_159622_421_0 routing_159622_421_0" vType="pkw" speedFactor="1.08" vaporized=""/>
    <tripinfo id="152801_419_0" depart="25299.00" departLane="-297047307_0" departPos="4.40" departSpeed="0.00" departDelay="0.00" arrival="25361.00" arrivalLane="297047309#0_0" arrivalPos="91.17" arrivalSpeed="13.11" duration="62.00" routeLength="439.92" waitingTime="17.00" waitingCount="1" stopTime="0.00" timeLoss="29.14" rerouteNo="1" devices="tripinfo_152801_419_0 routing_152801_419_0" vType="pkw" speedFactor="0.98" vaporized=""/>
    <tripinfo id="131237_409_0" depart="25228.00" departLane="-186623965#18_0" departPos="4.40" departSpeed="0.00" departDelay="0.00" arrival="25362.00" arrivalLane="297047309#0_0" arrivalPos="91.17" arrivalSpeed="15.56" duration="134.00" routeLength="1417.37" waitingTime="14.00" waitingCount="1" stopTime="0.00" timeLoss="44.58" rerouteNo="1" devices="tripinfo_131237_409_0 routing_131237_409_0" vType="pkw" speedFactor="1.14" vaporized=""/>
    <tripinfo id="84611_390_0" depart="25261.00" departLane="-23283579#1_0" departPos="4.40" departSpeed="0.00" departDelay="0.00" arrival="25367.00" arrivalLane="-23648008#0_0" arrivalPos="75.90" arrivalSpeed="12.60" duration="106.00" routeLength="782.02" waitingTime="12.00" waitingCount="2" stopTime="0.00" timeLoss="30.53" rerouteNo="1" devices="tripinfo_84611_390_0 routing_84611_390_0" vType="pkw" speedFactor="1.00" vaporized=""/>
    <tripinfo id="144017_416_0" depart="25348.00" departLane="-353069169#0_0" departPos="4.40" departSpeed="0.00" departDelay="0.00" arrival="25367.00" arrivalLane="323416262_0" arrivalPos="87.54" arrivalSpeed="13.15" duration="19.00" routeLength="175.35" waitingTime="0.00" waitingCount="0" stopTime="0.00" timeLoss="4.97" rerouteNo="0" devices="tripinfo_144017_416_0 routing_144017_416_0" vType="pkw" speedFactor="0.96" vaporized=""/>
    <tripinfo id="140363_414_0" depart="25313.00" departLane="22917421#3_0" departPos="4.40" departSpeed="0.00" departDelay="0.00" arrival="25368.00" arrivalLane="-186623965#14_1" arrivalPos="159.69" arrivalSpeed="14.28" duration="55.00" routeLength="476.78" waitingTime="8.00" waitingCount="1" stopTime="0.00" timeLoss="19.69" rerouteNo="1" devices="tripinfo_140363_414_0 routing_140363_414_0" vType="pkw" speedFactor="1.11" vaporized=""/>
    <tripinfo id="166162_424_0" depart="25233.00" departLane="22959550#0_0" departPos="4.40" departSpeed="0.00" departDelay="0.00" arrival="25369.00" arrivalLane="28675510#7_0" arrivalPos="257.94" arrivalSpeed="12.62" duration="136.00" routeLength="903.30" waitingTime="31.00" waitingCount="1" stopTime="0.00" timeLoss="44.19" rerouteNo="1" devices="tripinfo_166162_424_0 routing_166162_424_0" vType="pkw" speedFactor="0.93" vaporized=""/>
    <tripinfo id="131243_409_0" depart="25248.00" departLane="-186623965#18_0" departPos="4.40" departSpeed="0.00" departDelay="0.00" arrival="25369.00" arrivalLane="-186623965#14_0" arrivalPos="159.69" arrivalSpeed="13.38" duration="121.00" routeLength="528.65" waitingTime="68.00" waitingCount="2" stopTime="0.00" timeLoss="82.71" rerouteNo="1" devices="tripinfo_131243_409_0 routing_131243_409_0" vType="pkw" speedFactor="1.02" vaporized=""/>
    <tripinfo id="166776_424_0" depart="25209.00" departLane="-28675510#11_0" departPos="4.40" departSpeed="0.00" departDelay="1.00" arrival="25370.00" arrivalLane="-186623965#14_0" arrivalPos="159.69" arrivalSpeed="13.73" duration="161.00" routeLength="1202.17" waitingTime="30.00" waitingCount="1" stopTime="0.00" timeLoss="54.38" rerouteNo="1" devices="tripinfo_166776_424_0 routing_166776_424_0" vType="pkw" speedFactor="1.06" vaporized=""/>
    <tripinfo id="156485_420_0" depart="25205.00" departLane="22959552#0_0" departPos="4.40" departSpeed="0.00" departDelay="0.00" arrival="25371.00" arrivalLane="28675510#7_0" arrivalPos="257.94" arrivalSpeed="11.45" duration="166.00" routeLength="1112.54" waitingTime="34.00" waitingCount="2" stopTime="0.00" timeLoss="53.06" rerouteNo="1" devices="tripinfo_156485_420_0 routing_156485_420_0" vType="pkw" speedFactor="0.92" vaporized=""/>
    <tripinfo id="146152_416_0" depart="25210.00" departLane="25166682#0_0" departPos="4.40" departSpeed="0.00" departDelay="0.00" arrival="25372.00" arrivalLane="28675510#7_0" arrivalPos="257.94" arrivalSpeed="12.30" duration="162.00" routeLength="1219.50" waitingTime="26.00" waitingCount="2" stopTime="0.00" timeLoss="50.68" rerouteNo="1" devices="tripinfo_146152_416_0 routing_146152_416_0" vType="pkw" speedFactor="0.97" vaporized=""/>
    <tripinfo id="146111_416_0" depart="25223.00" departLane="-28675510#11_0" departPos="4.40" departSpeed="0.00" departDelay="2.00" arrival="25372.00" arrivalLane="-186623965#14_1" arrivalPos="159.69" arrivalSpeed="12.51" duration="149.00" routeLength="1202.17" waitingTime="5.00" waitingCount="1" stopTime="0.00" timeLoss="24.60" rerouteNo="1" devices="tripinfo_146111_416_0 routing_146111_416_0" vType="pkw" speedFactor="0.91" vaporized=""/>
    <tripinfo id="117517_404_0" depart="25226.00" departLane="-28675510#11_0" departPos="4.40" departSpeed="0.00" departDelay="2.00" arrival="25374.00" arrivalLane="-186623965#14_0" arrivalPos="159.69" arrivalSpeed="11.61" duration="148.00" routeLength="1202.17" waitingTime="3.00" waitingCount="1" stopTime="0.00" timeLoss="23.75" rerouteNo="1" devices="tripinfo_117517_404_0 routing_117517_404_0" vType="pkw" speedFactor="0.91" vaporized=""/>
    <tripinfo id="158136_421_0" depart="25240.00" departLane="28675510#1_0" departPos="4.40" departSpeed="0.00" departDelay="0.00" arrival="25374.00" arrivalLane="323416262_0" arrivalPos="87.54" arrivalSpeed="14.30" duration="134.00" routeLength="1126.93" waitingTime="13.00" waitingCount="1" stopTime="0.00" timeLoss="36.63" rerouteNo="1" devices="tripinfo_158136_421_0 routing_158136_421_0" vType="pkw" speedFactor="1.07" vaporized=""/>
    <tripinfo id="166783_424_0" depart="25349.00" departLane="22917421#3_0" departPos="4.40" departSpeed="0.00" departDelay="0.00" arrival="25383.00" arrivalLane="186623965#17_0" arrivalPos="143.63" arrivalSpeed="14.41" duration="34.00" routeLength="257.42" waitingTime="5.00" waitingCount="1" stopTime="0.00" timeLoss="11.82" rerouteNo="0" devices="tripinfo_166783_424_0 routing_166783_424_0" vType="pkw" speedFactor="1.05" vaporized=""/>
    <tripinfo id="162890_422_0" depart="25264.00" departLane="8716807#1_0" departPos="4.40" departSpeed="0.00" departDelay="0.00" arrival="25385.00" arrivalLane="28675510#7_0" arrivalPos="257.94" arrivalSpeed="14.97" duration="121.00" routeLength="973.61" waitingTime="25.00" waitingCount="2" stopTime="0.00" timeLoss="45.65" rerouteNo="1" devices="tripinfo_162890_422_0 routing_162890_422_0" vType="pkw" speedFactor="1.15" vaporized=""/>
    <tripinfo id="174787_427_0" depart="25287.00" departLane="22959550#3_0" departPos="4.40" departSpeed="0.00" departDelay="0.00" arrival="25389.00" arrivalLane="28675510#7_0" arrivalPos="257.94" arrivalSpeed="14.04" duration="102.00" routeLength="757.45" waitingTime="15.00" waitingCount="2" stopTime="0.00" timeLoss="35.53" rerouteNo="1" devices="tripinfo_174787_427_0 routing_174787_427_0" vType="pkw" speedFactor="1.01" vaporized=""/>
    <tripinfo id="146391_416_0" depart="25313.00" departLane="-28675510#0_0" departPos="4.40" departSpeed="0.00" departDelay="0.00" arrival="25391.00" arrivalLane="28675510#7_0" arrivalPos="257.94" arrivalSpeed="14.73" duration="78.00" routeLength="752.27" waitingTime="9.00" waitingCount="1" stopTime="0.00" timeLoss="28.81" rerouteNo="1" devices="tripinfo_146391_416_0 routing_146391_416_0" vType="pkw" speedFactor="1.12" vaporized=""/>
    <tripinfo id="120970_405_0" depart="25343.00" departLane="-23283579#1_0" departPos="4.40" departSpeed="0.00" departDelay="0.00" arrival="25391.00" arrivalLane="23283470#5_0" arrivalPos="89.27" arrivalSpeed="8.41" duration="48.00" routeLength="393.04" waitingTime="0.00" waitingCount="0" stopTime="0.00" timeLoss="9.32" rerouteNo="1" devices="tripinfo_120970_405_0 routing_120970_405_0" vType="pkw" speedFactor="1.11" vaporized=""/>
    <tripinfo id="152887_419_0" depart="25229.00" departLane="-28675510#11_0" departPos="4.40" departSpeed="0.00" departDelay="0.00" arrival="25393.00" arrivalLane="8716827#0_0" arrivalPos="109.12" arrivalSpeed="8.25" duration="164.00" routeLength="1154.53" waitingTime="48.00" waitingCount="3" stopTime="0.00" timeLoss="76.36" rerouteNo="1" devices="tripinfo_152887_419_0 routing_152887_419_0" vType="pkw" speedFactor="1.02" vaporized=""/>
    <tripinfo id="124742_406_0" depart="25237.00" departLane="22917421#3_0" departPos="4.40" departSpeed="0.00" departDelay="1.00" arrival="25403.00" arrivalLane="28675493_0" arrivalPos="90.85" arrivalSpeed="13.86" duration="166.00" routeLength="1141.94" waitingTime="51.00" waitingCount="5" stopTime="0.00" timeLoss="80.32" rerouteNo="1" devices="tripinfo_124742_406_0 routing_124742_406_0" vType="pkw" speedFactor="1.02" vaporized=""/>
    <tripinfo id="138793_413_0" depart="25264.00" departLane="-297047309#0_0" departPos="4.40" departSpeed="0.00" departDelay="0.00" arrival="25403.00" arrivalLane="28675510#7_0" arrivalPos="257.94" arrivalSpeed="13.23" duration="139.00" routeLength="1192.12" waitingTime="18.00" waitingCount="2" stopTime="0.00" timeLoss="36.66" rerouteNo="1" devices="tripinfo_138793_413_0 routing_138793_413_0" vType="pkw" speedFactor="1.02" vaporized=""/>
    <tripinfo id="174717_427_0" depart="25373.00" departLane="22917421#3_0" departPos="4.40" departSpeed="0.00" departDelay="0.00" arrival="25404.00" arrivalLane="186623965#17_0" arrivalPos="143.63" arrivalSpeed="13.23" duration="31.00" routeLength="257.42" waitingTime="0.00" waitingCount="0" stopTime="0.00" timeLoss="6.85" rerouteNo="0" devices="tripinfo_174717_427_0 routing_174717_427_0" vType="pkw" speedFactor="0.98" vaporized=""/>
    <tripinfo id="173747_427_0" depart="25256.00" departLane="23283580#0_0" departPos="4.40" departSpeed="0.00" departDelay="0.00" arrival="25405.00" arrivalLane="28675510#7_0" arrivalPos="257.94" arrivalSpeed="13.95" duration="149.00" routeLength="1071.99" waitingTime="0.00" waitingCount="0" stopTime="0.00" timeLoss="30.69" rerouteNo="1" devices="tripinfo_173747_427_0 routing_173747_427_0" vType="pkw" speedFactor="1.09" vaporized=""/>