<?xml version="1.0" encoding="UTF-8"?>

<!-- generated on 2023-08-30 11:11:25 by Eclipse SUMO libsumo Version 1.18.0
<configuration xmlns:xsi="http://www.w3.org/2001/XMLSchema-instance" xsi:noNamespaceSchemaLocation="http://sumo.dlr.de/xsd/libsumoConfiguration.xsd">

    <input>
        <net-file value="/home/stefan/RESCO/./environments/cologne8/cologne8.net.xml"/>
        <route-files value="/home/stefan/RESCO/./environments/cologne8/cologne8.rou.xml"/>
    </input>

    <output>
        <tripinfo-output value="/home/stefan/results/ITRPO-tr0-cologne8-0-drq_norm-wait_norm/tripinfo_22.xml"/>
        <tripinfo-output.write-unfinished value="true"/>
    </output>

    <time>
        <begin value="25200"/>
        <end value="28800"/>
    </time>

    <processing>
        <time-to-teleport value="-1"/>
    </processing>

    <report>
        <no-warnings value="True"/>
        <no-step-log value="True"/>
    </report>

    <random_number>
        <random value="true"/>
    </random_number>

</configuration>
-->

<tripinfos xmlns:xsi="http://www.w3.org/2001/XMLSchema-instance" xsi:noNamespaceSchemaLocation="http://sumo.dlr.de/xsd/tripinfo_file.xsd">
    <tripinfo id="142890_415_0" depart="25218.00" departLane="-23283579#1_0" departPos="4.40" departSpeed="0.00" departDelay="0.00" arrival="25226.00" arrivalLane="23283579#1_0" arrivalPos="22.22" arrivalSpeed="12.30" duration="8.00" routeLength="44.72" waitingTime="0.00" waitingCount="0" stopTime="0.00" timeLoss="4.25" rerouteNo="0" devices="tripinfo_142890_415_0 routing_142890_415_0" vType="pkw" speedFactor="1.03" vaporized=""/>
    <tripinfo id="137312_412_0" depart="25200.00" departLane="-23283579#1_0" departPos="4.40" departSpeed="0.00" departDelay="0.00" arrival="25235.00" arrivalLane="23283436_0" arrivalPos="65.76" arrivalSpeed="12.74" duration="35.00" routeLength="404.67" waitingTime="0.00" waitingCount="0" stopTime="0.00" timeLoss="4.70" rerouteNo="1" devices="tripinfo_137312_412_0 routing_137312_412_0" vType="pkw" speedFactor="0.96" vaporized=""/>
    <tripinfo id="137959_412_0" depart="25209.00" departLane="-186623965#18_0" departPos="4.40" departSpeed="0.00" departDelay="0.00" arrival="25250.00" arrivalLane="-22917421#4_0" arrivalPos="96.26" arrivalSpeed="7.67" duration="41.00" routeLength="263.02" waitingTime="7.00" waitingCount="1" stopTime="0.00" timeLoss="15.31" rerouteNo="0" devices="tripinfo_137959_412_0 routing_137959_412_0" vType="pkw" speedFactor="0.97" vaporized=""/>
    <tripinfo id="155570_420_0" depart="25200.00" departLane="-28675510#11_0" departPos="4.40" departSpeed="0.00" departDelay="0.00" arrival="25255.00" arrivalLane="28675510#7_0" arrivalPos="257.94" arrivalSpeed="13.44" duration="55.00" routeLength="516.12" waitingTime="6.00" waitingCount="1" stopTime="0.00" timeLoss="17.65" rerouteNo="0" devices="tripinfo_155570_420_0 routing_155570_420_0" vType="pkw" speedFactor="1.00" vaporized=""/>
    <tripinfo id="134603_411_0" depart="25206.00" departLane="-28675510#11_0" departPos="4.40" departSpeed="0.00" departDelay="0.00" arrival="25257.00" arrivalLane="28675510#7_0" arrivalPos="257.94" arrivalSpeed="13.56" duration="51.00" routeLength="516.12" waitingTime="2.00" waitingCount="1" stopTime="0.00" timeLoss="13.64" rerouteNo="0" devices="tripinfo_134603_411_0 routing_134603_411_0" vType="pkw" speedFactor="1.01" vaporized=""/>
    <tripinfo id="140143_414_0" depart="25211.00" departLane="-28675510#11_0" departPos="4.40" departSpeed="0.00" departDelay="1.00" arrival="25260.00" arrivalLane="28675510#7_0" arrivalPos="257.94" arrivalSpeed="14.88" duration="49.00" routeLength="516.12" waitingTime="0.00" waitingCount="0" stopTime="0.00" timeLoss="15.69" rerouteNo="0" devices="tripinfo_140143_414_0 routing_140143_414_0" vType="pkw" speedFactor="1.13" vaporized=""/>
    <tripinfo id="138070_412_0" depart="25229.00" departLane="22917421#3_0" departPos="4.40" departSpeed="0.00" departDelay="0.00" arrival="25260.00" arrivalLane="186623965#17_0" arrivalPos="143.63" arrivalSpeed="13.40" duration="31.00" routeLength="257.42" waitingTime="0.00" waitingCount="0" stopTime="0.00" timeLoss="7.41" rerouteNo="0" devices="tripinfo_138070_412_0 routing_138070_412_0" vType="pkw" speedFactor="1.00" vaporized=""/>
    <tripinfo id="153496_420_0" depart="25232.00" departLane="22917421#3_0" departPos="4.40" departSpeed="0.00" departDelay="0.00" arrival="25264.00" arrivalLane="186623965#17_0" arrivalPos="143.63" arrivalSpeed="11.83" duration="32.00" routeLength="257.42" waitingTime="0.00" waitingCount="0" stopTime="0.00" timeLoss="4.82" rerouteNo="0" devices="tripinfo_153496_420_0 routing_153496_420_0" vType="pkw" speedFactor="0.87" vaporized=""/>
    <tripinfo id="135663_411_0" depart="25217.00" departLane="-28675510#11_0" departPos="4.40" departSpeed="0.00" departDelay="3.00" arrival="25265.00" arrivalLane="28675510#7_0" arrivalPos="257.94" arrivalSpeed="13.63" duration="48.00" routeLength="516.12" waitingTime="0.00" waitingCount="0" stopTime="0.00" timeLoss="12.14" rerouteNo="0" devices="tripinfo_135663_411_0 routing_135663_411_0" vType="pkw" speedFactor="1.04" vaporized=""/>
    <tripinfo id="114597_403_0" depart="25201.00" departLane="22917421#3_0" departPos="4.40" departSpeed="0.00" departDelay="0.00" arrival="25269.00" arrivalLane="-186623965#14_0" arrivalPos="159.69" arrivalSpeed="13.24" duration="68.00" routeLength="476.78" waitingTime="12.00" waitingCount="2" stopTime="0.00" timeLoss="27.83" rerouteNo="1" devices="tripinfo_114597_403_0 routing_114597_403_0" vType="pkw" speedFactor="0.98" vaporized=""/>
    <tripinfo id="149045_417_0" depart="25219.00" departLane="-28675510#11_0" departPos="4.40" departSpeed="0.00" departDelay="2.00" arrival="25270.00" arrivalLane="28675510#7_0" arrivalPos="257.94" arrivalSpeed="11.96" duration="51.00" routeLength="516.12" waitingTime="0.00" waitingCount="0" stopTime="0.00" timeLoss="9.51" rerouteNo="0" devices="tripinfo_149045_417_0 routing_149045_417_0" vType="pkw" speedFactor="0.91" vaporized=""/>
    <tripinfo id="155353_420_0" depart="25234.00" departLane="22917421#3_0" departPos="4.40" departSpeed="0.00" departDelay="0.00" arrival="25278.00" arrivalLane="186623965#17_0" arrivalPos="143.63" arrivalSpeed="12.45" duration="44.00" routeLength="257.42" waitingTime="11.00" waitingCount="1" stopTime="0.00" timeLoss="19.62" rerouteNo="0" devices="tripinfo_155353_420_0 routing_155353_420_0" vType="pkw" speedFactor="0.97" vaporized=""/>
    <tripinfo id="119181_405_0" depart="25226.00" departLane="186623965#9_0" departPos="4.40" departSpeed="0.00" departDelay="0.00" arrival="25280.00" arrivalLane="42925825#0_0" arrivalPos="254.17" arrivalSpeed="10.96" duration="54.00" routeLength="418.48" waitingTime="9.00" waitingCount="1" stopTime="0.00" timeLoss="18.05" rerouteNo="0" devices="tripinfo_119181_405_0 routing_119181_405_0" vType="pkw" speedFactor="0.85" vaporized=""/>
    <tripinfo id="133416_410_0" depart="25229.00" departLane="186623965#9_0" departPos="4.40" departSpeed="0.00" departDelay="1.00" arrival="25281.00" arrivalLane="42925825#0_0" arrivalPos="254.17" arrivalSpeed="13.05" duration="52.00" routeLength="418.48" waitingTime="8.00" waitingCount="1" stopTime="0.00" timeLoss="20.74" rerouteNo="0" devices="tripinfo_133416_410_0 routing_133416_410_0" vType="pkw" speedFactor="0.97" vaporized=""/>
    <tripinfo id="161942_421_0" depart="25233.00" departLane="-42925825#2_0" departPos="4.40" departSpeed="0.00" departDelay="0.00" arrival="25284.00" arrivalLane="42925825#0_0" arrivalPos="254.17" arrivalSpeed="14.44" duration="51.00" routeLength="508.64" waitingTime="6.00" waitingCount="1" stopTime="0.00" timeLoss="15.94" rerouteNo="0" devices="tripinfo_161942_421_0 routing_161942_421_0" vType="pkw" speedFactor="1.07" vaporized=""/>
    <tripinfo id="140525_414_0" depart="25221.00" departLane="186623965#9_0" departPos="4.40" departSpeed="0.00" departDelay="0.00" arrival="25288.00" arrivalLane="186623965#17_0" arrivalPos="143.63" arrivalSpeed="12.67" duration="67.00" routeLength="527.61" waitingTime="14.00" waitingCount="1" stopTime="0.00" timeLoss="26.96" rerouteNo="1" devices="tripinfo_140525_414_0 routing_140525_414_0" vType="pkw" speedFactor="0.97" vaporized=""/>
    <tripinfo id="76230_386_0" depart="25204.00" departLane="-23283579#1_0" departPos="4.40" departSpeed="0.00" departDelay="0.00" arrival="25298.00" arrivalLane="297047309#0_0" arrivalPos="91.17" arrivalSpeed="10.96" duration="94.00" routeLength="656.20" waitingTime="2.00" waitingCount="1" stopTime="0.00" timeLoss="15.59" rerouteNo="1" devices="tripinfo_76230_386_0 routing_76230_386_0" vType="pkw" speedFactor="0.84" vaporized=""/>
    <tripinfo id="127809_407_0" depart="25257.00" departLane="-23283579#1_0" departPos="4.40" departSpeed="0.00" departDelay="0.00" arrival="25305.00" arrivalLane="23285888#0_0" arrivalPos="109.58" arrivalSpeed="8.87" duration="48.00" routeLength="410.95" waitingTime="0.00" waitingCount="0" stopTime="0.00" timeLoss="6.52" rerouteNo="1" devices="tripinfo_127809_407_0 routing_127809_407_0" vType="pkw" speedFactor="1.11" vaporized=""/>
    <tripinfo id="111571_401_0" depart="25267.00" departLane="-353069169#0_0" departPos="4.40" departSpeed="0.00" departDelay="0.00" arrival="25305.00" arrivalLane="24487264_0" arrivalPos="166.35" arrivalSpeed="12.34" duration="38.00" routeLength="286.19" waitingTime="5.00" waitingCount="1" stopTime="0.00" timeLoss="14.87" rerouteNo="1" devices="tripinfo_111571_401_0 routing_111571_401_0" vType="pkw" speedFactor="0.93" vaporized=""/>
    <tripinfo id="121484_406_0" depart="25268.00" departLane="-23283579#1_0" departPos="4.40" departSpeed="0.00" departDelay="0.00" arrival="25305.00" arrivalLane="133081987#3_0" arrivalPos="99.94" arrivalSpeed="14.19" duration="37.00" routeLength="434.85" waitingTime="0.00" waitingCount="0" stopTime="0.00" timeLoss="6.88" rerouteNo="1" devices="tripinfo_121484_406_0 routing_121484_406_0" vType="pkw" speedFactor="1.04" vaporized=""/>
    <tripinfo id="110248_401_0" depart="25207.00" departLane="-23283579#1_0" departPos="4.40" departSpeed="0.00" departDelay="1.00" arrival="25306.00" arrivalLane="297047309#0_0" arrivalPos="91.17" arrivalSpeed="11.63" duration="99.00" routeLength="656.20" waitingTime="5.00" waitingCount="1" stopTime="0.00" timeLoss="28.11" rerouteNo="1" devices="tripinfo_110248_401_0 routing_110248_401_0" vType="pkw" speedFactor="0.93" vaporized=""/>
    <tripinfo id="150593_418_0" depart="25297.00" departLane="22959552#0_0" departPos="4.40" departSpeed="0.00" departDelay="0.00" arrival="25310.00" arrivalLane="22959552#0_0" arrivalPos="91.39" arrivalSpeed="7.90" duration="13.00" routeLength="86.99" waitingTime="0.00" waitingCount="0" stopTime="0.00" timeLoss="1.99" rerouteNo="1" devices="tripinfo_150593_418_0 routing_150593_418_0" vType="pkw" speedFactor="1.01" vaporized=""/>
    <tripinfo id="141355_415_0" depart="25232.00" departLane="-186623965#18_0" departPos="4.40" departSpeed="0.00" departDelay="0.00" arrival="25311.00" arrivalLane="42925825#0_0" arrivalPos="254.17" arrivalSpeed="14.78" duration="79.00" routeLength="625.62" waitingTime="25.00" waitingCount="1" stopTime="0.00" timeLoss="37.18" rerouteNo="1" devices="tripinfo_141355_415_0 routing_141355_415_0" vType="pkw" speedFactor="1.08" vaporized=""/>
    <tripinfo id="118788_405_0" depart="25247.00" departLane="22917421#3_0" departPos="4.40" departSpeed="0.00" departDelay="0.00" arrival="25312.00" arrivalLane="186623965#17_0" arrivalPos="143.63" arrivalSpeed="17.26" duration="65.00" routeLength="257.42" waitingTime="30.00" waitingCount="2" stopTime="0.00" timeLoss="46.75" rerouteNo="0" devices="tripinfo_118788_405_0 routing_118788_405_0" vType="pkw" speedFactor="1.28" vaporized=""/>
    <tripinfo id="134428_411_0" depart="25237.00" departLane="-28675510#11_0" departPos="4.40" departSpeed="0.00" departDelay="0.00" arrival="25313.00" arrivalLane="28675510#7_0" arrivalPos="257.94" arrivalSpeed="11.91" duration="76.00" routeLength="516.12" waitingTime="19.00" waitingCount="2" stopTime="0.00" timeLoss="33.54" rerouteNo="0" devices="tripinfo_134428_411_0 routing_134428_411_0" vType="pkw" speedFactor="0.88" vaporized=""/>
    <tripinfo id="131243_409_0" depart="25248.00" departLane="-186623965#18_0" departPos="4.40" departSpeed="0.00" departDelay="0.00" arrival="25318.00" arrivalLane="-186623965#14_1" arrivalPos="159.69" arrivalSpeed="14.69" duration="70.00" routeLength="528.65" waitingTime="16.00" waitingCount="2" stopTime="0.00" timeLoss="34.98" rerouteNo="1" devices="tripinfo_131243_409_0 routing_131243_409_0" vType="pkw" speedFactor="1.11" vaporized=""/>
    <tripinfo id="91556_392_0" depart="25271.00" departLane="-23283579#1_0" departPos="4.40" departSpeed="0.00" departDelay="1.00" arrival="25319.00" arrivalLane="23840972_0" arrivalPos="97.66" arrivalSpeed="8.66" duration="48.00" routeLength="525.30" waitingTime="0.00" waitingCount="0" stopTime="0.00" timeLoss="8.85" rerouteNo="1" devices="tripinfo_91556_392_0 routing_91556_392_0" vType="pkw" speedFactor="1.19" vaporized=""/>
    <tripinfo id="144617_416_0" depart="25256.00" departLane="22917421#3_0" departPos="4.40" departSpeed="0.00" departDelay="0.00" arrival="25323.00" arrivalLane="186623965#17_0" arrivalPos="143.63" arrivalSpeed="13.88" duration="67.00" routeLength="257.42" waitingTime="31.00" waitingCount="2" stopTime="0.00" timeLoss="44.54" rerouteNo="0" devices="tripinfo_144617_416_0 routing_144617_416_0" vType="pkw" speedFactor="1.05" vaporized=""/>
    <tripinfo id="156485_420_0" depart="25205.00" departLane="22959552#0_0" departPos="4.40" departSpeed="0.00" departDelay="0.00" arrival="25325.00" arrivalLane="28675510#7_0" arrivalPos="257.94" arrivalSpeed="13.94" duration="120.00" routeLength="1112.54" waitingTime="10.00" waitingCount="1" stopTime="0.00" timeLoss="24.80" rerouteNo="1" devices="tripinfo_156485_420_0 routing_156485_420_0" vType="pkw" speedFactor="1.08" vaporized=""/>
    <tripinfo id="113370_402_0" depart="25249.00" departLane="186623965#9_0" departPos="4.40" departSpeed="0.00" departDelay="0.00" arrival="25325.00" arrivalLane="42925825#0_0" arrivalPos="254.17" arrivalSpeed="13.40" duration="76.00" routeLength="418.48" waitingTime="35.00" waitingCount="1" stopTime="0.00" timeLoss="45.34" rerouteNo="0" devices="tripinfo_113370_402_0 routing_113370_402_0" vType="pkw" speedFactor="1.00" vaporized=""/>
    <tripinfo id="145282_416_0" depart="25259.00" departLane="186623965#9_0" departPos="4.40" departSpeed="0.00" departDelay="0.00" arrival="25326.00" arrivalLane="42925825#0_0" arrivalPos="254.17" arrivalSpeed="13.77" duration="67.00" routeLength="418.48" waitingTime="27.00" waitingCount="1" stopTime="0.00" timeLoss="38.77" rerouteNo="0" devices="tripinfo_145282_416_0 routing_145282_416_0" vType="pkw" speedFactor="1.07" vaporized=""/>
    <tripinfo id="166162_424_0" depart="25233.00" departLane="22959550#0_0" departPos="4.40" departSpeed="0.00" departDelay="0.00" arrival="25329.00" arrivalLane="28675510#7_0" arrivalPos="257.94" arrivalSpeed="13.66" duration="96.00" routeLength="903.30" waitingTime="0.00" waitingCount="0" stopTime="0.00" timeLoss="9.86" rerouteNo="1" devices="tripinfo_166162_424_0 routing_166162_424_0" vType="pkw" speedFactor="0.99" vaporized=""/>
    <tripinfo id="131071_409_0" depart="25236.00" departLane="-186623965#18_0" departPos="4.40" departSpeed="0.00" departDelay="0.00" arrival="25331.00" arrivalLane="42925825#0_0" arrivalPos="254.17" arrivalSpeed="11.75" duration="95.00" routeLength="625.62" waitingTime="27.00" waitingCount="2" stopTime="0.00" timeLoss="42.98" rerouteNo="1" devices="tripinfo_131071_409_0 routing_131071_409_0" vType="pkw" speedFactor="0.87" vaporized=""/>
    <tripinfo id="126698_407_0" depart="25242.00" departLane="-186623965#18_0" departPos="4.40" departSpeed="0.00" departDelay="1.00" arrival="25332.00" arrivalLane="42925825#0_0" arrivalPos="254.17" arrivalSpeed="14.14" duration="90.00" routeLength="625.62" waitingTime="20.00" waitingCount="3" stopTime="0.00" timeLoss="46.79" rerouteNo="1" devices="tripinfo_126698_407_0 routing_126698_407_0" vType="pkw" speedFactor="1.04" vaporized=""/>
    <tripinfo id="162497_421_0" depart="25273.00" departLane="22917421#3_0" departPos="4.40" departSpeed="0.00" departDelay="0.00" arrival="25336.00" arrivalLane="186623965#17_0" arrivalPos="143.63" arrivalSpeed="10.88" duration="63.00" routeLength="257.42" waitingTime="21.00" waitingCount="3" stopTime="0.00" timeLoss="35.61" rerouteNo="0" devices="tripinfo_162497_421_0 routing_162497_421_0" vType="pkw" speedFactor="0.87" vaporized=""/>
    <tripinfo id="129175_408_0" depart="25255.00" departLane="-23283579#1_0" departPos="4.40" departSpeed="0.00" departDelay="0.00" arrival="25338.00" arrivalLane="323450710#0_0" arrivalPos="95.59" arrivalSpeed="14.49" duration="83.00" routeLength="843.12" waitingTime="0.00" waitingCount="0" stopTime="0.00" timeLoss="7.78" rerouteNo="1" devices="tripinfo_129175_408_0 routing_129175_408_0" vType="pkw" speedFactor="1.06" vaporized=""/>
    <tripinfo id="158885_421_0" depart="25220.00" departLane="22917421#3_0" departPos="4.40" departSpeed="0.00" departDelay="0.00" arrival="25342.00" arrivalLane="28675510#7_0" arrivalPos="257.94" arrivalSpeed="13.63" duration="122.00" routeLength="937.03" waitingTime="13.00" waitingCount="2" stopTime="0.00" timeLoss="29.02" rerouteNo="1" devices="tripinfo_158885_421_0 routing_158885_421_0" vType="pkw" speedFactor="1.07" vaporized=""/>
    <tripinfo id="171184_426_0" depart="25326.00" departLane="133081987#0_0" departPos="4.40" departSpeed="0.00" departDelay="0.00" arrival="25342.00" arrivalLane="23283436_0" arrivalPos="65.76" arrivalSpeed="13.11" duration="16.00" routeLength="154.99" waitingTime="0.00" waitingCount="0" stopTime="0.00" timeLoss="4.10" rerouteNo="0" devices="tripinfo_171184_426_0 routing_171184_426_0" vType="pkw" speedFactor="1.00" vaporized=""/>
    <tripinfo id="145512_416_0" depart="25308.00" departLane="22917421#3_0" departPos="4.40" departSpeed="0.00" departDelay="0.00" arrival="25345.00" arrivalLane="186623965#17_0" arrivalPos="143.63" arrivalSpeed="11.98" duration="37.00" routeLength="257.42" waitingTime="4.00" waitingCount="1" stopTime="0.00" timeLoss="11.74" rerouteNo="0" devices="tripinfo_145512_416_0 routing_145512_416_0" vType="pkw" speedFactor="0.95" vaporized=""/>
    <tripinfo id="163043_422_0" depart="25214.00" departLane="-28675510#11_0" departPos="4.40" departSpeed="0.00" departDelay="2.00" arrival="25350.00" arrivalLane="8716827#0_0" arrivalPos="109.12" arrivalSpeed="7.09" duration="136.00" routeLength="1154.53" waitingTime="15.00" waitingCount="1" stopTime="0.00" timeLoss="32.38" rerouteNo="1" devices="tripinfo_163043_422_0 routing_163043_422_0" vType="pkw" speedFactor="0.86" vaporized=""/>
    <tripinfo id="152887_419_0" depart="25229.00" departLane="-28675510#11_0" departPos="4.40" departSpeed="0.00" departDelay="0.00" arrival="25351.00" arrivalLane="8716827#0_0" arrivalPos="109.12" arrivalSpeed="8.38" duration="122.00" routeLength="1154.53" waitingTime="8.00" waitingCount="1" stopTime="0.00" timeLoss="42.88" rerouteNo="1" devices="tripinfo_152887_419_0 routing_152887_419_0" vType="pkw" speedFactor="1.12" vaporized=""/>
    <tripinfo id="126900_407_0" depart="25239.00" departLane="-186623965#18_0" departPos="4.40" departSpeed="0.00" departDelay="0.00" arrival="25352.00" arrivalLane="42925825#0_0" arrivalPos="254.17" arrivalSpeed="12.41" duration="113.00" routeLength="625.62" waitingTime="39.00" waitingCount="3" stopTime="0.00" timeLoss="66.01" rerouteNo="1" devices="tripinfo_126900_407_0 routing_126900_407_0" vType="pkw" speedFactor="0.96" vaporized=""/>
    <tripinfo id="158136_421_0" depart="25240.00" departLane="28675510#1_0" departPos="4.40" departSpeed="0.00" departDelay="0.00" arrival="25357.00" arrivalLane="323416262_0" arrivalPos="87.54" arrivalSpeed="14.32" duration="117.00" routeLength="1126.93" waitingTime="1.00" waitingCount="1" stopTime="0.00" timeLoss="20.74" rerouteNo="1" devices="tripinfo_158136_421_0 routing_158136_421_0" vType="pkw" speedFactor="1.08" vaporized=""/>
    <tripinfo id="166776_424_0" depart="25208.00" departLane="-28675510#11_0" departPos="4.40" departSpeed="0.00" departDelay="0.00" arrival="25358.00" arrivalLane="-186623965#14_0" arrivalPos="159.69" arrivalSpeed="15.42" duration="150.00" routeLength="1202.17" waitingTime="19.00" waitingCount="3" stopTime="0.00" timeLoss="49.02" rerouteNo="1" devices="tripinfo_166776_424_0 routing_166776_424_0" vType="pkw" speedFactor="1.13" vaporized=""/>
    <tripinfo id="124742_406_0" depart="25238.00" departLane="22917421#3_0" departPos="4.40" departSpeed="0.00" departDelay="2.00" arrival="25364.00" arrivalLane="28675493_0" arrivalPos="90.85" arrivalSpeed="14.58" duration="126.00" routeLength="1141.94" waitingTime="28.00" waitingCount="2" stopTime="0.00" timeLoss="45.84" rerouteNo="1" devices="tripinfo_124742_406_0 routing_124742_406_0" vType="pkw" speedFactor="1.10" vaporized=""/>
    <tripinfo id="163025_422_0" depart="25246.00" departLane="-28675510#11_0" departPos="4.40" departSpeed="0.00" departDelay="0.00" arrival="25365.00" arrivalLane="8716807#1_0" arrivalPos="110.75" arrivalSpeed="7.24" duration="119.00" routeLength="862.02" waitingTime="19.00" waitingCount="2" stopTime="0.00" timeLoss="45.60" rerouteNo="1" devices="tripinfo_163025_422_0 routing_163025_422_0" vType="pkw" speedFactor="1.00" vaporized=""/>
    <tripinfo id="84611_390_0" depart="25261.00" departLane="-23283579#1_0" departPos="4.40" departSpeed="0.00" departDelay="0.00" arrival="25365.00" arrivalLane="-23648008#0_0" arrivalPos="75.90" arrivalSpeed="12.63" duration="104.00" routeLength="782.02" waitingTime="5.00" waitingCount="2" stopTime="0.00" timeLoss="23.89" rerouteNo="1" devices="tripinfo_84611_390_0 routing_84611_390_0" vType="pkw" speedFactor="0.94" vaporized=""/>
    <tripinfo id="144017_416_0" depart="25348.00" departLane="-353069169#0_0" departPos="4.40" departSpeed="0.00" departDelay="0.00" arrival="25366.00" arrivalLane="323416262_0" arrivalPos="87.54" arrivalSpeed="14.89" duration="18.00" routeLength="175.35" waitingTime="0.00" waitingCount="0" stopTime="0.00" timeLoss="6.23" rerouteNo="0" devices="tripinfo_144017_416_0 routing_144017_416_0" vType="pkw" speedFactor="1.13" vaporized=""/>
    <tripinfo id="146152_416_0" depart="25210.00" departLane="25166682#0_0" departPos="4.40" departSpeed="0.00" departDelay="0.00" arrival="25368.00" arrivalLane="28675510#7_0" arrivalPos="257.94" arrivalSpeed="12.49" duration="158.00" routeLength="1219.50" waitingTime="23.00" waitingCount="2" stopTime="0.00" timeLoss="48.88" rerouteNo="1" devices="tripinfo_146152_416_0 routing_146152_416_0" vType="pkw" speedFactor="0.99" vaporized=""/>
    <tripinfo id="174787_427_0" depart="25287.00" departLane="22959550#3_0" departPos="4.40" departSpeed="0.00" departDelay="0.00" arrival="25369.00" arrivalLane="28675510#7_0" arrivalPos="257.94" arrivalSpeed="14.58" duration="82.00" routeLength="757.45" waitingTime="5.00" waitingCount="1" stopTime="0.00" timeLoss="20.77" rerouteNo="1" devices="tripinfo_174787_427_0 routing_174787_427_0" vType="pkw" speedFactor="1.09" vaporized=""/>
    <tripinfo id="142950_415_0" depart="25274.00" departLane="-28675510#11_0" departPos="4.40" departSpeed="0.00" departDelay="0.00" arrival="25376.00" arrivalLane="155723703#0_0" arrivalPos="92.60" arrivalSpeed="13.24" duration="102.00" routeLength="1137.50" waitingTime="3.00" waitingCount="1" stopTime="0.00" timeLoss="17.40" rerouteNo="1" devices="tripinfo_142950_415_0 routing_142950_415_0" vType="pkw" speedFactor="0.97" vaporized=""/>
    <tripinfo id="148039_417_0" depart="25331.00" departLane="-186623965#16_0" departPos="4.40" departSpeed="0.00" departDelay="0.00" arrival="25376.00" arrivalLane="186623965#17_1" arrivalPos="143.63" arrivalSpeed="14.01" duration="45.00" routeLength="545.21" waitingTime="0.00" waitingCount="0" stopTime="0.00" timeLoss="7.06" rerouteNo="1" devices="tripinfo_148039_417_0 routing_148039_417_0" vType="pkw" speedFactor="1.05" vaporized=""/>
    <tripinfo id="138639_413_0" depart="25314.00" departLane="186623965#9_0" departPos="4.40" departSpeed="0.00" departDelay="0.00" arrival="25378.00" arrivalLane="186623965#17_0" arrivalPos="143.63" arrivalSpeed="12.05" duration="64.00" routeLength="527.61" waitingTime="10.00" waitingCount="1" stopTime="0.00" timeLoss="21.09" rerouteNo="1" devices="tripinfo_138639_413_0 routing_138639_413_0" vType="pkw" speedFactor="0.90" vaporized=""/>
    <tripinfo id="122140_406_0" depart="25244.00" departLane="22917421#3_0" departPos="4.40" departSpeed="0.00" departDelay="0.00" arrival="25381.00" arrivalLane="23648008#2_0" arrivalPos="175.60" arrivalSpeed="16.58" duration="137.00" routeLength="1356.05" waitingTime="23.00" waitingCount="2" stopTime="0.00" timeLoss="51.64" rerouteNo="1" devices="tripinfo_122140_406_0 routing_122140_406_0" vType="pkw" speedFactor="1.21" vaporized=""/>
    <tripinfo id="152801_419_0" depart="25299.00" departLane="-297047307_0" departPos="4.40" departSpeed="0.00" departDelay="0.00" arrival="25381.00" arrivalLane="297047309#0_0" arrivalPos="91.17" arrivalSpeed="12.65" duration="82.00" routeLength="439.92" waitingTime="38.00" waitingCount="1" stopTime="0.00" timeLoss="47.26" rerouteNo="1" devices="tripinfo_152801_419_0 routing_152801_419_0" vType="pkw" speedFactor="0.94" vaporized=""/>
    <tripinfo id="163799_422_0" depart="25257.00" departLane="-186623965#18_0" departPos="4.40" departSpeed="0.00" departDelay="2.00" arrival="25383.00" arrivalLane="-22917421#4_0" arrivalPos="96.26" arrivalSpeed="8.01" duration="126.00" routeLength="263.02" waitingTime="87.00" waitingCount="2" stopTime="0.00" timeLoss="100.61" rerouteNo="0" devices="tripinfo_163799_422_0 routing_163799_422_0" vType="pkw" speedFactor="0.97" vaporized=""/>
    <tripinfo id="131237_409_0" depart="25228.00" departLane="-186623965#18_0" departPos="4.40" departSpeed="0.00" departDelay="0.00" arrival="25387.00" arrivalLane="297047309#0_0" arrivalPos="91.17" arrivalSpeed="13.40" duration="159.00" routeLength="1417.37" waitingTime="41.00" waitingCount="2" stopTime="0.00" timeLoss="59.35" rerouteNo="1" devices="tripinfo_131237_409_0 routing_131237_409_0" vType="pkw" speedFactor="1.03" vaporized=""/>
    <tripinfo id="140363_414_0" depart="25313.00" departLane="22917421#3_0" departPos="4.40" departSpeed="0.00" departDelay="0.00" arrival="25389.00" arrivalLane="-186623965#14_0" arrivalPos="159.69" arrivalSpeed="13.65" duration="76.00" routeLength="476.78" waitingTime="15.00" waitingCount="2" stopTime="0.00" timeLoss="36.28" rerouteNo="1" devices="tripinfo_140363_414_0 routing_140363_414_0" vType="pkw" speedFactor="1.00" vaporized=""/>
    <tripinfo id="166783_424_0" depart="25349.00" departLane="22917421#3_0" departPos="4.40" departSpeed="0.00" departDelay="0.00" arrival="25393.00" arrivalLane="186623965#17_0" arrivalPos="143.63" arrivalSpeed="15.79" duration="44.00" routeLength="257.42" waitingTime="15.00" waitingCount="1" stopTime="0.00" timeLoss="23.05" rerouteNo="0" devices="tripinfo_166783_424_0 routing_166783_424_0" vType="pkw" speedFactor="1.14" vaporized=""/>
    <tripinfo id="174717_427_0" depart="25373.00" departLane="22917421#3_0" departPos="4.40" departSpeed="0.00" departDelay="0.00" arrival="25398.00" arrivalLane="186623965#17_0" arrivalPos="143.63" arrivalSpeed="14.60" duration="25.00" routeLength="257.42" waitingTime="0.00" waitingCount="0" stopTime="0.00" timeLoss="3.83" rerouteNo="0" devices="tripinfo_174717_427_0 routing_174717_427_0" vType="pkw" speedFactor="1.11" vaporized=""/>
    <tripinfo id="164277_422_0" depart="25343.00" departLane="23285888#0_0" departPos="4.40" departSpeed="0.00" departDelay="0.00" arrival="25410.00" arrivalLane="297047309#0_0" arrivalPos="91.17" arrivalSpeed="15.44" duration="67.00" routeLength="518.80" waitingTime="8.00" waitingCount="1" stopTime="0.00" timeLoss="19.60" rerouteNo="1" devices="tripinfo_164277_422_0 routing_164277_422_0" vType="pkw" speedFactor="1.14" vaporized=""/>
    <tripinfo id="108769_400_0" depart="25356.00" departLane="-186623965#18_0" departPos="4.40" departSpeed="0.00" departDelay="0.00" arrival="25410.00" arrivalLane="-22917421#4_0" arrivalPos="96.26" arrivalSpeed="7.93" duration="54.00" routeLength="263.02" waitingTime="15.00" waitingCount="2" stopTime="0.00" timeLoss="30.62" rerouteNo="0" devices="tripinfo_108769_400_0 routing_108769_400_0" vType="pkw" speedFactor="1.07" vaporized=""/>
    <tripinfo id="134167_411_0" depart="25211.00" departLane="-23283579#1_0" departPos="4.40" departSpeed="0.00" departDelay="0.00" arrival="25411.00" arrivalLane="-186623965#14_0" arrivalPos="159.69" arrivalSpeed="10.19" duration="200.00" routeLength="1526.65" waitingTime="6.00" waitingCount="2" stopTime="0.00" timeLoss="31.90" rerouteNo="1" devices="tripinfo_134167_411_0 routing_134167_411_0" vType="pkw" speedFactor="0.76" vaporized=""/>
    <tripinfo id="96268_394_0" depart="25369.00" departLane="-186623965#18_0" departPos="4.40" departSpeed="0.00" departDelay="0.00" arrival="25411.00" arrivalLane="-22917421#4_0" arrivalPos="96.26" arrivalSpeed="8.86" duration="42.00" routeLength="263.02" waitingTime="9.00" waitingCount="1" stopTime="0.00" timeLoss="19.94" rerouteNo="0" devices="tripinfo_96268_394_0 routing_96268_394_0" vType="pkw" speedFactor="1.10" vaporized=""/>
    <tripinfo id="160358_421_0" depart="25214.00" departLane="-23283579#1_0" departPos="4.40" departSpeed="0.00" departDelay="1.00" arrival="25413.00" arrivalLane="-186623965#14_0" arrivalPos="159.69" arrivalSpeed="12.59" duration="199.00" routeLength="1526.65" waitingTime="4.00" waitingCount="1" stopTime="0.00" timeLoss="66.19" rerouteNo="1" devices="tripinfo_160358_421_0 routing_160358_421_0" vType="pkw" speedFactor="0.97" vaporized=""/>