<?xml version="1.0" encoding="UTF-8"?>

<!-- generated on 2023-08-30 11:18:28 by Eclipse SUMO libsumo Version 1.18.0
<configuration xmlns:xsi="http://www.w3.org/2001/XMLSchema-instance" xsi:noNamespaceSchemaLocation="http://sumo.dlr.de/xsd/libsumoConfiguration.xsd">

    <input>
        <net-file value="/home/stefan/RESCO/./environments/cologne8/cologne8.net.xml"/>
        <route-files value="/home/stefan/RESCO/./environments/cologne8/cologne8.rou.xml"/>
    </input>

    <output>
        <tripinfo-output value="/home/stefan/results/ITRPO-tr0-cologne8-0-drq_norm-wait_norm/tripinfo_82.xml"/>
        <tripinfo-output.write-unfinished value="true"/>
    </output>

    <time>
        <begin value="25200"/>
        <end value="28800"/>
    </time>

    <processing>
        <time-to-teleport value="-1"/>
    </processing>

    <report>
        <no-warnings value="True"/>
        <no-step-log value="True"/>
    </report>

    <random_number>
        <random value="true"/>
    </random_number>

</configuration>
-->

<tripinfos xmlns:xsi="http://www.w3.org/2001/XMLSchema-instance" xsi:noNamespaceSchemaLocation="http://sumo.dlr.de/xsd/tripinfo_file.xsd">
    <tripinfo id="142890_415_0" depart="25218.00" departLane="-23283579#1_0" departPos="4.40" departSpeed="0.00" departDelay="0.00" arrival="25225.00" arrivalLane="23283579#1_0" arrivalPos="22.22" arrivalSpeed="11.11" duration="7.00" routeLength="44.72" waitingTime="0.00" waitingCount="0" stopTime="0.00" timeLoss="3.64" rerouteNo="0" devices="tripinfo_142890_415_0 routing_142890_415_0" vType="pkw" speedFactor="0.99" vaporized=""/>
    <tripinfo id="137312_412_0" depart="25200.00" departLane="-23283579#1_0" departPos="4.40" departSpeed="0.00" departDelay="0.00" arrival="25233.00" arrivalLane="23283436_0" arrivalPos="65.76" arrivalSpeed="13.87" duration="33.00" routeLength="404.67" waitingTime="0.00" waitingCount="0" stopTime="0.00" timeLoss="3.75" rerouteNo="1" devices="tripinfo_137312_412_0 routing_137312_412_0" vType="pkw" speedFactor="1.01" vaporized=""/>
    <tripinfo id="137959_412_0" depart="25209.00" departLane="-186623965#18_0" departPos="4.40" departSpeed="0.00" departDelay="0.00" arrival="25233.00" arrivalLane="-22917421#4_0" arrivalPos="96.26" arrivalSpeed="10.29" duration="24.00" routeLength="263.02" waitingTime="0.00" waitingCount="0" stopTime="0.00" timeLoss="4.68" rerouteNo="0" devices="tripinfo_137959_412_0 routing_137959_412_0" vType="pkw" speedFactor="1.25" vaporized=""/>
    <tripinfo id="155570_420_0" depart="25200.00" departLane="-28675510#11_0" departPos="4.40" departSpeed="0.00" departDelay="0.00" arrival="25245.00" arrivalLane="28675510#7_0" arrivalPos="257.94" arrivalSpeed="12.27" duration="45.00" routeLength="516.12" waitingTime="0.00" waitingCount="0" stopTime="0.00" timeLoss="4.27" rerouteNo="0" devices="tripinfo_155570_420_0 routing_155570_420_0" vType="pkw" speedFactor="0.92" vaporized=""/>
    <tripinfo id="134603_411_0" depart="25206.00" departLane="-28675510#11_0" departPos="4.40" departSpeed="0.00" departDelay="0.00" arrival="25246.00" arrivalLane="28675510#7_0" arrivalPos="257.94" arrivalSpeed="14.68" duration="40.00" routeLength="516.12" waitingTime="0.00" waitingCount="0" stopTime="0.00" timeLoss="7.24" rerouteNo="0" devices="tripinfo_134603_411_0 routing_134603_411_0" vType="pkw" speedFactor="1.13" vaporized=""/>
    <tripinfo id="140143_414_0" depart="25211.00" departLane="-28675510#11_0" departPos="4.40" departSpeed="0.00" departDelay="1.00" arrival="25255.00" arrivalLane="28675510#7_0" arrivalPos="257.94" arrivalSpeed="14.60" duration="44.00" routeLength="516.12" waitingTime="0.00" waitingCount="0" stopTime="0.00" timeLoss="9.16" rerouteNo="0" devices="tripinfo_140143_414_0 routing_140143_414_0" vType="pkw" speedFactor="1.07" vaporized=""/>
    <tripinfo id="114597_403_0" depart="25201.00" departLane="22917421#3_0" departPos="4.40" departSpeed="0.00" departDelay="0.00" arrival="25278.00" arrivalLane="-186623965#14_0" arrivalPos="159.69" arrivalSpeed="14.16" duration="77.00" routeLength="476.78" waitingTime="30.00" waitingCount="1" stopTime="0.00" timeLoss="39.48" rerouteNo="1" devices="tripinfo_114597_403_0 routing_114597_403_0" vType="pkw" speedFactor="1.05" vaporized=""/>
    <tripinfo id="161942_421_0" depart="25233.00" departLane="-42925825#2_0" departPos="4.40" departSpeed="0.00" departDelay="0.00" arrival="25282.00" arrivalLane="42925825#0_0" arrivalPos="254.17" arrivalSpeed="11.82" duration="49.00" routeLength="508.64" waitingTime="0.00" waitingCount="0" stopTime="0.00" timeLoss="9.27" rerouteNo="0" devices="tripinfo_161942_421_0 routing_161942_421_0" vType="pkw" speedFactor="0.94" vaporized=""/>
    <tripinfo id="119181_405_0" depart="25226.00" departLane="186623965#9_0" departPos="4.40" departSpeed="0.00" departDelay="0.00" arrival="25288.00" arrivalLane="42925825#0_0" arrivalPos="254.17" arrivalSpeed="12.77" duration="62.00" routeLength="418.48" waitingTime="19.00" waitingCount="1" stopTime="0.00" timeLoss="29.91" rerouteNo="0" devices="tripinfo_119181_405_0 routing_119181_405_0" vType="pkw" speedFactor="0.96" vaporized=""/>
    <tripinfo id="133416_410_0" depart="25229.00" departLane="186623965#9_0" departPos="4.40" departSpeed="0.00" departDelay="1.00" arrival="25290.00" arrivalLane="42925825#0_0" arrivalPos="254.17" arrivalSpeed="11.57" duration="61.00" routeLength="418.48" waitingTime="18.00" waitingCount="1" stopTime="0.00" timeLoss="28.14" rerouteNo="0" devices="tripinfo_133416_410_0 routing_133416_410_0" vType="pkw" speedFactor="0.92" vaporized=""/>
    <tripinfo id="163799_422_0" depart="25256.00" departLane="-186623965#18_0" departPos="4.40" departSpeed="0.00" departDelay="1.00" arrival="25290.00" arrivalLane="-22917421#4_0" arrivalPos="96.26" arrivalSpeed="7.20" duration="34.00" routeLength="263.02" waitingTime="0.00" waitingCount="0" stopTime="0.00" timeLoss="9.88" rerouteNo="0" devices="tripinfo_163799_422_0 routing_163799_422_0" vType="pkw" speedFactor="1.02" vaporized=""/>
    <tripinfo id="76230_386_0" depart="25204.00" departLane="-23283579#1_0" departPos="4.40" departSpeed="0.00" departDelay="0.00" arrival="25291.00" arrivalLane="297047309#0_0" arrivalPos="91.17" arrivalSpeed="11.15" duration="87.00" routeLength="656.20" waitingTime="1.00" waitingCount="1" stopTime="0.00" timeLoss="12.89" rerouteNo="1" devices="tripinfo_76230_386_0 routing_76230_386_0" vType="pkw" speedFactor="0.89" vaporized=""/>
    <tripinfo id="110248_401_0" depart="25206.00" departLane="-23283579#1_0" departPos="4.40" departSpeed="0.00" departDelay="0.00" arrival="25293.00" arrivalLane="297047309#0_0" arrivalPos="91.17" arrivalSpeed="12.04" duration="87.00" routeLength="656.20" waitingTime="0.00" waitingCount="0" stopTime="0.00" timeLoss="12.11" rerouteNo="1" devices="tripinfo_110248_401_0 routing_110248_401_0" vType="pkw" speedFactor="0.88" vaporized=""/>
    <tripinfo id="140525_414_0" depart="25221.00" departLane="186623965#9_0" departPos="4.40" departSpeed="0.00" departDelay="0.00" arrival="25294.00" arrivalLane="186623965#17_0" arrivalPos="143.63" arrivalSpeed="13.08" duration="73.00" routeLength="527.61" waitingTime="24.00" waitingCount="1" stopTime="0.00" timeLoss="33.56" rerouteNo="1" devices="tripinfo_140525_414_0 routing_140525_414_0" vType="pkw" speedFactor="0.98" vaporized=""/>
    <tripinfo id="111571_401_0" depart="25267.00" departLane="-353069169#0_0" departPos="4.40" departSpeed="0.00" departDelay="0.00" arrival="25296.00" arrivalLane="24487264_0" arrivalPos="166.35" arrivalSpeed="12.17" duration="29.00" routeLength="286.19" waitingTime="0.00" waitingCount="0" stopTime="0.00" timeLoss="5.80" rerouteNo="1" devices="tripinfo_111571_401_0 routing_111571_401_0" vType="pkw" speedFactor="0.96" vaporized=""/>
    <tripinfo id="131243_409_0" depart="25248.00" departLane="-186623965#18_0" departPos="4.40" departSpeed="0.00" departDelay="0.00" arrival="25300.00" arrivalLane="-186623965#14_0" arrivalPos="159.69" arrivalSpeed="13.99" duration="52.00" routeLength="528.65" waitingTime="0.00" waitingCount="0" stopTime="0.00" timeLoss="14.14" rerouteNo="1" devices="tripinfo_131243_409_0 routing_131243_409_0" vType="pkw" speedFactor="1.02" vaporized=""/>
    <tripinfo id="150593_418_0" depart="25297.00" departLane="22959552#0_0" departPos="4.40" departSpeed="0.00" departDelay="0.00" arrival="25309.00" arrivalLane="22959552#0_0" arrivalPos="91.39" arrivalSpeed="8.17" duration="12.00" routeLength="86.99" waitingTime="0.00" waitingCount="0" stopTime="0.00" timeLoss="2.50" rerouteNo="1" devices="tripinfo_150593_418_0 routing_150593_418_0" vType="pkw" speedFactor="1.11" vaporized=""/>
    <tripinfo id="113370_402_0" depart="25249.00" departLane="186623965#9_0" departPos="4.40" departSpeed="0.00" departDelay="0.00" arrival="25311.00" arrivalLane="42925825#0_0" arrivalPos="254.17" arrivalSpeed="10.49" duration="62.00" routeLength="418.48" waitingTime="11.00" waitingCount="1" stopTime="0.00" timeLoss="22.72" rerouteNo="0" devices="tripinfo_113370_402_0 routing_113370_402_0" vType="pkw" speedFactor="0.78" vaporized=""/>
    <tripinfo id="145282_416_0" depart="25259.00" departLane="186623965#9_0" departPos="4.40" departSpeed="0.00" departDelay="0.00" arrival="25312.00" arrivalLane="42925825#0_0" arrivalPos="254.17" arrivalSpeed="12.92" duration="53.00" routeLength="418.48" waitingTime="6.00" waitingCount="1" stopTime="0.00" timeLoss="21.47" rerouteNo="0" devices="tripinfo_145282_416_0 routing_145282_416_0" vType="pkw" speedFactor="0.96" vaporized=""/>
    <tripinfo id="141355_415_0" depart="25232.00" departLane="-186623965#18_0" departPos="4.40" departSpeed="0.00" departDelay="0.00" arrival="25314.00" arrivalLane="42925825#0_0" arrivalPos="254.17" arrivalSpeed="14.35" duration="82.00" routeLength="625.62" waitingTime="18.00" waitingCount="2" stopTime="0.00" timeLoss="40.08" rerouteNo="1" devices="tripinfo_141355_415_0 routing_141355_415_0" vType="pkw" speedFactor="1.09" vaporized=""/>
    <tripinfo id="131071_409_0" depart="25236.00" departLane="-186623965#18_0" departPos="4.40" departSpeed="0.00" departDelay="0.00" arrival="25315.00" arrivalLane="42925825#0_0" arrivalPos="254.17" arrivalSpeed="14.53" duration="79.00" routeLength="625.62" waitingTime="13.00" waitingCount="2" stopTime="0.00" timeLoss="37.58" rerouteNo="1" devices="tripinfo_131071_409_0 routing_131071_409_0" vType="pkw" speedFactor="1.09" vaporized=""/>
    <tripinfo id="127809_407_0" depart="25257.00" departLane="-23283579#1_0" departPos="4.40" departSpeed="0.00" departDelay="0.00" arrival="25316.00" arrivalLane="23285888#0_0" arrivalPos="109.58" arrivalSpeed="9.00" duration="59.00" routeLength="410.95" waitingTime="3.00" waitingCount="1" stopTime="0.00" timeLoss="19.68" rerouteNo="1" devices="tripinfo_127809_407_0 routing_127809_407_0" vType="pkw" speedFactor="1.14" vaporized=""/>
    <tripinfo id="138070_412_0" depart="25229.00" departLane="22917421#3_0" departPos="4.40" departSpeed="0.00" departDelay="0.00" arrival="25321.00" arrivalLane="186623965#17_0" arrivalPos="143.63" arrivalSpeed="11.72" duration="92.00" routeLength="257.42" waitingTime="59.00" waitingCount="1" stopTime="0.00" timeLoss="65.85" rerouteNo="0" devices="tripinfo_138070_412_0 routing_138070_412_0" vType="pkw" speedFactor="0.91" vaporized=""/>
    <tripinfo id="126900_407_0" depart="25239.00" departLane="-186623965#18_0" departPos="4.40" departSpeed="0.00" departDelay="0.00" arrival="25321.00" arrivalLane="42925825#0_0" arrivalPos="254.17" arrivalSpeed="13.78" duration="82.00" routeLength="625.62" waitingTime="13.00" waitingCount="2" stopTime="0.00" timeLoss="39.51" rerouteNo="1" devices="tripinfo_126900_407_0 routing_126900_407_0" vType="pkw" speedFactor="1.07" vaporized=""/>
    <tripinfo id="153496_420_0" depart="25233.00" departLane="22917421#3_0" departPos="4.40" departSpeed="0.00" departDelay="1.00" arrival="25322.00" arrivalLane="186623965#17_0" arrivalPos="143.63" arrivalSpeed="13.45" duration="89.00" routeLength="257.42" waitingTime="59.00" waitingCount="1" stopTime="0.00" timeLoss="68.48" rerouteNo="0" devices="tripinfo_153496_420_0 routing_153496_420_0" vType="pkw" speedFactor="1.13" vaporized=""/>
    <tripinfo id="126698_407_0" depart="25242.00" departLane="-186623965#18_0" departPos="4.40" departSpeed="0.00" departDelay="1.00" arrival="25323.00" arrivalLane="42925825#0_0" arrivalPos="254.17" arrivalSpeed="14.59" duration="81.00" routeLength="625.62" waitingTime="6.00" waitingCount="2" stopTime="0.00" timeLoss="41.15" rerouteNo="1" devices="tripinfo_126698_407_0 routing_126698_407_0" vType="pkw" speedFactor="1.14" vaporized=""/>
    <tripinfo id="161216_421_0" depart="25251.00" departLane="-186623965#18_0" departPos="4.40" departSpeed="0.00" departDelay="3.00" arrival="25327.00" arrivalLane="42925825#0_0" arrivalPos="254.17" arrivalSpeed="13.59" duration="76.00" routeLength="625.62" waitingTime="2.00" waitingCount="1" stopTime="0.00" timeLoss="30.21" rerouteNo="1" devices="tripinfo_161216_421_0 routing_161216_421_0" vType="pkw" speedFactor="0.99" vaporized=""/>
    <tripinfo id="121484_406_0" depart="25268.00" departLane="-23283579#1_0" departPos="4.40" departSpeed="0.00" departDelay="0.00" arrival="25332.00" arrivalLane="133081987#3_0" arrivalPos="99.94" arrivalSpeed="14.13" duration="64.00" routeLength="434.85" waitingTime="22.00" waitingCount="1" stopTime="0.00" timeLoss="33.81" rerouteNo="1" devices="tripinfo_121484_406_0 routing_121484_406_0" vType="pkw" speedFactor="1.05" vaporized=""/>
    <tripinfo id="159622_421_0" depart="25253.00" departLane="-186623965#18_0" departPos="4.40" departSpeed="0.00" departDelay="2.00" arrival="25334.00" arrivalLane="42925825#0_0" arrivalPos="254.17" arrivalSpeed="10.11" duration="81.00" routeLength="625.62" waitingTime="1.00" waitingCount="1" stopTime="0.00" timeLoss="24.84" rerouteNo="1" devices="tripinfo_159622_421_0 routing_159622_421_0" vType="pkw" speedFactor="0.81" vaporized=""/>
    <tripinfo id="171184_426_0" depart="25326.00" departLane="133081987#0_0" departPos="4.40" departSpeed="0.00" departDelay="0.00" arrival="25342.00" arrivalLane="23283436_0" arrivalPos="65.76" arrivalSpeed="12.57" duration="16.00" routeLength="154.99" waitingTime="0.00" waitingCount="0" stopTime="0.00" timeLoss="3.73" rerouteNo="0" devices="tripinfo_171184_426_0 routing_171184_426_0" vType="pkw" speedFactor="0.95" vaporized=""/>
    <tripinfo id="155353_420_0" depart="25236.00" departLane="22917421#3_0" departPos="4.40" departSpeed="0.00" departDelay="2.00" arrival="25354.00" arrivalLane="186623965#17_0" arrivalPos="143.63" arrivalSpeed="13.84" duration="118.00" routeLength="257.42" waitingTime="81.00" waitingCount="2" stopTime="0.00" timeLoss="94.42" rerouteNo="0" devices="tripinfo_155353_420_0 routing_155353_420_0" vType="pkw" speedFactor="1.01" vaporized=""/>
    <tripinfo id="91556_392_0" depart="25271.00" departLane="-23283579#1_0" departPos="4.40" departSpeed="0.00" departDelay="1.00" arrival="25354.00" arrivalLane="23840972_0" arrivalPos="97.66" arrivalSpeed="7.72" duration="83.00" routeLength="525.30" waitingTime="20.00" waitingCount="2" stopTime="0.00" timeLoss="35.93" rerouteNo="1" devices="tripinfo_91556_392_0 routing_91556_392_0" vType="pkw" speedFactor="0.99" vaporized=""/>
    <tripinfo id="166776_424_0" depart="25208.00" departLane="-28675510#11_0" departPos="4.40" departSpeed="0.00" departDelay="0.00" arrival="25359.00" arrivalLane="-186623965#14_0" arrivalPos="159.69" arrivalSpeed="13.62" duration="151.00" routeLength="1202.17" waitingTime="22.00" waitingCount="2" stopTime="0.00" timeLoss="40.85" rerouteNo="1" devices="tripinfo_166776_424_0 routing_166776_424_0" vType="pkw" speedFactor="1.04" vaporized=""/>
    <tripinfo id="152801_419_0" depart="25299.00" departLane="-297047307_0" departPos="4.40" departSpeed="0.00" departDelay="0.00" arrival="25359.00" arrivalLane="297047309#0_0" arrivalPos="91.17" arrivalSpeed="13.81" duration="60.00" routeLength="439.92" waitingTime="12.00" waitingCount="2" stopTime="0.00" timeLoss="28.56" rerouteNo="1" devices="tripinfo_152801_419_0 routing_152801_419_0" vType="pkw" speedFactor="1.02" vaporized=""/>
    <tripinfo id="84611_390_0" depart="25261.00" departLane="-23283579#1_0" departPos="4.40" departSpeed="0.00" departDelay="0.00" arrival="25363.00" arrivalLane="-23648008#0_0" arrivalPos="75.90" arrivalSpeed="12.71" duration="102.00" routeLength="782.02" waitingTime="1.00" waitingCount="1" stopTime="0.00" timeLoss="22.58" rerouteNo="1" devices="tripinfo_84611_390_0 routing_84611_390_0" vType="pkw" speedFactor="0.94" vaporized=""/>
    <tripinfo id="158136_421_0" depart="25240.00" departLane="28675510#1_0" departPos="4.40" departSpeed="0.00" departDelay="0.00" arrival="25364.00" arrivalLane="323416262_0" arrivalPos="87.54" arrivalSpeed="12.68" duration="124.00" routeLength="1126.93" waitingTime="0.00" waitingCount="0" stopTime="0.00" timeLoss="17.85" rerouteNo="1" devices="tripinfo_158136_421_0 routing_158136_421_0" vType="pkw" speedFactor="0.98" vaporized=""/>
    <tripinfo id="129175_408_0" depart="25255.00" departLane="-23283579#1_0" departPos="4.40" departSpeed="0.00" departDelay="0.00" arrival="25365.00" arrivalLane="323450710#0_0" arrivalPos="95.59" arrivalSpeed="11.14" duration="110.00" routeLength="843.12" waitingTime="5.00" waitingCount="1" stopTime="0.00" timeLoss="18.34" rerouteNo="1" devices="tripinfo_129175_408_0 routing_129175_408_0" vType="pkw" speedFactor="0.86" vaporized=""/>
    <tripinfo id="144017_416_0" depart="25348.00" departLane="-353069169#0_0" departPos="4.40" departSpeed="0.00" departDelay="0.00" arrival="25366.00" arrivalLane="323416262_0" arrivalPos="87.54" arrivalSpeed="15.46" duration="18.00" routeLength="175.35" waitingTime="0.00" waitingCount="0" stopTime="0.00" timeLoss="6.36" rerouteNo="0" devices="tripinfo_144017_416_0 routing_144017_416_0" vType="pkw" speedFactor="1.12" vaporized=""/>
    <tripinfo id="156485_420_0" depart="25205.00" departLane="22959552#0_0" departPos="4.40" departSpeed="0.00" departDelay="0.00" arrival="25370.00" arrivalLane="28675510#7_0" arrivalPos="257.94" arrivalSpeed="11.29" duration="165.00" routeLength="1112.54" waitingTime="32.00" waitingCount="1" stopTime="0.00" timeLoss="46.50" rerouteNo="1" devices="tripinfo_156485_420_0 routing_156485_420_0" vType="pkw" speedFactor="0.87" vaporized=""/>
    <tripinfo id="166162_424_0" depart="25233.00" departLane="22959550#0_0" departPos="4.40" departSpeed="0.00" departDelay="0.00" arrival="25371.00" arrivalLane="28675510#7_0" arrivalPos="257.94" arrivalSpeed="12.70" duration="138.00" routeLength="903.30" waitingTime="33.00" waitingCount="2" stopTime="0.00" timeLoss="52.89" rerouteNo="1" devices="tripinfo_166162_424_0 routing_166162_424_0" vType="pkw" speedFactor="0.99" vaporized=""/>
    <tripinfo id="146152_416_0" depart="25210.00" departLane="25166682#0_0" departPos="4.40" departSpeed="0.00" departDelay="0.00" arrival="25373.00" arrivalLane="28675510#7_0" arrivalPos="257.94" arrivalSpeed="12.79" duration="163.00" routeLength="1219.50" waitingTime="24.00" waitingCount="2" stopTime="0.00" timeLoss="52.09" rerouteNo="1" devices="tripinfo_146152_416_0 routing_146152_416_0" vType="pkw" speedFactor="0.97" vaporized=""/>
    <tripinfo id="147744_416_0" depart="25272.00" departLane="-186623965#18_0" departPos="4.40" departSpeed="0.00" departDelay="0.00" arrival="25373.00" arrivalLane="42925825#0_0" arrivalPos="254.17" arrivalSpeed="10.86" duration="101.00" routeLength="625.62" waitingTime="30.00" waitingCount="1" stopTime="0.00" timeLoss="45.90" rerouteNo="1" devices="tripinfo_147744_416_0 routing_147744_416_0" vType="pkw" speedFactor="0.83" vaporized=""/>
    <tripinfo id="162890_422_0" depart="25264.00" departLane="8716807#1_0" departPos="4.40" departSpeed="0.00" departDelay="0.00" arrival="25374.00" arrivalLane="28675510#7_0" arrivalPos="257.94" arrivalSpeed="13.87" duration="110.00" routeLength="973.61" waitingTime="10.00" waitingCount="1" stopTime="0.00" timeLoss="25.86" rerouteNo="1" devices="tripinfo_162890_422_0 routing_162890_422_0" vType="pkw" speedFactor="1.03" vaporized=""/>
    <tripinfo id="118788_405_0" depart="25247.00" departLane="22917421#3_0" departPos="4.40" departSpeed="0.00" departDelay="0.00" arrival="25375.00" arrivalLane="186623965#17_0" arrivalPos="143.63" arrivalSpeed="12.20" duration="128.00" routeLength="257.42" waitingTime="84.00" waitingCount="3" stopTime="0.00" timeLoss="101.92" rerouteNo="0" devices="tripinfo_118788_405_0 routing_118788_405_0" vType="pkw" speedFactor="0.89" vaporized=""/>
    <tripinfo id="174787_427_0" depart="25287.00" departLane="22959550#3_0" departPos="4.40" departSpeed="0.00" departDelay="0.00" arrival="25376.00" arrivalLane="28675510#7_0" arrivalPos="257.94" arrivalSpeed="13.96" duration="89.00" routeLength="757.45" waitingTime="3.00" waitingCount="1" stopTime="0.00" timeLoss="22.41" rerouteNo="1" devices="tripinfo_174787_427_0 routing_174787_427_0" vType="pkw" speedFactor="1.01" vaporized=""/>
    <tripinfo id="138639_413_0" depart="25314.00" departLane="186623965#9_0" departPos="4.40" departSpeed="0.00" departDelay="0.00" arrival="25378.00" arrivalLane="186623965#17_0" arrivalPos="143.63" arrivalSpeed="14.11" duration="64.00" routeLength="527.61" waitingTime="11.00" waitingCount="2" stopTime="0.00" timeLoss="28.02" rerouteNo="1" devices="tripinfo_138639_413_0 routing_138639_413_0" vType="pkw" speedFactor="1.08" vaporized=""/>
    <tripinfo id="148039_417_0" depart="25331.00" departLane="-186623965#16_0" departPos="4.40" departSpeed="0.00" departDelay="0.00" arrival="25378.00" arrivalLane="186623965#17_1" arrivalPos="143.63" arrivalSpeed="13.58" duration="47.00" routeLength="545.21" waitingTime="0.00" waitingCount="0" stopTime="0.00" timeLoss="7.41" rerouteNo="1" devices="tripinfo_148039_417_0 routing_148039_417_0" vType="pkw" speedFactor="1.00" vaporized=""/>
    <tripinfo id="146391_416_0" depart="25313.00" departLane="-28675510#0_0" departPos="4.40" departSpeed="0.00" departDelay="0.00" arrival="25384.00" arrivalLane="28675510#7_0" arrivalPos="257.94" arrivalSpeed="11.17" duration="71.00" routeLength="752.27" waitingTime="0.00" waitingCount="0" stopTime="0.00" timeLoss="8.19" rerouteNo="1" devices="tripinfo_146391_416_0 routing_146391_416_0" vType="pkw" speedFactor="0.86" vaporized=""/>
    <tripinfo id="135663_411_0" depart="25217.00" departLane="-28675510#11_0" departPos="4.40" departSpeed="0.00" departDelay="3.00" arrival="25386.00" arrivalLane="28675510#7_0" arrivalPos="257.94" arrivalSpeed="13.26" duration="169.00" routeLength="516.12" waitingTime="116.00" waitingCount="2" stopTime="0.00" timeLoss="131.45" rerouteNo="0" devices="tripinfo_135663_411_0 routing_135663_411_0" vType="pkw" speedFactor="1.00" vaporized=""/>
    <tripinfo id="108769_400_0" depart="25356.00" departLane="-186623965#18_0" departPos="4.40" departSpeed="0.00" departDelay="0.00" arrival="25387.00" arrivalLane="-22917421#4_0" arrivalPos="96.26" arrivalSpeed="7.35" duration="31.00" routeLength="263.02" waitingTime="0.00" waitingCount="0" stopTime="0.00" timeLoss="5.99" rerouteNo="0" devices="tripinfo_108769_400_0 routing_108769_400_0" vType="pkw" speedFactor="1.00" vaporized=""/>
    <tripinfo id="120970_405_0" depart="25343.00" departLane="-23283579#1_0" departPos="4.40" departSpeed="0.00" departDelay="0.00" arrival="25391.00" arrivalLane="23283470#5_0" arrivalPos="89.27" arrivalSpeed="9.08" duration="48.00" routeLength="393.04" waitingTime="0.00" waitingCount="0" stopTime="0.00" timeLoss="10.02" rerouteNo="1" devices="tripinfo_120970_405_0 routing_120970_405_0" vType="pkw" speedFactor="1.15" vaporized=""/>
    <tripinfo id="134167_411_0" depart="25211.00" departLane="-23283579#1_0" departPos="4.40" departSpeed="0.00" departDelay="0.00" arrival="25397.00" arrivalLane="-186623965#14_0" arrivalPos="159.69" arrivalSpeed="14.33" duration="186.00" routeLength="1526.65" waitingTime="34.00" waitingCount="1" stopTime="0.00" timeLoss="69.70" rerouteNo="1" devices="tripinfo_134167_411_0 routing_134167_411_0" vType="pkw" speedFactor="1.11" vaporized=""/>
    <tripinfo id="139269_413_0" depart="25307.00" departLane="-23283579#1_0" departPos="4.40" departSpeed="0.00" departDelay="0.00" arrival="25399.00" arrivalLane="-297047308_0" arrivalPos="28.52" arrivalSpeed="13.08" duration="92.00" routeLength="517.28" waitingTime="22.00" waitingCount="2" stopTime="0.00" timeLoss="38.03" rerouteNo="1" devices="tripinfo_139269_413_0 routing_139269_413_0" vType="pkw" speedFactor="1.04" vaporized=""/>
    <tripinfo id="160358_421_0" depart="25214.00" departLane="-23283579#1_0" departPos="4.40" departSpeed="0.00" departDelay="1.00" arrival="25401.00" arrivalLane="-186623965#14_0" arrivalPos="159.69" arrivalSpeed="12.43" duration="187.00" routeLength="1526.65" waitingTime="27.00" waitingCount="1" stopTime="0.00" timeLoss="55.75" rerouteNo="1" devices="tripinfo_160358_421_0 routing_160358_421_0" vType="pkw" speedFactor="0.98" vaporized=""/>
    <tripinfo id="149045_417_0" depart="25220.00" departLane="-28675510#11_0" departPos="4.40" departSpeed="0.00" departDelay="3.00" arrival="25401.00" arrivalLane="28675510#7_0" arrivalPos="257.94" arrivalSpeed="13.10" duration="181.00" routeLength="516.12" waitingTime="125.00" waitingCount="3" stopTime="0.00" timeLoss="144.06" rerouteNo="0" devices="tripinfo_149045_417_0 routing_149045_417_0" vType="pkw" speedFactor="1.03" vaporized=""/>
    <tripinfo id="157572_421_0" depart="25303.00" departLane="23283470#0_0" departPos="4.40" departSpeed="0.00" departDelay="0.00" arrival="25405.00" arrivalLane="323416262_0" arrivalPos="87.54" arrivalSpeed="14.76" duration="102.00" routeLength="994.79" waitingTime="4.00" waitingCount="1" stopTime="0.00" timeLoss="17.81" rerouteNo="1" devices="tripinfo_157572_421_0 routing_157572_421_0" vType="pkw" speedFactor="1.11" vaporized=""/>
    <tripinfo id="96268_394_0" depart="25369.00" departLane="-186623965#18_0" departPos="4.40" departSpeed="0.00" departDelay="0.00" arrival="25406.00" arrivalLane="-22917421#4_0" arrivalPos="96.26" arrivalSpeed="7.39" duration="37.00" routeLength="263.02" waitingTime="5.00" waitingCount="1" stopTime="0.00" timeLoss="12.99" rerouteNo="0" devices="tripinfo_96268_394_0 routing_96268_394_0" vType="pkw" speedFactor="1.02" vaporized=""/>
    <tripinfo id="144617_416_0" depart="25256.00" departLane="22917421#3_0" departPos="4.40" departSpeed="0.00" departDelay="0.00" arrival="25407.00" arrivalLane="186623965#17_0" arrivalPos="143.63" arrivalSpeed="14.00" duration="151.00" routeLength="257.42" waitingTime="106.00" waitingCount="4" stopTime="0.00" timeLoss="128.99" rerouteNo="0" devices="tripinfo_144617_416_0 routing_144617_416_0" vType="pkw" speedFactor="1.08" vaporized=""/>
    <tripinfo id="158885_421_0" depart="25220.00" departLane="22917421#3_0" departPos="4.40" departSpeed="0.00" departDelay="0.00" arrival="25408.00" arrivalLane="28675510#7_0" arrivalPos="257.94" arrivalSpeed="13.21" duration="188.00" routeLength="937.03" waitingTime="67.00" waitingCount="2" stopTime="0.00" timeLoss="83.46" rerouteNo="1" devices="tripinfo_158885_421_0 routing_158885_421_0" vType="pkw" speedFactor="0.95" vaporized=""/>
    <tripinfo id="162497_421_0" depart="25273.00" departLane="22917421#3_0" departPos="4.40" departSpeed="0.00" departDelay="0.00" arrival="25409.00" arrivalLane="186623965#17_0" arrivalPos="143.63" arrivalSpeed="13.81" duration="136.00" routeLength="257.42" waitingTime="88.00" waitingCount="4" stopTime="0.00" timeLoss="113.79" rerouteNo="0" devices="tripinfo_162497_421_0 routing_162497_421_0" vType="pkw" speedFactor="1.07" vaporized=""/>
    <tripinfo id="145512_416_0" depart="25308.00" departLane="22917421#3_0" departPos="4.40" departSpeed="0.00" departDelay="0.00" arrival="25412.00" arrivalLane="186623965#17_0" arrivalPos="143.63" arrivalSpeed="12.51" duration="104.00" routeLength="257.42" waitingTime="56.00" waitingCount="3" stopTime="0.00" timeLoss="79.98" rerouteNo="0" devices="tripinfo_145512_416_0 routing_145512_416_0" vType="pkw" speedFactor="0.96" vaporized=""/>
    <tripinfo id="171749_426_0" depart="25314.00" departLane="-23283579#1_0" departPos="4.40" departSpeed="0.00" departDelay="0.00" arrival="25418.00" arrivalLane="-297047309#0_0" arrivalPos="91.17" arrivalSpeed="14.09" duration="104.00" routeLength="752.04" waitingTime="14.00" waitingCount="2" stopTime="0.00" timeLoss="36.23" rerouteNo="1" devices="tripinfo_171749_426_0 routing_171749_426_0" vType="pkw" speedFactor="1.07" vaporized=""/>
    <tripinfo id="175709_428_0" depart="25324.00" departLane="-186623965#18_0" departPos="4.40" departSpeed="0.00" departDelay="0.00" arrival="25419.00" arrivalLane="-186623965#14_0" arrivalPos="159.69" arrivalSpeed="13.56" duration="95.00" routeLength="528.65" waitingTime="40.00" waitingCount="2" stopTime="0.00" timeLoss="56.00" rerouteNo="1" devices="tripinfo_175709_428_0 routing_175709_428_0" vType="pkw" speedFactor="0.99" vaporized=""/>
    <tripinfo id="166783_424_0" depart="25349.00" departLane="22917421#3_0" departPos="4.40" departSpeed="0.00" departDelay="0.00" arrival="25420.00" arrivalLane="186623965#17_0" arrivalPos="143.63" arrivalSpeed="13.87" duration="71.00" routeLength="257.42" waitingTime="30.00" waitingCount="2" stopTime="0.00" timeLoss="47.86" rerouteNo="0" devices="tripinfo_166783_424_0 routing_166783_424_0" vType="pkw" speedFactor="1.02" vaporized=""/>
    <tripinfo id="174717_427_0" depart="25373.00" departLane="22917421#3_0" departPos="4.40" departSpeed="0.00" departDelay="0.00" arrival="25422.00" arrivalLane="186623965#17_0" arrivalPos="143.63" arrivalSpeed="13.17" duration="49.00" routeLength="257.42" waitingTime="15.00" waitingCount="1" stopTime="0.00" timeLoss="25.99" rerouteNo="0" devices="tripinfo_174717_427_0 routing_174717_427_0" vType="pkw" speedFactor="1.04" vaporized=""/>