<?xml version="1.0" encoding="UTF-8"?>

<!-- generated on 2023-08-30 11:17:52 by Eclipse SUMO libsumo Version 1.18.0
<configuration xmlns:xsi="http://www.w3.org/2001/XMLSchema-instance" xsi:noNamespaceSchemaLocation="http://sumo.dlr.de/xsd/libsumoConfiguration.xsd">

    <input>
        <net-file value="/home/stefan/RESCO/./environments/cologne8/cologne8.net.xml"/>
        <route-files value="/home/stefan/RESCO/./environments/cologne8/cologne8.rou.xml"/>
    </input>

    <output>
        <tripinfo-output value="/home/stefan/results/ITRPO-tr0-cologne8-0-drq_norm-wait_norm/tripinfo_77.xml"/>
        <tripinfo-output.write-unfinished value="true"/>
    </output>

    <time>
        <begin value="25200"/>
        <end value="28800"/>
    </time>

    <processing>
        <time-to-teleport value="-1"/>
    </processing>

    <report>
        <no-warnings value="True"/>
        <no-step-log value="True"/>
    </report>

    <random_number>
        <random value="true"/>
    </random_number>

</configuration>
-->

<tripinfos xmlns:xsi="http://www.w3.org/2001/XMLSchema-instance" xsi:noNamespaceSchemaLocation="http://sumo.dlr.de/xsd/tripinfo_file.xsd">
    <tripinfo id="142890_415_0" depart="25218.00" departLane="-23283579#1_0" departPos="4.40" departSpeed="0.00" departDelay="0.00" arrival="25225.00" arrivalLane="23283579#1_0" arrivalPos="22.22" arrivalSpeed="11.32" duration="7.00" routeLength="44.72" waitingTime="0.00" waitingCount="0" stopTime="0.00" timeLoss="3.68" rerouteNo="0" devices="tripinfo_142890_415_0 routing_142890_415_0" vType="pkw" speedFactor="0.98" vaporized=""/>
    <tripinfo id="137959_412_0" depart="25209.00" departLane="-186623965#18_0" departPos="4.40" departSpeed="0.00" departDelay="0.00" arrival="25237.00" arrivalLane="-22917421#4_0" arrivalPos="96.26" arrivalSpeed="8.85" duration="28.00" routeLength="263.02" waitingTime="0.00" waitingCount="0" stopTime="0.00" timeLoss="5.84" rerouteNo="0" devices="tripinfo_137959_412_0 routing_137959_412_0" vType="pkw" speedFactor="1.13" vaporized=""/>
    <tripinfo id="137312_412_0" depart="25200.00" departLane="-23283579#1_0" departPos="4.40" departSpeed="0.00" departDelay="0.00" arrival="25242.00" arrivalLane="23283436_0" arrivalPos="65.76" arrivalSpeed="11.69" duration="42.00" routeLength="404.67" waitingTime="1.00" waitingCount="1" stopTime="0.00" timeLoss="8.20" rerouteNo="1" devices="tripinfo_137312_412_0 routing_137312_412_0" vType="pkw" speedFactor="0.89" vaporized=""/>
    <tripinfo id="155570_420_0" depart="25200.00" departLane="-28675510#11_0" departPos="4.40" departSpeed="0.00" departDelay="0.00" arrival="25248.00" arrivalLane="28675510#7_0" arrivalPos="257.94" arrivalSpeed="11.43" duration="48.00" routeLength="516.12" waitingTime="0.00" waitingCount="0" stopTime="0.00" timeLoss="4.42" rerouteNo="0" devices="tripinfo_155570_420_0 routing_155570_420_0" vType="pkw" speedFactor="0.87" vaporized=""/>
    <tripinfo id="134603_411_0" depart="25206.00" departLane="-28675510#11_0" departPos="4.40" departSpeed="0.00" departDelay="0.00" arrival="25255.00" arrivalLane="28675510#7_0" arrivalPos="257.94" arrivalSpeed="12.89" duration="49.00" routeLength="516.12" waitingTime="2.00" waitingCount="1" stopTime="0.00" timeLoss="10.84" rerouteNo="0" devices="tripinfo_134603_411_0 routing_134603_411_0" vType="pkw" speedFactor="0.98" vaporized=""/>
    <tripinfo id="140143_414_0" depart="25211.00" departLane="-28675510#11_0" departPos="4.40" departSpeed="0.00" departDelay="1.00" arrival="25258.00" arrivalLane="28675510#7_0" arrivalPos="257.94" arrivalSpeed="12.88" duration="47.00" routeLength="516.12" waitingTime="0.00" waitingCount="0" stopTime="0.00" timeLoss="9.65" rerouteNo="0" devices="tripinfo_140143_414_0 routing_140143_414_0" vType="pkw" speedFactor="1.00" vaporized=""/>
    <tripinfo id="135663_411_0" depart="25217.00" departLane="-28675510#11_0" departPos="4.40" departSpeed="0.00" departDelay="3.00" arrival="25264.00" arrivalLane="28675510#7_0" arrivalPos="257.94" arrivalSpeed="13.05" duration="47.00" routeLength="516.12" waitingTime="0.00" waitingCount="0" stopTime="0.00" timeLoss="8.15" rerouteNo="0" devices="tripinfo_135663_411_0 routing_135663_411_0" vType="pkw" speedFactor="0.96" vaporized=""/>
    <tripinfo id="149045_417_0" depart="25219.00" departLane="-28675510#11_0" departPos="4.40" departSpeed="0.00" departDelay="2.00" arrival="25266.00" arrivalLane="28675510#7_0" arrivalPos="257.94" arrivalSpeed="13.17" duration="47.00" routeLength="516.12" waitingTime="0.00" waitingCount="0" stopTime="0.00" timeLoss="7.50" rerouteNo="0" devices="tripinfo_149045_417_0 routing_149045_417_0" vType="pkw" speedFactor="0.95" vaporized=""/>
    <tripinfo id="138070_412_0" depart="25229.00" departLane="22917421#3_0" departPos="4.40" departSpeed="0.00" departDelay="0.00" arrival="25266.00" arrivalLane="186623965#17_0" arrivalPos="143.63" arrivalSpeed="15.30" duration="37.00" routeLength="257.42" waitingTime="7.00" waitingCount="1" stopTime="0.00" timeLoss="15.30" rerouteNo="0" devices="tripinfo_138070_412_0 routing_138070_412_0" vType="pkw" speedFactor="1.11" vaporized=""/>
    <tripinfo id="153496_420_0" depart="25232.00" departLane="22917421#3_0" departPos="4.40" departSpeed="0.00" departDelay="0.00" arrival="25267.00" arrivalLane="186623965#17_0" arrivalPos="143.63" arrivalSpeed="13.76" duration="35.00" routeLength="257.42" waitingTime="4.00" waitingCount="1" stopTime="0.00" timeLoss="13.19" rerouteNo="0" devices="tripinfo_153496_420_0 routing_153496_420_0" vType="pkw" speedFactor="1.07" vaporized=""/>
    <tripinfo id="114597_403_0" depart="25201.00" departLane="22917421#3_0" departPos="4.40" departSpeed="0.00" departDelay="0.00" arrival="25272.00" arrivalLane="-186623965#14_0" arrivalPos="159.69" arrivalSpeed="10.02" duration="71.00" routeLength="476.78" waitingTime="10.00" waitingCount="1" stopTime="0.00" timeLoss="21.30" rerouteNo="1" devices="tripinfo_114597_403_0 routing_114597_403_0" vType="pkw" speedFactor="0.80" vaporized=""/>
    <tripinfo id="155353_420_0" depart="25237.00" departLane="22917421#3_0" departPos="4.40" departSpeed="0.00" departDelay="3.00" arrival="25272.00" arrivalLane="186623965#17_0" arrivalPos="143.63" arrivalSpeed="11.55" duration="35.00" routeLength="257.42" waitingTime="0.00" waitingCount="0" stopTime="0.00" timeLoss="8.05" rerouteNo="0" devices="tripinfo_155353_420_0 routing_155353_420_0" vType="pkw" speedFactor="0.87" vaporized=""/>
    <tripinfo id="119181_405_0" depart="25226.00" departLane="186623965#9_0" departPos="4.40" departSpeed="0.00" departDelay="0.00" arrival="25279.00" arrivalLane="42925825#0_0" arrivalPos="254.17" arrivalSpeed="12.25" duration="53.00" routeLength="418.48" waitingTime="9.00" waitingCount="1" stopTime="0.00" timeLoss="19.70" rerouteNo="0" devices="tripinfo_119181_405_0 routing_119181_405_0" vType="pkw" speedFactor="0.93" vaporized=""/>
    <tripinfo id="133416_410_0" depart="25229.00" departLane="186623965#9_0" departPos="4.40" departSpeed="0.00" departDelay="1.00" arrival="25280.00" arrivalLane="42925825#0_0" arrivalPos="254.17" arrivalSpeed="12.28" duration="51.00" routeLength="418.48" waitingTime="9.00" waitingCount="1" stopTime="0.00" timeLoss="18.82" rerouteNo="0" devices="tripinfo_133416_410_0 routing_133416_410_0" vType="pkw" speedFactor="0.94" vaporized=""/>
    <tripinfo id="76230_386_0" depart="25204.00" departLane="-23283579#1_0" departPos="4.40" departSpeed="0.00" departDelay="0.00" arrival="25284.00" arrivalLane="297047309#0_0" arrivalPos="91.17" arrivalSpeed="12.77" duration="80.00" routeLength="656.20" waitingTime="0.00" waitingCount="0" stopTime="0.00" timeLoss="10.41" rerouteNo="1" devices="tripinfo_76230_386_0 routing_76230_386_0" vType="pkw" speedFactor="0.95" vaporized=""/>
    <tripinfo id="110248_401_0" depart="25206.00" departLane="-23283579#1_0" departPos="4.40" departSpeed="0.00" departDelay="0.00" arrival="25286.00" arrivalLane="297047309#0_0" arrivalPos="91.17" arrivalSpeed="12.02" duration="80.00" routeLength="656.20" waitingTime="0.00" waitingCount="0" stopTime="0.00" timeLoss="11.00" rerouteNo="1" devices="tripinfo_110248_401_0 routing_110248_401_0" vType="pkw" speedFactor="0.96" vaporized=""/>
    <tripinfo id="113370_402_0" depart="25249.00" departLane="186623965#9_0" departPos="4.40" departSpeed="0.00" departDelay="0.00" arrival="25286.00" arrivalLane="42925825#0_0" arrivalPos="254.17" arrivalSpeed="12.53" duration="37.00" routeLength="418.48" waitingTime="0.00" waitingCount="0" stopTime="0.00" timeLoss="4.41" rerouteNo="0" devices="tripinfo_113370_402_0 routing_113370_402_0" vType="pkw" speedFactor="0.93" vaporized=""/>
    <tripinfo id="161942_421_0" depart="25233.00" departLane="-42925825#2_0" departPos="4.40" departSpeed="0.00" departDelay="0.00" arrival="25294.00" arrivalLane="42925825#0_0" arrivalPos="254.17" arrivalSpeed="13.76" duration="61.00" routeLength="508.64" waitingTime="16.00" waitingCount="1" stopTime="0.00" timeLoss="25.43" rerouteNo="0" devices="tripinfo_161942_421_0 routing_161942_421_0" vType="pkw" speedFactor="1.03" vaporized=""/>
    <tripinfo id="111571_401_0" depart="25267.00" departLane="-353069169#0_0" departPos="4.40" departSpeed="0.00" departDelay="0.00" arrival="25296.00" arrivalLane="24487264_0" arrivalPos="166.35" arrivalSpeed="12.40" duration="29.00" routeLength="286.19" waitingTime="0.00" waitingCount="0" stopTime="0.00" timeLoss="5.97" rerouteNo="1" devices="tripinfo_111571_401_0 routing_111571_401_0" vType="pkw" speedFactor="0.96" vaporized=""/>
    <tripinfo id="140525_414_0" depart="25221.00" departLane="186623965#9_0" departPos="4.40" departSpeed="0.00" departDelay="0.00" arrival="25298.00" arrivalLane="186623965#17_0" arrivalPos="143.63" arrivalSpeed="12.62" duration="77.00" routeLength="527.61" waitingTime="23.00" waitingCount="2" stopTime="0.00" timeLoss="37.71" rerouteNo="1" devices="tripinfo_140525_414_0 routing_140525_414_0" vType="pkw" speedFactor="0.98" vaporized=""/>
    <tripinfo id="134428_411_0" depart="25237.00" departLane="-28675510#11_0" departPos="4.40" departSpeed="0.00" departDelay="0.00" arrival="25300.00" arrivalLane="28675510#7_0" arrivalPos="257.94" arrivalSpeed="12.95" duration="63.00" routeLength="516.12" waitingTime="13.00" waitingCount="1" stopTime="0.00" timeLoss="23.83" rerouteNo="0" devices="tripinfo_134428_411_0 routing_134428_411_0" vType="pkw" speedFactor="0.96" vaporized=""/>
    <tripinfo id="163043_422_0" depart="25215.00" departLane="-28675510#11_0" departPos="4.40" departSpeed="0.00" departDelay="3.00" arrival="25306.00" arrivalLane="8716827#0_0" arrivalPos="109.12" arrivalSpeed="8.45" duration="91.00" routeLength="1154.53" waitingTime="0.00" waitingCount="0" stopTime="0.00" timeLoss="12.48" rerouteNo="1" devices="tripinfo_163043_422_0 routing_163043_422_0" vType="pkw" speedFactor="1.14" vaporized=""/>
    <tripinfo id="150593_418_0" depart="25297.00" departLane="22959552#0_0" departPos="4.40" departSpeed="0.00" departDelay="0.00" arrival="25313.00" arrivalLane="22959552#0_0" arrivalPos="91.39" arrivalSpeed="6.36" duration="16.00" routeLength="86.99" waitingTime="0.00" waitingCount="0" stopTime="0.00" timeLoss="2.36" rerouteNo="1" devices="tripinfo_150593_418_0 routing_150593_418_0" vType="pkw" speedFactor="0.81" vaporized=""/>
    <tripinfo id="118788_405_0" depart="25247.00" departLane="22917421#3_0" departPos="4.40" departSpeed="0.00" departDelay="0.00" arrival="25314.00" arrivalLane="186623965#17_0" arrivalPos="143.63" arrivalSpeed="13.45" duration="67.00" routeLength="257.42" waitingTime="34.00" waitingCount="1" stopTime="0.00" timeLoss="43.16" rerouteNo="0" devices="tripinfo_118788_405_0 routing_118788_405_0" vType="pkw" speedFactor="0.99" vaporized=""/>
    <tripinfo id="166162_424_0" depart="25233.00" departLane="22959550#0_0" departPos="4.40" departSpeed="0.00" departDelay="0.00" arrival="25318.00" arrivalLane="28675510#7_0" arrivalPos="257.94" arrivalSpeed="14.87" duration="85.00" routeLength="903.30" waitingTime="0.00" waitingCount="0" stopTime="0.00" timeLoss="9.32" rerouteNo="1" devices="tripinfo_166162_424_0 routing_166162_424_0" vType="pkw" speedFactor="1.12" vaporized=""/>
    <tripinfo id="141355_415_0" depart="25232.00" departLane="-186623965#18_0" departPos="4.40" departSpeed="0.00" departDelay="0.00" arrival="25324.00" arrivalLane="42925825#0_0" arrivalPos="254.17" arrivalSpeed="13.67" duration="92.00" routeLength="625.62" waitingTime="33.00" waitingCount="1" stopTime="0.00" timeLoss="47.33" rerouteNo="1" devices="tripinfo_141355_415_0 routing_141355_415_0" vType="pkw" speedFactor="1.02" vaporized=""/>
    <tripinfo id="144617_416_0" depart="25256.00" departLane="22917421#3_0" departPos="4.40" departSpeed="0.00" departDelay="0.00" arrival="25325.00" arrivalLane="186623965#17_0" arrivalPos="143.63" arrivalSpeed="12.00" duration="69.00" routeLength="257.42" waitingTime="32.00" waitingCount="2" stopTime="0.00" timeLoss="42.32" rerouteNo="0" devices="tripinfo_144617_416_0 routing_144617_416_0" vType="pkw" speedFactor="0.89" vaporized=""/>
    <tripinfo id="127809_407_0" depart="25258.00" departLane="-23283579#1_0" departPos="4.40" departSpeed="0.00" departDelay="1.00" arrival="25325.00" arrivalLane="23285888#0_0" arrivalPos="109.58" arrivalSpeed="8.64" duration="67.00" routeLength="410.95" waitingTime="13.00" waitingCount="1" stopTime="0.00" timeLoss="24.78" rerouteNo="1" devices="tripinfo_127809_407_0 routing_127809_407_0" vType="pkw" speedFactor="1.07" vaporized=""/>
    <tripinfo id="131071_409_0" depart="25236.00" departLane="-186623965#18_0" departPos="4.40" departSpeed="0.00" departDelay="0.00" arrival="25326.00" arrivalLane="42925825#0_0" arrivalPos="254.17" arrivalSpeed="13.79" duration="90.00" routeLength="625.62" waitingTime="32.00" waitingCount="1" stopTime="0.00" timeLoss="45.63" rerouteNo="1" devices="tripinfo_131071_409_0 routing_131071_409_0" vType="pkw" speedFactor="1.03" vaporized=""/>
    <tripinfo id="126698_407_0" depart="25242.00" departLane="-186623965#18_0" departPos="4.40" departSpeed="0.00" departDelay="1.00" arrival="25327.00" arrivalLane="42925825#0_0" arrivalPos="254.17" arrivalSpeed="13.58" duration="85.00" routeLength="625.62" waitingTime="24.00" waitingCount="2" stopTime="0.00" timeLoss="40.50" rerouteNo="1" devices="tripinfo_126698_407_0 routing_126698_407_0" vType="pkw" speedFactor="1.01" vaporized=""/>
    <tripinfo id="131243_409_0" depart="25248.00" departLane="-186623965#18_0" departPos="4.40" departSpeed="0.00" departDelay="0.00" arrival="25331.00" arrivalLane="-186623965#14_1" arrivalPos="159.69" arrivalSpeed="13.98" duration="83.00" routeLength="528.65" waitingTime="20.00" waitingCount="2" stopTime="0.00" timeLoss="47.73" rerouteNo="1" devices="tripinfo_131243_409_0 routing_131243_409_0" vType="pkw" speedFactor="1.09" vaporized=""/>
    <tripinfo id="145282_416_0" depart="25259.00" departLane="186623965#9_0" departPos="4.40" departSpeed="0.00" departDelay="0.00" arrival="25336.00" arrivalLane="42925825#0_0" arrivalPos="254.17" arrivalSpeed="12.95" duration="77.00" routeLength="418.48" waitingTime="35.00" waitingCount="1" stopTime="0.00" timeLoss="44.78" rerouteNo="0" devices="tripinfo_145282_416_0 routing_145282_416_0" vType="pkw" speedFactor="0.95" vaporized=""/>
    <tripinfo id="162497_421_0" depart="25273.00" departLane="22917421#3_0" departPos="4.40" departSpeed="0.00" departDelay="0.00" arrival="25337.00" arrivalLane="186623965#17_0" arrivalPos="143.63" arrivalSpeed="13.33" duration="64.00" routeLength="257.42" waitingTime="26.00" waitingCount="3" stopTime="0.00" timeLoss="40.98" rerouteNo="0" devices="tripinfo_162497_421_0 routing_162497_421_0" vType="pkw" speedFactor="1.01" vaporized=""/>
    <tripinfo id="152887_419_0" depart="25229.00" departLane="-28675510#11_0" departPos="4.40" departSpeed="0.00" departDelay="0.00" arrival="25338.00" arrivalLane="8716827#0_0" arrivalPos="109.12" arrivalSpeed="8.94" duration="109.00" routeLength="1154.53" waitingTime="18.00" waitingCount="1" stopTime="0.00" timeLoss="34.51" rerouteNo="1" devices="tripinfo_152887_419_0 routing_152887_419_0" vType="pkw" speedFactor="1.19" vaporized=""/>
    <tripinfo id="126900_407_0" depart="25239.00" departLane="-186623965#18_0" departPos="4.40" departSpeed="0.00" departDelay="0.00" arrival="25338.00" arrivalLane="42925825#0_0" arrivalPos="254.17" arrivalSpeed="12.43" duration="99.00" routeLength="625.62" waitingTime="32.00" waitingCount="2" stopTime="0.00" timeLoss="52.44" rerouteNo="1" devices="tripinfo_126900_407_0 routing_126900_407_0" vType="pkw" speedFactor="0.98" vaporized=""/>
    <tripinfo id="145512_416_0" depart="25308.00" departLane="22917421#3_0" departPos="4.40" departSpeed="0.00" departDelay="0.00" arrival="25341.00" arrivalLane="186623965#17_0" arrivalPos="143.63" arrivalSpeed="11.81" duration="33.00" routeLength="257.42" waitingTime="0.00" waitingCount="0" stopTime="0.00" timeLoss="6.76" rerouteNo="0" devices="tripinfo_145512_416_0 routing_145512_416_0" vType="pkw" speedFactor="0.92" vaporized=""/>
    <tripinfo id="156485_420_0" depart="25205.00" departLane="22959552#0_0" departPos="4.40" departSpeed="0.00" departDelay="0.00" arrival="25342.00" arrivalLane="28675510#7_0" arrivalPos="257.94" arrivalSpeed="11.36" duration="137.00" routeLength="1112.54" waitingTime="1.00" waitingCount="1" stopTime="0.00" timeLoss="16.04" rerouteNo="1" devices="tripinfo_156485_420_0 routing_156485_420_0" vType="pkw" speedFactor="0.85" vaporized=""/>
    <tripinfo id="121484_406_0" depart="25268.00" departLane="-23283579#1_0" departPos="4.40" departSpeed="0.00" departDelay="0.00" arrival="25343.00" arrivalLane="133081987#3_0" arrivalPos="99.94" arrivalSpeed="13.63" duration="75.00" routeLength="434.85" waitingTime="28.00" waitingCount="2" stopTime="0.00" timeLoss="42.82" rerouteNo="1" devices="tripinfo_121484_406_0 routing_121484_406_0" vType="pkw" speedFactor="0.99" vaporized=""/>
    <tripinfo id="171184_426_0" depart="25326.00" departLane="133081987#0_0" departPos="4.40" departSpeed="0.00" departDelay="0.00" arrival="25343.00" arrivalLane="23283436_0" arrivalPos="65.76" arrivalSpeed="14.54" duration="17.00" routeLength="154.99" waitingTime="0.00" waitingCount="0" stopTime="0.00" timeLoss="6.43" rerouteNo="0" devices="tripinfo_171184_426_0 routing_171184_426_0" vType="pkw" speedFactor="1.09" vaporized=""/>
    <tripinfo id="152801_419_0" depart="25299.00" departLane="-297047307_0" departPos="4.40" departSpeed="0.00" departDelay="0.00" arrival="25344.00" arrivalLane="297047309#0_0" arrivalPos="91.17" arrivalSpeed="11.19" duration="45.00" routeLength="439.92" waitingTime="0.00" waitingCount="0" stopTime="0.00" timeLoss="5.69" rerouteNo="1" devices="tripinfo_152801_419_0 routing_152801_419_0" vType="pkw" speedFactor="0.81" vaporized=""/>
    <tripinfo id="91556_392_0" depart="25270.00" departLane="-23283579#1_0" departPos="4.40" departSpeed="0.00" departDelay="0.00" arrival="25357.00" arrivalLane="23840972_0" arrivalPos="97.66" arrivalSpeed="8.78" duration="87.00" routeLength="525.30" waitingTime="24.00" waitingCount="2" stopTime="0.00" timeLoss="44.09" rerouteNo="1" devices="tripinfo_91556_392_0 routing_91556_392_0" vType="pkw" speedFactor="1.08" vaporized=""/>
    <tripinfo id="166776_424_0" depart="25208.00" departLane="-28675510#11_0" departPos="4.40" departSpeed="0.00" departDelay="0.00" arrival="25358.00" arrivalLane="-186623965#14_0" arrivalPos="159.69" arrivalSpeed="14.19" duration="150.00" routeLength="1202.17" waitingTime="14.00" waitingCount="1" stopTime="0.00" timeLoss="39.28" rerouteNo="1" devices="tripinfo_166776_424_0 routing_166776_424_0" vType="pkw" speedFactor="1.02" vaporized=""/>
    <tripinfo id="146111_416_0" depart="25222.00" departLane="-28675510#11_0" departPos="4.40" departSpeed="0.00" departDelay="1.00" arrival="25358.00" arrivalLane="-186623965#14_1" arrivalPos="159.69" arrivalSpeed="12.81" duration="136.00" routeLength="1202.17" waitingTime="0.00" waitingCount="0" stopTime="0.00" timeLoss="14.16" rerouteNo="1" devices="tripinfo_146111_416_0 routing_146111_416_0" vType="pkw" speedFactor="0.93" vaporized=""/>
    <tripinfo id="163025_422_0" depart="25248.00" departLane="-28675510#11_0" departPos="4.40" departSpeed="0.00" departDelay="2.00" arrival="25359.00" arrivalLane="8716807#1_0" arrivalPos="110.75" arrivalSpeed="7.00" duration="111.00" routeLength="862.02" waitingTime="10.00" waitingCount="2" stopTime="0.00" timeLoss="29.72" rerouteNo="1" devices="tripinfo_163025_422_0 routing_163025_422_0" vType="pkw" speedFactor="0.91" vaporized=""/>
    <tripinfo id="146152_416_0" depart="25210.00" departLane="25166682#0_0" departPos="4.40" departSpeed="0.00" departDelay="0.00" arrival="25360.00" arrivalLane="28675510#7_0" arrivalPos="257.94" arrivalSpeed="11.49" duration="150.00" routeLength="1219.50" waitingTime="6.00" waitingCount="2" stopTime="0.00" timeLoss="27.99" rerouteNo="1" devices="tripinfo_146152_416_0 routing_146152_416_0" vType="pkw" speedFactor="0.89" vaporized=""/>
    <tripinfo id="117517_404_0" depart="25225.00" departLane="-28675510#11_0" departPos="4.40" departSpeed="0.00" departDelay="1.00" arrival="25361.00" arrivalLane="-186623965#14_1" arrivalPos="159.69" arrivalSpeed="11.93" duration="136.00" routeLength="1202.17" waitingTime="0.00" waitingCount="0" stopTime="0.00" timeLoss="14.18" rerouteNo="1" devices="tripinfo_117517_404_0 routing_117517_404_0" vType="pkw" speedFactor="0.94" vaporized=""/>
    <tripinfo id="162890_422_0" depart="25264.00" departLane="8716807#1_0" departPos="4.40" departSpeed="0.00" departDelay="0.00" arrival="25361.00" arrivalLane="28675510#7_0" arrivalPos="257.94" arrivalSpeed="13.66" duration="97.00" routeLength="973.61" waitingTime="6.00" waitingCount="1" stopTime="0.00" timeLoss="20.44" rerouteNo="1" devices="tripinfo_162890_422_0 routing_162890_422_0" vType="pkw" speedFactor="1.13" vaporized=""/>
    <tripinfo id="140363_414_0" depart="25314.00" departLane="22917421#3_0" departPos="4.40" departSpeed="0.00" departDelay="1.00" arrival="25362.00" arrivalLane="-186623965#14_1" arrivalPos="159.69" arrivalSpeed="13.01" duration="48.00" routeLength="476.78" waitingTime="0.00" waitingCount="0" stopTime="0.00" timeLoss="7.40" rerouteNo="1" devices="tripinfo_140363_414_0 routing_140363_414_0" vType="pkw" speedFactor="0.97" vaporized=""/>
    <tripinfo id="144017_416_0" depart="25348.00" departLane="-353069169#0_0" departPos="4.40" departSpeed="0.00" departDelay="0.00" arrival="25366.00" arrivalLane="323416262_0" arrivalPos="87.54" arrivalSpeed="14.11" duration="18.00" routeLength="175.35" waitingTime="0.00" waitingCount="0" stopTime="0.00" timeLoss="5.94" rerouteNo="0" devices="tripinfo_144017_416_0 routing_144017_416_0" vType="pkw" speedFactor="1.10" vaporized=""/>
    <tripinfo id="148039_417_0" depart="25332.00" departLane="-186623965#16_0" departPos="4.40" departSpeed="0.00" departDelay="1.00" arrival="25376.00" arrivalLane="186623965#17_1" arrivalPos="143.63" arrivalSpeed="14.68" duration="44.00" routeLength="545.21" waitingTime="0.00" waitingCount="0" stopTime="0.00" timeLoss="7.74" rerouteNo="1" devices="tripinfo_148039_417_0 routing_148039_417_0" vType="pkw" speedFactor="1.10" vaporized=""/>
    <tripinfo id="129175_408_0" depart="25255.00" departLane="-23283579#1_0" departPos="4.40" departSpeed="0.00" departDelay="0.00" arrival="25377.00" arrivalLane="323450710#0_0" arrivalPos="95.59" arrivalSpeed="15.19" duration="122.00" routeLength="843.12" waitingTime="28.00" waitingCount="3" stopTime="0.00" timeLoss="50.30" rerouteNo="1" devices="tripinfo_129175_408_0 routing_129175_408_0" vType="pkw" speedFactor="1.11" vaporized=""/>
    <tripinfo id="84611_390_0" depart="25261.00" departLane="-23283579#1_0" departPos="4.40" departSpeed="0.00" departDelay="0.00" arrival="25377.00" arrivalLane="-23648008#0_0" arrivalPos="75.90" arrivalSpeed="13.32" duration="116.00" routeLength="782.02" waitingTime="14.00" waitingCount="2" stopTime="0.00" timeLoss="42.85" rerouteNo="1" devices="tripinfo_84611_390_0 routing_84611_390_0" vType="pkw" speedFactor="1.02" vaporized=""/>
    <tripinfo id="146391_416_0" depart="25313.00" departLane="-28675510#0_0" departPos="4.40" departSpeed="0.00" departDelay="0.00" arrival="25378.00" arrivalLane="28675510#7_0" arrivalPos="257.94" arrivalSpeed="11.91" duration="65.00" routeLength="752.27" waitingTime="0.00" waitingCount="0" stopTime="0.00" timeLoss="7.69" rerouteNo="1" devices="tripinfo_146391_416_0 routing_146391_416_0" vType="pkw" speedFactor="0.95" vaporized=""/>
    <tripinfo id="138639_413_0" depart="25314.00" departLane="186623965#9_0" departPos="4.40" departSpeed="0.00" departDelay="0.00" arrival="25378.00" arrivalLane="186623965#17_0" arrivalPos="143.63" arrivalSpeed="13.02" duration="64.00" routeLength="527.61" waitingTime="10.00" waitingCount="1" stopTime="0.00" timeLoss="26.24" rerouteNo="1" devices="tripinfo_138639_413_0 routing_138639_413_0" vType="pkw" speedFactor="1.02" vaporized=""/>
    <tripinfo id="174787_427_0" depart="25287.00" departLane="22959550#3_0" departPos="4.40" departSpeed="0.00" departDelay="0.00" arrival="25380.00" arrivalLane="28675510#7_0" arrivalPos="257.94" arrivalSpeed="13.71" duration="93.00" routeLength="757.45" waitingTime="16.00" waitingCount="1" stopTime="0.00" timeLoss="27.29" rerouteNo="1" devices="tripinfo_174787_427_0 routing_174787_427_0" vType="pkw" speedFactor="1.03" vaporized=""/>
    <tripinfo id="134167_411_0" depart="25211.00" departLane="-23283579#1_0" departPos="4.40" departSpeed="0.00" departDelay="0.00" arrival="25382.00" arrivalLane="-186623965#14_0" arrivalPos="159.69" arrivalSpeed="15.15" duration="171.00" routeLength="1526.65" waitingTime="29.00" waitingCount="2" stopTime="0.00" timeLoss="54.31" rerouteNo="1" devices="tripinfo_134167_411_0 routing_134167_411_0" vType="pkw" speedFactor="1.10" vaporized=""/>
    <tripinfo id="163799_422_0" depart="25257.00" departLane="-186623965#18_0" departPos="4.40" departSpeed="0.00" departDelay="2.00" arrival="25382.00" arrivalLane="-22917421#4_0" arrivalPos="96.26" arrivalSpeed="7.89" duration="125.00" routeLength="263.02" waitingTime="81.00" waitingCount="3" stopTime="0.00" timeLoss="99.87" rerouteNo="0" devices="tripinfo_163799_422_0 routing_163799_422_0" vType="pkw" speedFactor="0.97" vaporized=""/>
    <tripinfo id="158136_421_0" depart="25240.00" departLane="28675510#1_0" departPos="4.40" departSpeed="0.00" departDelay="0.00" arrival="25383.00" arrivalLane="323416262_0" arrivalPos="87.54" arrivalSpeed="12.46" duration="143.00" routeLength="1126.93" waitingTime="13.00" waitingCount="1" stopTime="0.00" timeLoss="32.79" rerouteNo="1" devices="tripinfo_158136_421_0 routing_158136_421_0" vType="pkw" speedFactor="0.94" vaporized=""/>
    <tripinfo id="166783_424_0" depart="25349.00" departLane="22917421#3_0" departPos="4.40" departSpeed="0.00" departDelay="0.00" arrival="25389.00" arrivalLane="186623965#17_0" arrivalPos="143.63" arrivalSpeed="12.64" duration="40.00" routeLength="257.42" waitingTime="7.00" waitingCount="1" stopTime="0.00" timeLoss="13.98" rerouteNo="0" devices="tripinfo_166783_424_0 routing_166783_424_0" vType="pkw" speedFactor="0.92" vaporized=""/>
    <tripinfo id="120970_405_0" depart="25343.00" departLane="-23283579#1_0" departPos="4.40" departSpeed="0.00" departDelay="0.00" arrival="25391.00" arrivalLane="23283470#5_0" arrivalPos="89.27" arrivalSpeed="8.04" duration="48.00" routeLength="393.04" waitingTime="0.00" waitingCount="0" stopTime="0.00" timeLoss="6.83" rerouteNo="1" devices="tripinfo_120970_405_0 routing_120970_405_0" vType="pkw" speedFactor="1.04" vaporized=""/>
    <tripinfo id="160358_421_0" depart="25213.00" departLane="-23283579#1_0" departPos="4.40" departSpeed="0.00" departDelay="0.00" arrival="25394.00" arrivalLane="-186623965#14_0" arrivalPos="159.69" arrivalSpeed="12.27" duration="181.00" routeLength="1526.65" waitingTime="14.00" waitingCount="2" stopTime="0.00" timeLoss="37.85" rerouteNo="1" devices="tripinfo_160358_421_0 routing_160358_421_0" vType="pkw" speedFactor="0.90" vaporized=""/>
    <tripinfo id="158885_421_0" depart="25220.00" departLane="22917421#3_0" departPos="4.40" departSpeed="0.00" departDelay="0.00" arrival="25402.00" arrivalLane="28675510#7_0" arrivalPos="257.94" arrivalSpeed="13.38" duration="182.00" routeLength="937.03" waitingTime="71.00" waitingCount="2" stopTime="0.00" timeLoss="87.06" rerouteNo="1" devices="tripinfo_158885_421_0 routing_158885_421_0" vType="pkw" speedFactor="1.05" vaporized=""/>
    <tripinfo id="124742_406_0" depart="25240.00" departLane="22917421#3_0" departPos="4.40" departSpeed="0.00" departDelay="4.00" arrival="25404.00" arrivalLane="28675493_0" arrivalPos="90.85" arrivalSpeed="12.68" duration="164.00" routeLength="1141.94" waitingTime="48.00" waitingCount="2" stopTime="0.00" timeLoss="69.32" rerouteNo="1" devices="tripinfo_124742_406_0 routing_124742_406_0" vType="pkw" speedFactor="0.93" vaporized=""/>
    <tripinfo id="108769_400_0" depart="25356.00" departLane="-186623965#18_0" departPos="4.40" departSpeed="0.00" departDelay="0.00" arrival="25405.00" arrivalLane="-22917421#4_0" arrivalPos="96.26" arrivalSpeed="8.33" duration="49.00" routeLength="263.02" waitingTime="11.00" waitingCount="2" stopTime="0.00" timeLoss="26.84" rerouteNo="0" devices="tripinfo_108769_400_0 routing_108769_400_0" vType="pkw" speedFactor="1.10" vaporized=""/>
    <tripinfo id="139269_413_0" depart="25307.00" departLane="-23283579#1_0" departPos="4.40" departSpeed="0.00" departDelay="0.00" arrival="25409.00" arrivalLane="-297047308_0" arrivalPos="28.52" arrivalSpeed="11.68" duration="102.00" routeLength="517.28" waitingTime="20.00" waitingCount="2" stopTime="0.00" timeLoss="38.84" rerouteNo="1" devices="tripinfo_139269_413_0 routing_139269_413_0" vType="pkw" speedFactor="0.88" vaporized=""/>