<?xml version="1.0" encoding="UTF-8"?>

<!-- generated on 2023-08-30 11:11:53 by Eclipse SUMO libsumo Version 1.18.0
<configuration xmlns:xsi="http://www.w3.org/2001/XMLSchema-instance" xsi:noNamespaceSchemaLocation="http://sumo.dlr.de/xsd/libsumoConfiguration.xsd">

    <input>
        <net-file value="/home/stefan/RESCO/./environments/cologne8/cologne8.net.xml"/>
        <route-files value="/home/stefan/RESCO/./environments/cologne8/cologne8.rou.xml"/>
    </input>

    <output>
        <tripinfo-output value="/home/stefan/results/ITRPO-tr0-cologne8-0-drq_norm-wait_norm/tripinfo_26.xml"/>
        <tripinfo-output.write-unfinished value="true"/>
    </output>

    <time>
        <begin value="25200"/>
        <end value="28800"/>
    </time>

    <processing>
        <time-to-teleport value="-1"/>
    </processing>

    <report>
        <no-warnings value="True"/>
        <no-step-log value="True"/>
    </report>

    <random_number>
        <random value="true"/>
    </random_number>

</configuration>
-->

<tripinfos xmlns:xsi="http://www.w3.org/2001/XMLSchema-instance" xsi:noNamespaceSchemaLocation="http://sumo.dlr.de/xsd/tripinfo_file.xsd">
    <tripinfo id="142890_415_0" depart="25218.00" departLane="-23283579#1_0" departPos="4.40" departSpeed="0.00" departDelay="0.00" arrival="25225.00" arrivalLane="23283579#1_0" arrivalPos="22.22" arrivalSpeed="10.87" duration="7.00" routeLength="44.72" waitingTime="0.00" waitingCount="0" stopTime="0.00" timeLoss="3.87" rerouteNo="0" devices="tripinfo_142890_415_0 routing_142890_415_0" vType="pkw" speedFactor="1.05" vaporized=""/>
    <tripinfo id="137312_412_0" depart="25200.00" departLane="-23283579#1_0" departPos="4.40" departSpeed="0.00" departDelay="0.00" arrival="25235.00" arrivalLane="23283436_0" arrivalPos="65.76" arrivalSpeed="12.70" duration="35.00" routeLength="404.67" waitingTime="0.00" waitingCount="0" stopTime="0.00" timeLoss="3.60" rerouteNo="1" devices="tripinfo_137312_412_0 routing_137312_412_0" vType="pkw" speedFactor="0.94" vaporized=""/>
    <tripinfo id="137959_412_0" depart="25209.00" departLane="-186623965#18_0" departPos="4.40" departSpeed="0.00" departDelay="0.00" arrival="25238.00" arrivalLane="-22917421#4_0" arrivalPos="96.26" arrivalSpeed="8.84" duration="29.00" routeLength="263.02" waitingTime="0.00" waitingCount="0" stopTime="0.00" timeLoss="6.68" rerouteNo="0" devices="tripinfo_137959_412_0 routing_137959_412_0" vType="pkw" speedFactor="1.11" vaporized=""/>
    <tripinfo id="114597_403_0" depart="25201.00" departLane="22917421#3_0" departPos="4.40" departSpeed="0.00" departDelay="0.00" arrival="25251.00" arrivalLane="-186623965#14_0" arrivalPos="159.69" arrivalSpeed="13.20" duration="50.00" routeLength="476.78" waitingTime="1.00" waitingCount="1" stopTime="0.00" timeLoss="9.66" rerouteNo="1" devices="tripinfo_114597_403_0 routing_114597_403_0" vType="pkw" speedFactor="0.97" vaporized=""/>
    <tripinfo id="155570_420_0" depart="25200.00" departLane="-28675510#11_0" departPos="4.40" departSpeed="0.00" departDelay="0.00" arrival="25252.00" arrivalLane="28675510#7_0" arrivalPos="257.94" arrivalSpeed="12.36" duration="52.00" routeLength="516.12" waitingTime="2.00" waitingCount="1" stopTime="0.00" timeLoss="11.33" rerouteNo="0" devices="tripinfo_155570_420_0 routing_155570_420_0" vType="pkw" speedFactor="0.92" vaporized=""/>
    <tripinfo id="134603_411_0" depart="25206.00" departLane="-28675510#11_0" departPos="4.40" departSpeed="0.00" departDelay="0.00" arrival="25254.00" arrivalLane="28675510#7_0" arrivalPos="257.94" arrivalSpeed="14.60" duration="48.00" routeLength="516.12" waitingTime="1.00" waitingCount="1" stopTime="0.00" timeLoss="12.61" rerouteNo="0" devices="tripinfo_134603_411_0 routing_134603_411_0" vType="pkw" speedFactor="1.06" vaporized=""/>
    <tripinfo id="140143_414_0" depart="25212.00" departLane="-28675510#11_0" departPos="4.40" departSpeed="0.00" departDelay="2.00" arrival="25261.00" arrivalLane="28675510#7_0" arrivalPos="257.94" arrivalSpeed="12.36" duration="49.00" routeLength="516.12" waitingTime="0.00" waitingCount="0" stopTime="0.00" timeLoss="7.81" rerouteNo="0" devices="tripinfo_140143_414_0 routing_140143_414_0" vType="pkw" speedFactor="0.91" vaporized=""/>
    <tripinfo id="138070_412_0" depart="25229.00" departLane="22917421#3_0" departPos="4.40" departSpeed="0.00" departDelay="0.00" arrival="25277.00" arrivalLane="186623965#17_0" arrivalPos="143.63" arrivalSpeed="12.24" duration="48.00" routeLength="257.42" waitingTime="14.00" waitingCount="1" stopTime="0.00" timeLoss="22.95" rerouteNo="0" devices="tripinfo_138070_412_0 routing_138070_412_0" vType="pkw" speedFactor="0.96" vaporized=""/>
    <tripinfo id="119181_405_0" depart="25226.00" departLane="186623965#9_0" departPos="4.40" departSpeed="0.00" departDelay="0.00" arrival="25279.00" arrivalLane="42925825#0_0" arrivalPos="254.17" arrivalSpeed="11.59" duration="53.00" routeLength="418.48" waitingTime="8.00" waitingCount="1" stopTime="0.00" timeLoss="17.24" rerouteNo="0" devices="tripinfo_119181_405_0 routing_119181_405_0" vType="pkw" speedFactor="0.86" vaporized=""/>
    <tripinfo id="153496_420_0" depart="25232.00" departLane="22917421#3_0" departPos="4.40" departSpeed="0.00" departDelay="0.00" arrival="25279.00" arrivalLane="186623965#17_0" arrivalPos="143.63" arrivalSpeed="12.78" duration="47.00" routeLength="257.42" waitingTime="13.00" waitingCount="1" stopTime="0.00" timeLoss="21.08" rerouteNo="0" devices="tripinfo_153496_420_0 routing_153496_420_0" vType="pkw" speedFactor="0.93" vaporized=""/>
    <tripinfo id="133416_410_0" depart="25229.00" departLane="186623965#9_0" departPos="4.40" departSpeed="0.00" departDelay="1.00" arrival="25280.00" arrivalLane="42925825#0_0" arrivalPos="254.17" arrivalSpeed="12.58" duration="51.00" routeLength="418.48" waitingTime="7.00" waitingCount="1" stopTime="0.00" timeLoss="22.03" rerouteNo="0" devices="tripinfo_133416_410_0 routing_133416_410_0" vType="pkw" speedFactor="1.05" vaporized=""/>
    <tripinfo id="155353_420_0" depart="25235.00" departLane="22917421#3_0" departPos="4.40" departSpeed="0.00" departDelay="1.00" arrival="25280.00" arrivalLane="186623965#17_0" arrivalPos="143.63" arrivalSpeed="13.28" duration="45.00" routeLength="257.42" waitingTime="13.00" waitingCount="1" stopTime="0.00" timeLoss="20.94" rerouteNo="0" devices="tripinfo_155353_420_0 routing_155353_420_0" vType="pkw" speedFactor="0.97" vaporized=""/>
    <tripinfo id="113370_402_0" depart="25249.00" departLane="186623965#9_0" departPos="4.40" departSpeed="0.00" departDelay="0.00" arrival="25287.00" arrivalLane="42925825#0_0" arrivalPos="254.17" arrivalSpeed="12.33" duration="38.00" routeLength="418.48" waitingTime="0.00" waitingCount="0" stopTime="0.00" timeLoss="4.77" rerouteNo="0" devices="tripinfo_113370_402_0 routing_113370_402_0" vType="pkw" speedFactor="0.93" vaporized=""/>
    <tripinfo id="140525_414_0" depart="25221.00" departLane="186623965#9_0" departPos="4.40" departSpeed="0.00" departDelay="0.00" arrival="25288.00" arrivalLane="186623965#17_0" arrivalPos="143.63" arrivalSpeed="14.75" duration="67.00" routeLength="527.61" waitingTime="18.00" waitingCount="1" stopTime="0.00" timeLoss="30.55" rerouteNo="1" devices="tripinfo_140525_414_0 routing_140525_414_0" vType="pkw" speedFactor="1.06" vaporized=""/>
    <tripinfo id="111571_401_0" depart="25267.00" departLane="-353069169#0_0" departPos="4.40" departSpeed="0.00" departDelay="0.00" arrival="25292.00" arrivalLane="24487264_0" arrivalPos="166.35" arrivalSpeed="14.57" duration="25.00" routeLength="286.19" waitingTime="0.00" waitingCount="0" stopTime="0.00" timeLoss="5.80" rerouteNo="1" devices="tripinfo_111571_401_0 routing_111571_401_0" vType="pkw" speedFactor="1.13" vaporized=""/>
    <tripinfo id="161942_421_0" depart="25233.00" departLane="-42925825#2_0" departPos="4.40" departSpeed="0.00" departDelay="0.00" arrival="25293.00" arrivalLane="42925825#0_0" arrivalPos="254.17" arrivalSpeed="15.02" duration="60.00" routeLength="508.64" waitingTime="16.00" waitingCount="1" stopTime="0.00" timeLoss="26.86" rerouteNo="0" devices="tripinfo_161942_421_0 routing_161942_421_0" vType="pkw" speedFactor="1.12" vaporized=""/>
    <tripinfo id="118788_405_0" depart="25247.00" departLane="22917421#3_0" departPos="4.40" departSpeed="0.00" departDelay="0.00" arrival="25308.00" arrivalLane="186623965#17_0" arrivalPos="143.63" arrivalSpeed="12.22" duration="61.00" routeLength="257.42" waitingTime="18.00" waitingCount="3" stopTime="0.00" timeLoss="36.94" rerouteNo="0" devices="tripinfo_118788_405_0 routing_118788_405_0" vType="pkw" speedFactor="0.97" vaporized=""/>
    <tripinfo id="135663_411_0" depart="25218.00" departLane="-28675510#11_0" departPos="4.40" departSpeed="0.00" departDelay="4.00" arrival="25310.00" arrivalLane="28675510#7_0" arrivalPos="257.94" arrivalSpeed="11.66" duration="92.00" routeLength="516.12" waitingTime="37.00" waitingCount="1" stopTime="0.00" timeLoss="47.92" rerouteNo="0" devices="tripinfo_135663_411_0 routing_135663_411_0" vType="pkw" speedFactor="0.85" vaporized=""/>
    <tripinfo id="144617_416_0" depart="25256.00" departLane="22917421#3_0" departPos="4.40" departSpeed="0.00" departDelay="0.00" arrival="25310.00" arrivalLane="186623965#17_0" arrivalPos="143.63" arrivalSpeed="16.20" duration="54.00" routeLength="257.42" waitingTime="12.00" waitingCount="2" stopTime="0.00" timeLoss="33.63" rerouteNo="0" devices="tripinfo_144617_416_0 routing_144617_416_0" vType="pkw" speedFactor="1.18" vaporized=""/>
    <tripinfo id="149045_417_0" depart="25220.00" departLane="-28675510#11_0" departPos="4.40" departSpeed="0.00" departDelay="3.00" arrival="25312.00" arrivalLane="28675510#7_0" arrivalPos="257.94" arrivalSpeed="14.10" duration="92.00" routeLength="516.12" waitingTime="36.00" waitingCount="1" stopTime="0.00" timeLoss="55.94" rerouteNo="0" devices="tripinfo_149045_417_0 routing_149045_417_0" vType="pkw" speedFactor="1.06" vaporized=""/>
    <tripinfo id="150593_418_0" depart="25297.00" departLane="22959552#0_0" departPos="4.40" departSpeed="0.00" departDelay="0.00" arrival="25312.00" arrivalLane="22959552#0_0" arrivalPos="91.39" arrivalSpeed="7.23" duration="15.00" routeLength="86.99" waitingTime="0.00" waitingCount="0" stopTime="0.00" timeLoss="2.42" rerouteNo="1" devices="tripinfo_150593_418_0 routing_150593_418_0" vType="pkw" speedFactor="0.89" vaporized=""/>
    <tripinfo id="162497_421_0" depart="25273.00" departLane="22917421#3_0" departPos="4.40" departSpeed="0.00" departDelay="0.00" arrival="25314.00" arrivalLane="186623965#17_0" arrivalPos="143.63" arrivalSpeed="10.96" duration="41.00" routeLength="257.42" waitingTime="3.00" waitingCount="1" stopTime="0.00" timeLoss="12.70" rerouteNo="0" devices="tripinfo_162497_421_0 routing_162497_421_0" vType="pkw" speedFactor="0.82" vaporized=""/>
    <tripinfo id="134428_411_0" depart="25237.00" departLane="-28675510#11_0" departPos="4.40" departSpeed="0.00" departDelay="0.00" arrival="25321.00" arrivalLane="28675510#7_0" arrivalPos="257.94" arrivalSpeed="13.08" duration="84.00" routeLength="516.12" waitingTime="31.00" waitingCount="1" stopTime="0.00" timeLoss="44.86" rerouteNo="0" devices="tripinfo_134428_411_0 routing_134428_411_0" vType="pkw" speedFactor="0.97" vaporized=""/>
    <tripinfo id="121484_406_0" depart="25268.00" departLane="-23283579#1_0" departPos="4.40" departSpeed="0.00" departDelay="0.00" arrival="25321.00" arrivalLane="133081987#3_0" arrivalPos="99.94" arrivalSpeed="14.59" duration="53.00" routeLength="434.85" waitingTime="8.00" waitingCount="1" stopTime="0.00" timeLoss="23.92" rerouteNo="1" devices="tripinfo_121484_406_0 routing_121484_406_0" vType="pkw" speedFactor="1.10" vaporized=""/>
    <tripinfo id="76230_386_0" depart="25204.00" departLane="-23283579#1_0" departPos="4.40" departSpeed="0.00" departDelay="0.00" arrival="25325.00" arrivalLane="297047309#0_0" arrivalPos="91.17" arrivalSpeed="14.23" duration="121.00" routeLength="656.20" waitingTime="41.00" waitingCount="2" stopTime="0.00" timeLoss="58.61" rerouteNo="1" devices="tripinfo_76230_386_0 routing_76230_386_0" vType="pkw" speedFactor="1.06" vaporized=""/>
    <tripinfo id="166162_424_0" depart="25235.00" departLane="22959550#0_0" departPos="4.40" departSpeed="0.00" departDelay="2.00" arrival="25325.00" arrivalLane="28675510#7_0" arrivalPos="257.94" arrivalSpeed="13.06" duration="90.00" routeLength="903.30" waitingTime="0.00" waitingCount="0" stopTime="0.00" timeLoss="8.16" rerouteNo="1" devices="tripinfo_166162_424_0 routing_166162_424_0" vType="pkw" speedFactor="1.03" vaporized=""/>
    <tripinfo id="146152_416_0" depart="25210.00" departLane="25166682#0_0" departPos="4.40" departSpeed="0.00" departDelay="0.00" arrival="25327.00" arrivalLane="28675510#7_0" arrivalPos="257.94" arrivalSpeed="16.10" duration="117.00" routeLength="1219.50" waitingTime="0.00" waitingCount="0" stopTime="0.00" timeLoss="28.18" rerouteNo="1" devices="tripinfo_146152_416_0 routing_146152_416_0" vType="pkw" speedFactor="1.22" vaporized=""/>
    <tripinfo id="110248_401_0" depart="25206.00" departLane="-23283579#1_0" departPos="4.40" departSpeed="0.00" departDelay="0.00" arrival="25332.00" arrivalLane="297047309#0_0" arrivalPos="91.17" arrivalSpeed="11.08" duration="126.00" routeLength="656.20" waitingTime="33.00" waitingCount="1" stopTime="0.00" timeLoss="49.02" rerouteNo="1" devices="tripinfo_110248_401_0 routing_110248_401_0" vType="pkw" speedFactor="0.85" vaporized=""/>
    <tripinfo id="163799_422_0" depart="25256.00" departLane="-186623965#18_0" departPos="4.40" departSpeed="0.00" departDelay="1.00" arrival="25333.00" arrivalLane="-22917421#4_0" arrivalPos="96.26" arrivalSpeed="6.94" duration="77.00" routeLength="263.02" waitingTime="36.00" waitingCount="2" stopTime="0.00" timeLoss="49.66" rerouteNo="0" devices="tripinfo_163799_422_0 routing_163799_422_0" vType="pkw" speedFactor="0.90" vaporized=""/>
    <tripinfo id="131243_409_0" depart="25248.00" departLane="-186623965#18_0" departPos="4.40" departSpeed="0.00" departDelay="0.00" arrival="25338.00" arrivalLane="-186623965#14_1" arrivalPos="159.69" arrivalSpeed="15.15" duration="90.00" routeLength="528.65" waitingTime="41.00" waitingCount="2" stopTime="0.00" timeLoss="56.52" rerouteNo="1" devices="tripinfo_131243_409_0 routing_131243_409_0" vType="pkw" speedFactor="1.17" vaporized=""/>
    <tripinfo id="91556_392_0" depart="25271.00" departLane="-23283579#1_0" departPos="4.40" departSpeed="0.00" departDelay="1.00" arrival="25340.00" arrivalLane="23840972_0" arrivalPos="97.66" arrivalSpeed="7.85" duration="69.00" routeLength="525.30" waitingTime="7.00" waitingCount="1" stopTime="0.00" timeLoss="22.28" rerouteNo="1" devices="tripinfo_91556_392_0 routing_91556_392_0" vType="pkw" speedFactor="1.00" vaporized=""/>
    <tripinfo id="171184_426_0" depart="25326.00" departLane="133081987#0_0" departPos="4.40" departSpeed="0.00" departDelay="0.00" arrival="25343.00" arrivalLane="23283436_0" arrivalPos="65.76" arrivalSpeed="12.88" duration="17.00" routeLength="154.99" waitingTime="0.00" waitingCount="0" stopTime="0.00" timeLoss="5.58" rerouteNo="0" devices="tripinfo_171184_426_0 routing_171184_426_0" vType="pkw" speedFactor="1.00" vaporized=""/>
    <tripinfo id="145282_416_0" depart="25259.00" departLane="186623965#9_0" departPos="4.40" departSpeed="0.00" departDelay="0.00" arrival="25345.00" arrivalLane="42925825#0_0" arrivalPos="254.17" arrivalSpeed="13.39" duration="86.00" routeLength="418.48" waitingTime="45.00" waitingCount="1" stopTime="0.00" timeLoss="55.44" rerouteNo="0" devices="tripinfo_145282_416_0 routing_145282_416_0" vType="pkw" speedFactor="0.99" vaporized=""/>
    <tripinfo id="145512_416_0" depart="25308.00" departLane="22917421#3_0" departPos="4.40" departSpeed="0.00" departDelay="0.00" arrival="25348.00" arrivalLane="186623965#17_0" arrivalPos="143.63" arrivalSpeed="14.12" duration="40.00" routeLength="257.42" waitingTime="10.00" waitingCount="1" stopTime="0.00" timeLoss="17.26" rerouteNo="0" devices="tripinfo_145512_416_0 routing_145512_416_0" vType="pkw" speedFactor="1.06" vaporized=""/>
    <tripinfo id="158885_421_0" depart="25220.00" departLane="22917421#3_0" departPos="4.40" departSpeed="0.00" departDelay="0.00" arrival="25351.00" arrivalLane="28675510#7_0" arrivalPos="257.94" arrivalSpeed="15.02" duration="131.00" routeLength="937.03" waitingTime="23.00" waitingCount="1" stopTime="0.00" timeLoss="41.12" rerouteNo="1" devices="tripinfo_158885_421_0 routing_158885_421_0" vType="pkw" speedFactor="1.11" vaporized=""/>
    <tripinfo id="127809_407_0" depart="25257.00" departLane="-23283579#1_0" departPos="4.40" departSpeed="0.00" departDelay="0.00" arrival="25351.00" arrivalLane="23285888#0_0" arrivalPos="109.58" arrivalSpeed="4.90" duration="94.00" routeLength="410.95" waitingTime="13.00" waitingCount="1" stopTime="0.00" timeLoss="29.69" rerouteNo="1" devices="tripinfo_127809_407_0 routing_127809_407_0" vType="pkw" speedFactor="0.70" vaporized=""/>
    <tripinfo id="152801_419_0" depart="25299.00" departLane="-297047307_0" departPos="4.40" departSpeed="0.00" departDelay="0.00" arrival="25352.00" arrivalLane="297047309#0_0" arrivalPos="91.17" arrivalSpeed="11.56" duration="53.00" routeLength="439.92" waitingTime="4.00" waitingCount="1" stopTime="0.00" timeLoss="15.33" rerouteNo="1" devices="tripinfo_152801_419_0 routing_152801_419_0" vType="pkw" speedFactor="0.85" vaporized=""/>
    <tripinfo id="163043_422_0" depart="25215.00" departLane="-28675510#11_0" departPos="4.40" departSpeed="0.00" departDelay="3.00" arrival="25355.00" arrivalLane="8716827#0_0" arrivalPos="109.12" arrivalSpeed="9.25" duration="140.00" routeLength="1154.53" waitingTime="40.00" waitingCount="1" stopTime="0.00" timeLoss="65.94" rerouteNo="1" devices="tripinfo_163043_422_0 routing_163043_422_0" vType="pkw" speedFactor="1.20" vaporized=""/>
    <tripinfo id="141355_415_0" depart="25232.00" departLane="-186623965#18_0" departPos="4.40" departSpeed="0.00" departDelay="0.00" arrival="25357.00" arrivalLane="42925825#0_0" arrivalPos="254.17" arrivalSpeed="10.88" duration="125.00" routeLength="625.62" waitingTime="51.00" waitingCount="3" stopTime="0.00" timeLoss="69.46" rerouteNo="1" devices="tripinfo_141355_415_0 routing_141355_415_0" vType="pkw" speedFactor="0.82" vaporized=""/>
    <tripinfo id="131071_409_0" depart="25236.00" departLane="-186623965#18_0" departPos="4.40" departSpeed="0.00" departDelay="0.00" arrival="25363.00" arrivalLane="42925825#0_0" arrivalPos="254.17" arrivalSpeed="13.39" duration="127.00" routeLength="625.62" waitingTime="56.00" waitingCount="3" stopTime="0.00" timeLoss="80.51" rerouteNo="1" devices="tripinfo_131071_409_0 routing_131071_409_0" vType="pkw" speedFactor="0.98" vaporized=""/>
    <tripinfo id="144017_416_0" depart="25348.00" departLane="-353069169#0_0" departPos="4.40" departSpeed="0.00" departDelay="0.00" arrival="25366.00" arrivalLane="323416262_0" arrivalPos="87.54" arrivalSpeed="15.20" duration="18.00" routeLength="175.35" waitingTime="0.00" waitingCount="0" stopTime="0.00" timeLoss="6.54" rerouteNo="0" devices="tripinfo_144017_416_0 routing_144017_416_0" vType="pkw" speedFactor="1.10" vaporized=""/>
    <tripinfo id="166776_424_0" depart="25208.00" departLane="-28675510#11_0" departPos="4.40" departSpeed="0.00" departDelay="0.00" arrival="25367.00" arrivalLane="-186623965#14_0" arrivalPos="159.69" arrivalSpeed="15.29" duration="159.00" routeLength="1202.17" waitingTime="32.00" waitingCount="2" stopTime="0.00" timeLoss="63.27" rerouteNo="1" devices="tripinfo_166776_424_0 routing_166776_424_0" vType="pkw" speedFactor="1.19" vaporized=""/>
    <tripinfo id="126698_407_0" depart="25242.00" departLane="-186623965#18_0" departPos="4.40" departSpeed="0.00" departDelay="1.00" arrival="25369.00" arrivalLane="42925825#0_0" arrivalPos="254.17" arrivalSpeed="15.46" duration="127.00" routeLength="625.62" waitingTime="53.00" waitingCount="5" stopTime="0.00" timeLoss="89.46" rerouteNo="1" devices="tripinfo_126698_407_0 routing_126698_407_0" vType="pkw" speedFactor="1.20" vaporized=""/>
    <tripinfo id="126900_407_0" depart="25239.00" departLane="-186623965#18_0" departPos="4.40" departSpeed="0.00" departDelay="0.00" arrival="25374.00" arrivalLane="42925825#0_0" arrivalPos="254.17" arrivalSpeed="14.81" duration="135.00" routeLength="625.62" waitingTime="56.00" waitingCount="4" stopTime="0.00" timeLoss="92.74" rerouteNo="1" devices="tripinfo_126900_407_0 routing_126900_407_0" vType="pkw" speedFactor="1.07" vaporized=""/>
    <tripinfo id="138639_413_0" depart="25314.00" departLane="186623965#9_0" departPos="4.40" departSpeed="0.00" departDelay="0.00" arrival="25377.00" arrivalLane="186623965#17_0" arrivalPos="143.63" arrivalSpeed="14.25" duration="63.00" routeLength="527.61" waitingTime="16.00" waitingCount="1" stopTime="0.00" timeLoss="28.85" rerouteNo="1" devices="tripinfo_138639_413_0 routing_138639_413_0" vType="pkw" speedFactor="1.12" vaporized=""/>
    <tripinfo id="161216_421_0" depart="25250.00" departLane="-186623965#18_0" departPos="4.40" departSpeed="0.00" departDelay="2.00" arrival="25380.00" arrivalLane="42925825#0_0" arrivalPos="254.17" arrivalSpeed="11.41" duration="130.00" routeLength="625.62" waitingTime="47.00" waitingCount="4" stopTime="0.00" timeLoss="80.00" rerouteNo="1" devices="tripinfo_161216_421_0 routing_161216_421_0" vType="pkw" speedFactor="0.91" vaporized=""/>
    <tripinfo id="129175_408_0" depart="25255.00" departLane="-23283579#1_0" departPos="4.40" departSpeed="0.00" departDelay="0.00" arrival="25380.00" arrivalLane="323450710#0_0" arrivalPos="95.59" arrivalSpeed="15.06" duration="125.00" routeLength="843.12" waitingTime="32.00" waitingCount="2" stopTime="0.00" timeLoss="53.76" rerouteNo="1" devices="tripinfo_129175_408_0 routing_129175_408_0" vType="pkw" speedFactor="1.11" vaporized=""/>
    <tripinfo id="147744_416_0" depart="25272.00" departLane="-186623965#18_0" departPos="4.40" departSpeed="0.00" departDelay="0.00" arrival="25381.00" arrivalLane="42925825#0_0" arrivalPos="254.17" arrivalSpeed="13.33" duration="109.00" routeLength="625.62" waitingTime="29.00" waitingCount="4" stopTime="0.00" timeLoss="65.27" rerouteNo="1" devices="tripinfo_147744_416_0 routing_147744_416_0" vType="pkw" speedFactor="1.04" vaporized=""/>
    <tripinfo id="158136_421_0" depart="25240.00" departLane="28675510#1_0" departPos="4.40" departSpeed="0.00" departDelay="0.00" arrival="25386.00" arrivalLane="323416262_0" arrivalPos="87.54" arrivalSpeed="11.86" duration="146.00" routeLength="1126.93" waitingTime="7.00" waitingCount="1" stopTime="0.00" timeLoss="28.16" rerouteNo="1" devices="tripinfo_158136_421_0 routing_158136_421_0" vType="pkw" speedFactor="0.89" vaporized=""/>
    <tripinfo id="134167_411_0" depart="25211.00" departLane="-23283579#1_0" departPos="4.40" departSpeed="0.00" departDelay="0.00" arrival="25389.00" arrivalLane="-186623965#14_0" arrivalPos="159.69" arrivalSpeed="14.58" duration="178.00" routeLength="1526.65" waitingTime="31.00" waitingCount="1" stopTime="0.00" timeLoss="62.87" rerouteNo="1" devices="tripinfo_134167_411_0 routing_134167_411_0" vType="pkw" speedFactor="1.12" vaporized=""/>
    <tripinfo id="108769_400_0" depart="25356.00" departLane="-186623965#18_0" departPos="4.40" departSpeed="0.00" departDelay="0.00" arrival="25390.00" arrivalLane="-22917421#4_0" arrivalPos="96.26" arrivalSpeed="7.00" duration="34.00" routeLength="263.02" waitingTime="0.00" waitingCount="0" stopTime="0.00" timeLoss="5.78" rerouteNo="0" devices="tripinfo_108769_400_0 routing_108769_400_0" vType="pkw" speedFactor="0.88" vaporized=""/>
    <tripinfo id="166783_424_0" depart="25349.00" departLane="22917421#3_0" departPos="4.40" departSpeed="0.00" departDelay="0.00" arrival="25393.00" arrivalLane="186623965#17_0" arrivalPos="143.63" arrivalSpeed="15.49" duration="44.00" routeLength="257.42" waitingTime="15.00" waitingCount="1" stopTime="0.00" timeLoss="23.82" rerouteNo="0" devices="tripinfo_166783_424_0 routing_166783_424_0" vType="pkw" speedFactor="1.20" vaporized=""/>
    <tripinfo id="124742_406_0" depart="25238.00" departLane="22917421#3_0" departPos="4.40" departSpeed="0.00" departDelay="2.00" arrival="25394.00" arrivalLane="28675493_0" arrivalPos="90.85" arrivalSpeed="12.50" duration="156.00" routeLength="1141.94" waitingTime="44.00" waitingCount="2" stopTime="0.00" timeLoss="61.89" rerouteNo="1" devices="tripinfo_124742_406_0 routing_124742_406_0" vType="pkw" speedFactor="0.92" vaporized=""/>
    <tripinfo id="120970_405_0" depart="25343.00" departLane="-23283579#1_0" departPos="4.40" departSpeed="0.00" departDelay="0.00" arrival="25396.00" arrivalLane="23283470#5_0" arrivalPos="89.27" arrivalSpeed="7.95" duration="53.00" routeLength="393.04" waitingTime="0.00" waitingCount="0" stopTime="0.00" timeLoss="10.18" rerouteNo="1" devices="tripinfo_120970_405_0 routing_120970_405_0" vType="pkw" speedFactor="1.00" vaporized=""/>
    <tripinfo id="96268_394_0" depart="25369.00" departLane="-186623965#18_0" departPos="4.40" departSpeed="0.00" departDelay="0.00" arrival="25399.00" arrivalLane="-22917421#4_0" arrivalPos="96.26" arrivalSpeed="7.31" duration="30.00" routeLength="263.02" waitingTime="0.00" waitingCount="0" stopTime="0.00" timeLoss="5.95" rerouteNo="0" devices="tripinfo_96268_394_0 routing_96268_394_0" vType="pkw" speedFactor="1.03" vaporized=""/>
    <tripinfo id="152887_419_0" depart="25229.00" departLane="-28675510#11_0" departPos="4.40" departSpeed="0.00" departDelay="0.00" arrival="25401.00" arrivalLane="8716827#0_0" arrivalPos="109.12" arrivalSpeed="6.82" duration="172.00" routeLength="1154.53" waitingTime="44.00" waitingCount="2" stopTime="0.00" timeLoss="69.98" rerouteNo="1" devices="tripinfo_152887_419_0 routing_152887_419_0" vType="pkw" speedFactor="0.87" vaporized=""/>
    <tripinfo id="139269_413_0" depart="25307.00" departLane="-23283579#1_0" departPos="4.40" departSpeed="0.00" departDelay="0.00" arrival="25401.00" arrivalLane="-297047308_0" arrivalPos="28.52" arrivalSpeed="11.08" duration="94.00" routeLength="517.28" waitingTime="6.00" waitingCount="3" stopTime="0.00" timeLoss="27.65" rerouteNo="1" devices="tripinfo_139269_413_0 routing_139269_413_0" vType="pkw" speedFactor="0.85" vaporized=""/>
    <tripinfo id="156485_420_0" depart="25205.00" departLane="22959552#0_0" departPos="4.40" departSpeed="0.00" departDelay="0.00" arrival="25408.00" arrivalLane="28675510#7_0" arrivalPos="257.94" arrivalSpeed="13.05" duration="203.00" routeLength="1112.54" waitingTime="77.00" waitingCount="2" stopTime="0.00" timeLoss="97.25" rerouteNo="1" devices="tripinfo_156485_420_0 routing_156485_420_0" vType="pkw" speedFactor="0.98" vaporized=""/>
    <tripinfo id="162890_422_0" depart="25264.00" departLane="8716807#1_0" departPos="4.40" departSpeed="0.00" departDelay="0.00" arrival="25410.00" arrivalLane="28675510#7_0" arrivalPos="257.94" arrivalSpeed="13.53" duration="146.00" routeLength="973.61" waitingTime="49.00" waitingCount="1" stopTime="0.00" timeLoss="64.26" rerouteNo="1" devices="tripinfo_162890_422_0 routing_162890_422_0" vType="pkw" speedFactor="1.06" vaporized=""/>
    <tripinfo id="122140_406_0" depart="25244.00" departLane="22917421#3_0" departPos="4.40" departSpeed="0.00" departDelay="0.00" arrival="25412.00" arrivalLane="23648008#2_0" arrivalPos="175.60" arrivalSpeed="15.99" duration="168.00" routeLength="1356.05" waitingTime="40.00" waitingCount="3" stopTime="0.00" timeLoss="80.02" rerouteNo="1" devices="tripinfo_122140_406_0 routing_122140_406_0" vType="pkw" speedFactor="1.16" vaporized=""/>
    <tripinfo id="159622_421_0" depart="25253.00" departLane="-186623965#18_0" departPos="4.40" departSpeed="0.00" departDelay="2.00" arrival="25412.00" arrivalLane="42925825#0_0" arrivalPos="254.17" arrivalSpeed="12.63" duration="159.00" routeLength="625.62" waitingTime="69.00" waitingCount="5" stopTime="0.00" timeLoss="113.49" rerouteNo="1" devices="tripinfo_159622_421_0 routing_159622_421_0" vType="pkw" speedFactor="1.00" vaporized=""/>
    <tripinfo id="164277_422_0" depart="25343.00" departLane="23285888#0_0" departPos="4.40" departSpeed="0.00" departDelay="0.00" arrival="25415.00" arrivalLane="297047309#0_0" arrivalPos="91.17" arrivalSpeed="12.29" duration="72.00" routeLength="518.80" waitingTime="2.00" waitingCount="1" stopTime="0.00" timeLoss="15.49" rerouteNo="1" devices="tripinfo_164277_422_0 routing_164277_422_0" vType="pkw" speedFactor="0.96" vaporized=""/>
    <tripinfo id="131237_409_0" depart="25228.00" departLane="-186623965#18_0" departPos="4.40" departSpeed="0.00" departDelay="0.00" arrival="25419.00" arrivalLane="297047309#0_0" arrivalPos="91.17" arrivalSpeed="15.18" duration="191.00" routeLength="1417.37" waitingTime="62.00" waitingCount="3" stopTime="0.00" timeLoss="99.51" rerouteNo="1" devices="tripinfo_131237_409_0 routing_131237_409_0" vType="pkw" speedFactor="1.12" vaporized=""/>
    <tripinfo id="171749_426_0" depart="25314.00" departLane="-23283579#1_0" departPos="4.40" departSpeed="0.00" departDelay="0.00" arrival="25419.00" arrivalLane="-297047309#0_0" arrivalPos="91.17" arrivalSpeed="13.80" duration="105.00" routeLength="752.04" waitingTime="1.00" waitingCount="1" stopTime="0.00" timeLoss="33.53" rerouteNo="1" devices="tripinfo_171749_426_0 routing_171749_426_0" vType="pkw" speedFactor="1.02" vaporized=""/>
    <tripinfo id="84611_390_0" depart="25261.00" departLane="-23283579#1_0" departPos="4.40" departSpeed="0.00" departDelay="0.00" arrival="25422.00" arrivalLane="-23648008#0_0" arrivalPos="75.90" arrivalSpeed="5.02" duration="161.00" routeLength="782.02" waitingTime="29.00" waitingCount="3" stopTime="0.00" timeLoss="58.25" rerouteNo="1" devices="tripinfo_84611_390_0 routing_84611_390_0" vType="pkw" speedFactor="0.73" vaporized=""/>