<?xml version="1.0" encoding="UTF-8"?>

<!-- generated on 2023-08-31 13:46:00 by Eclipse SUMO libsumo Version 1.18.0
<configuration xmlns:xsi="http://www.w3.org/2001/XMLSchema-instance" xsi:noNamespaceSchemaLocation="http://sumo.dlr.de/xsd/libsumoConfiguration.xsd">

    <input>
        <net-file value="/home/stefan/RESCO/./environments/cologne3/cologne3.net.xml"/>
        <route-files value="/home/stefan/RESCO/./environments/cologne3/cologne3.rou.xml"/>
    </input>

    <output>
        <tripinfo-output value="/home/stefan/results/RAINBOW-tr0-cologne3-0-drq_norm-wait_norm/tripinfo_85.xml"/>
        <tripinfo-output.write-unfinished value="true"/>
    </output>

    <time>
        <begin value="25200"/>
        <end value="28800"/>
    </time>

    <processing>
        <time-to-teleport value="-1"/>
    </processing>

    <report>
        <no-warnings value="True"/>
        <no-step-log value="True"/>
    </report>

    <random_number>
        <random value="true"/>
    </random_number>

</configuration>
-->

<tripinfos xmlns:xsi="http://www.w3.org/2001/XMLSchema-instance" xsi:noNamespaceSchemaLocation="http://sumo.dlr.de/xsd/tripinfo_file.xsd">
    <tripinfo id="169122_425_0" depart="25229.00" departLane="-4999334_0" departPos="4.40" departSpeed="0.00" departDelay="1.00" arrival="25252.00" arrivalLane="-4999334_0" arrivalPos="293.22" arrivalSpeed="15.10" duration="23.00" routeLength="288.82" waitingTime="0.00" waitingCount="0" stopTime="0.00" timeLoss="3.78" rerouteNo="0" devices="tripinfo_169122_425_0" vType="pkw" speedFactor="1.10" vaporized=""/>
    <tripinfo id="132667_410_0" depart="25212.00" departLane="-31800061#0_0" departPos="4.40" departSpeed="0.00" departDelay="0.00" arrival="25255.00" arrivalLane="-4999334_0" arrivalPos="293.22" arrivalSpeed="15.63" duration="43.00" routeLength="492.72" waitingTime="0.00" waitingCount="0" stopTime="0.00" timeLoss="8.09" rerouteNo="0" devices="tripinfo_132667_410_0" vType="pkw" speedFactor="1.19" vaporized=""/>
    <tripinfo id="68266_381_0" depart="25229.00" departLane="4045329#5_0" departPos="4.40" departSpeed="0.00" departDelay="0.00" arrival="25261.00" arrivalLane="41910185#0_0" arrivalPos="127.86" arrivalSpeed="6.83" duration="32.00" routeLength="267.37" waitingTime="0.00" waitingCount="0" stopTime="0.00" timeLoss="4.65" rerouteNo="0" devices="tripinfo_68266_381_0" vType="pkw" speedFactor="0.97" vaporized=""/>
    <tripinfo id="141383_415_0" depart="25216.00" departLane="41910184_0" departPos="4.40" departSpeed="0.00" departDelay="0.00" arrival="25266.00" arrivalLane="4145589#0_0" arrivalPos="149.75" arrivalSpeed="5.94" duration="50.00" routeLength="368.38" waitingTime="0.00" waitingCount="0" stopTime="0.00" timeLoss="7.23" rerouteNo="0" devices="tripinfo_141383_415_0" vType="pkw" speedFactor="0.80" vaporized=""/>
    <tripinfo id="140163_414_0" depart="25244.00" departLane="241660955#13_0" departPos="4.40" departSpeed="0.00" departDelay="0.00" arrival="25266.00" arrivalLane="-41910184_0" arrivalPos="185.90" arrivalSpeed="11.48" duration="22.00" routeLength="216.76" waitingTime="0.00" waitingCount="0" stopTime="0.00" timeLoss="3.61" rerouteNo="0" devices="tripinfo_140163_414_0" vType="pkw" speedFactor="0.85" vaporized=""/>
    <tripinfo id="140878_414_0" depart="25231.00" departLane="-130160207#0_0" departPos="4.40" departSpeed="0.00" departDelay="0.00" arrival="25270.00" arrivalLane="241660955#17_0" arrivalPos="110.13" arrivalSpeed="12.92" duration="39.00" routeLength="250.75" waitingTime="7.00" waitingCount="1" stopTime="0.00" timeLoss="13.38" rerouteNo="0" devices="tripinfo_140878_414_0" vType="pkw" speedFactor="0.96" vaporized=""/>
    <tripinfo id="131963_410_0" depart="25223.00" departLane="-31800061#0_0" departPos="4.40" departSpeed="0.00" departDelay="0.00" arrival="25271.00" arrivalLane="-4999334_0" arrivalPos="293.22" arrivalSpeed="12.65" duration="48.00" routeLength="492.72" waitingTime="0.00" waitingCount="0" stopTime="0.00" timeLoss="5.79" rerouteNo="0" devices="tripinfo_131963_410_0" vType="pkw" speedFactor="0.97" vaporized=""/>
    <tripinfo id="81370_389_0" depart="25231.00" departLane="4045329#5_0" departPos="4.40" departSpeed="0.00" departDelay="0.00" arrival="25272.00" arrivalLane="-4045330_0" arrivalPos="128.76" arrivalSpeed="7.27" duration="41.00" routeLength="329.66" waitingTime="0.00" waitingCount="0" stopTime="0.00" timeLoss="6.14" rerouteNo="0" devices="tripinfo_81370_389_0" vType="pkw" speedFactor="0.89" vaporized=""/>
    <tripinfo id="98545_395_0" depart="25206.00" departLane="4045330_0" departPos="4.40" departSpeed="0.00" departDelay="0.00" arrival="25275.00" arrivalLane="241660955#17_1" arrivalPos="110.13" arrivalSpeed="13.45" duration="69.00" routeLength="473.04" waitingTime="17.00" waitingCount="1" stopTime="0.00" timeLoss="27.36" rerouteNo="0" devices="tripinfo_98545_395_0" vType="pkw" speedFactor="0.98" vaporized=""/>
    <tripinfo id="160296_421_0" depart="25211.00" departLane="241660955#13_0" departPos="4.40" departSpeed="0.00" departDelay="0.00" arrival="25275.00" arrivalLane="241660955#17_0" arrivalPos="110.13" arrivalSpeed="13.26" duration="64.00" routeLength="247.24" waitingTime="36.00" waitingCount="1" stopTime="0.00" timeLoss="45.32" rerouteNo="0" devices="tripinfo_160296_421_0" vType="pkw" speedFactor="0.97" vaporized=""/>
    <tripinfo id="163719_422_0" depart="25211.00" departLane="4045330_0" departPos="4.40" departSpeed="0.00" departDelay="0.00" arrival="25279.00" arrivalLane="241660955#17_0" arrivalPos="110.13" arrivalSpeed="10.48" duration="68.00" routeLength="473.04" waitingTime="6.00" waitingCount="1" stopTime="0.00" timeLoss="17.99" rerouteNo="0" devices="tripinfo_163719_422_0" vType="pkw" speedFactor="0.81" vaporized=""/>
    <tripinfo id="85241_390_0" depart="25242.00" departLane="41910184_0" departPos="4.40" departSpeed="0.00" departDelay="0.00" arrival="25283.00" arrivalLane="241660955#17_1" arrivalPos="110.13" arrivalSpeed="13.10" duration="41.00" routeLength="451.07" waitingTime="0.00" waitingCount="0" stopTime="0.00" timeLoss="7.22" rerouteNo="0" devices="tripinfo_85241_390_0" vType="pkw" speedFactor="0.97" vaporized=""/>
    <tripinfo id="111993_401_0" depart="25251.00" departLane="4045329#5_0" departPos="4.40" departSpeed="0.00" departDelay="0.00" arrival="25283.00" arrivalLane="41910185#0_0" arrivalPos="127.86" arrivalSpeed="7.94" duration="32.00" routeLength="267.37" waitingTime="0.00" waitingCount="0" stopTime="0.00" timeLoss="4.61" rerouteNo="0" devices="tripinfo_111993_401_0" vType="pkw" speedFactor="0.96" vaporized=""/>
    <tripinfo id="132705_410_0" depart="25200.00" departLane="-5229966#3_0" departPos="4.40" departSpeed="0.00" departDelay="0.00" arrival="25284.00" arrivalLane="4045332#0_0" arrivalPos="114.41" arrivalSpeed="5.58" duration="84.00" routeLength="720.54" waitingTime="0.00" waitingCount="0" stopTime="0.00" timeLoss="7.96" rerouteNo="0" devices="tripinfo_132705_410_0" vType="pkw" speedFactor="0.76" vaporized=""/>
    <tripinfo id="166826_424_0" depart="25240.00" departLane="41910184_0" departPos="4.40" departSpeed="0.00" departDelay="0.00" arrival="25288.00" arrivalLane="4145589#0_0" arrivalPos="149.75" arrivalSpeed="6.46" duration="48.00" routeLength="368.38" waitingTime="0.00" waitingCount="0" stopTime="0.00" timeLoss="6.63" rerouteNo="0" devices="tripinfo_166826_424_0" vType="pkw" speedFactor="0.83" vaporized=""/>
    <tripinfo id="161578_421_0" depart="25264.00" departLane="-4999334_0" departPos="4.40" departSpeed="0.00" departDelay="1.00" arrival="25288.00" arrivalLane="-4999334_0" arrivalPos="293.22" arrivalSpeed="13.41" duration="24.00" routeLength="288.82" waitingTime="0.00" waitingCount="0" stopTime="0.00" timeLoss="4.15" rerouteNo="0" devices="tripinfo_161578_421_0" vType="pkw" speedFactor="1.06" vaporized=""/>
    <tripinfo id="168647_425_0" depart="25267.00" departLane="-4999334_0" departPos="4.40" departSpeed="0.00" departDelay="1.00" arrival="25290.00" arrivalLane="-4999334_0" arrivalPos="293.22" arrivalSpeed="15.05" duration="23.00" routeLength="288.82" waitingTime="0.00" waitingCount="0" stopTime="0.00" timeLoss="3.98" rerouteNo="0" devices="tripinfo_168647_425_0" vType="pkw" speedFactor="1.11" vaporized=""/>
    <tripinfo id="141513_415_0" depart="25233.00" departLane="4999334_0" departPos="4.40" departSpeed="0.00" departDelay="0.00" arrival="25291.00" arrivalLane="4145590#0_1" arrivalPos="95.58" arrivalSpeed="12.54" duration="58.00" routeLength="615.60" waitingTime="1.00" waitingCount="1" stopTime="0.00" timeLoss="12.55" rerouteNo="0" devices="tripinfo_141513_415_0" vType="pkw" speedFactor="0.98" vaporized=""/>
    <tripinfo id="137478_412_0" depart="25248.00" departLane="4045330_0" departPos="4.40" departSpeed="0.00" departDelay="0.00" arrival="25291.00" arrivalLane="241660955#17_0" arrivalPos="110.13" arrivalSpeed="14.61" duration="43.00" routeLength="473.04" waitingTime="0.00" waitingCount="0" stopTime="0.00" timeLoss="5.68" rerouteNo="0" devices="tripinfo_137478_412_0" vType="pkw" speedFactor="1.09" vaporized=""/>
    <tripinfo id="100301_396_0" depart="25260.00" departLane="-241660955#17_0" departPos="4.40" departSpeed="0.00" departDelay="0.00" arrival="25294.00" arrivalLane="130160207#0_0" arrivalPos="135.18" arrivalSpeed="9.09" duration="34.00" routeLength="257.86" waitingTime="1.00" waitingCount="1" stopTime="0.00" timeLoss="10.33" rerouteNo="0" devices="tripinfo_100301_396_0" vType="pkw" speedFactor="1.11" vaporized=""/>
    <tripinfo id="79538_387_0" depart="25217.00" departLane="-5229966#3_0" departPos="4.40" departSpeed="0.00" departDelay="2.00" arrival="25295.00" arrivalLane="4999331#0_0" arrivalPos="373.64" arrivalSpeed="12.34" duration="78.00" routeLength="731.93" waitingTime="7.00" waitingCount="1" stopTime="0.00" timeLoss="21.50" rerouteNo="0" devices="tripinfo_79538_387_0" vType="pkw" speedFactor="0.94" vaporized=""/>
    <tripinfo id="160813_421_0" depart="25253.00" departLane="41910184_0" departPos="4.40" departSpeed="0.00" departDelay="0.00" arrival="25298.00" arrivalLane="4145589#0_0" arrivalPos="149.75" arrivalSpeed="7.43" duration="45.00" routeLength="368.38" waitingTime="2.00" waitingCount="1" stopTime="0.00" timeLoss="11.31" rerouteNo="0" devices="tripinfo_160813_421_0" vType="pkw" speedFactor="1.03" vaporized=""/>
    <tripinfo id="76573_386_0" depart="25275.00" departLane="-241660955#17_0" departPos="4.40" departSpeed="0.00" departDelay="0.00" arrival="25305.00" arrivalLane="130160207#0_0" arrivalPos="135.18" arrivalSpeed="8.50" duration="30.00" routeLength="257.86" waitingTime="0.00" waitingCount="0" stopTime="0.00" timeLoss="6.79" rerouteNo="0" devices="tripinfo_76573_386_0" vType="pkw" speedFactor="1.12" vaporized=""/>
    <tripinfo id="153005_419_0" depart="25270.00" departLane="41910184_0" departPos="4.40" departSpeed="0.00" departDelay="0.00" arrival="25306.00" arrivalLane="4145589#0_0" arrivalPos="149.75" arrivalSpeed="9.97" duration="36.00" routeLength="368.38" waitingTime="0.00" waitingCount="0" stopTime="0.00" timeLoss="8.41" rerouteNo="0" devices="tripinfo_153005_419_0" vType="pkw" speedFactor="1.24" vaporized=""/>
    <tripinfo id="67548_381_0" depart="25289.00" departLane="-41910185#2_0" departPos="4.40" departSpeed="0.00" departDelay="1.00" arrival="25313.00" arrivalLane="241660955#10_0" arrivalPos="56.57" arrivalSpeed="13.81" duration="24.00" routeLength="191.84" waitingTime="0.00" waitingCount="0" stopTime="0.00" timeLoss="6.12" rerouteNo="0" devices="tripinfo_67548_381_0" vType="pkw" speedFactor="1.14" vaporized=""/>
    <tripinfo id="104671_398_0" depart="25286.00" departLane="-41910185#2_0" departPos="4.40" departSpeed="0.00" departDelay="0.00" arrival="25318.00" arrivalLane="241660955#11_0" arrivalPos="73.18" arrivalSpeed="12.17" duration="32.00" routeLength="279.28" waitingTime="0.00" waitingCount="0" stopTime="0.00" timeLoss="3.77" rerouteNo="0" devices="tripinfo_104671_398_0" vType="pkw" speedFactor="0.92" vaporized=""/>
    <tripinfo id="173932_427_0" depart="25275.00" departLane="-41910185#2_0" departPos="4.40" departSpeed="0.00" departDelay="0.00" arrival="25322.00" arrivalLane="241660955#17_0" arrivalPos="110.13" arrivalSpeed="13.98" duration="47.00" routeLength="545.38" waitingTime="0.00" waitingCount="0" stopTime="0.00" timeLoss="4.32" rerouteNo="0" devices="tripinfo_173932_427_0" vType="pkw" speedFactor="1.08" vaporized=""/>
    <tripinfo id="171899_426_0" depart="25303.00" departLane="-41910185#2_0" departPos="4.40" departSpeed="0.00" departDelay="0.00" arrival="25329.00" arrivalLane="-4045329#5_0" arrivalPos="121.37" arrivalSpeed="14.64" duration="26.00" routeLength="266.80" waitingTime="0.00" waitingCount="0" stopTime="0.00" timeLoss="3.87" rerouteNo="0" devices="tripinfo_171899_426_0" vType="pkw" speedFactor="1.13" vaporized=""/>
    <tripinfo id="144088_416_0" depart="25303.00" departLane="241660955#6_0" departPos="4.40" departSpeed="0.00" departDelay="0.00" arrival="25333.00" arrivalLane="-4999334_0" arrivalPos="293.22" arrivalSpeed="13.59" duration="30.00" routeLength="357.51" waitingTime="0.00" waitingCount="0" stopTime="0.00" timeLoss="4.65" rerouteNo="0" devices="tripinfo_144088_416_0" vType="pkw" speedFactor="1.04" vaporized=""/>
    <tripinfo id="163684_422_0" depart="25294.00" departLane="4045330_0" departPos="4.40" departSpeed="0.00" departDelay="0.00" arrival="25340.00" arrivalLane="241660955#17_0" arrivalPos="110.13" arrivalSpeed="14.46" duration="46.00" routeLength="473.04" waitingTime="0.00" waitingCount="0" stopTime="0.00" timeLoss="9.07" rerouteNo="0" devices="tripinfo_163684_422_0" vType="pkw" speedFactor="1.10" vaporized=""/>
    <tripinfo id="101678_396_0" depart="25320.00" departLane="-41910185#2_0" departPos="4.40" departSpeed="0.00" departDelay="0.00" arrival="25349.00" arrivalLane="-4045329#5_0" arrivalPos="121.37" arrivalSpeed="13.89" duration="29.00" routeLength="266.80" waitingTime="0.00" waitingCount="0" stopTime="0.00" timeLoss="3.78" rerouteNo="0" devices="tripinfo_101678_396_0" vType="pkw" speedFactor="1.03" vaporized=""/>
    <tripinfo id="147727_416_0" depart="25301.00" departLane="41910184_0" departPos="4.40" departSpeed="0.00" departDelay="0.00" arrival="25350.00" arrivalLane="4145589#0_0" arrivalPos="149.75" arrivalSpeed="6.48" duration="49.00" routeLength="368.38" waitingTime="1.00" waitingCount="1" stopTime="0.00" timeLoss="11.45" rerouteNo="0" devices="tripinfo_147727_416_0" vType="pkw" speedFactor="0.91" vaporized=""/>
    <tripinfo id="162714_422_0" depart="25301.00" departLane="4999334_0" departPos="4.40" departSpeed="0.00" departDelay="0.00" arrival="25350.00" arrivalLane="-4999334_0" arrivalPos="293.22" arrivalSpeed="13.84" duration="49.00" routeLength="586.71" waitingTime="0.00" waitingCount="0" stopTime="0.00" timeLoss="5.74" rerouteNo="0" devices="tripinfo_162714_422_0" vType="pkw" speedFactor="1.00" vaporized=""/>
    <tripinfo id="149020_417_0" depart="25323.00" departLane="4999331#0_0" departPos="4.40" departSpeed="0.00" departDelay="0.00" arrival="25355.00" arrivalLane="4999331#0_0" arrivalPos="373.64" arrivalSpeed="13.04" duration="32.00" routeLength="369.24" waitingTime="0.00" waitingCount="0" stopTime="0.00" timeLoss="4.23" rerouteNo="0" devices="tripinfo_149020_417_0" vType="pkw" speedFactor="0.98" vaporized=""/>
    <tripinfo id="158960_421_0" depart="25321.00" departLane="4045330_0" departPos="4.40" departSpeed="0.00" departDelay="0.00" arrival="25359.00" arrivalLane="241660955#17_0" arrivalPos="110.13" arrivalSpeed="17.14" duration="38.00" routeLength="473.04" waitingTime="0.00" waitingCount="0" stopTime="0.00" timeLoss="5.10" rerouteNo="0" devices="tripinfo_158960_421_0" vType="pkw" speedFactor="1.25" vaporized=""/>
    <tripinfo id="81323_389_0" depart="25329.00" departLane="41910186_0" departPos="4.40" departSpeed="0.00" departDelay="2.00" arrival="25359.00" arrivalLane="41910186_0" arrivalPos="324.91" arrivalSpeed="11.94" duration="30.00" routeLength="320.51" waitingTime="0.00" waitingCount="0" stopTime="0.00" timeLoss="4.45" rerouteNo="0" devices="tripinfo_81323_389_0" vType="pkw" speedFactor="0.93" vaporized=""/>
    <tripinfo id="139565_413_0" depart="25322.00" departLane="-31800061#0_0" departPos="4.40" departSpeed="0.00" departDelay="0.00" arrival="25377.00" arrivalLane="-41910186_0" arrivalPos="324.50" arrivalSpeed="10.64" duration="55.00" routeLength="450.16" waitingTime="0.00" waitingCount="0" stopTime="0.00" timeLoss="6.26" rerouteNo="0" devices="tripinfo_139565_413_0" vType="pkw" speedFactor="0.78" vaporized=""/>
    <tripinfo id="167856_425_0" depart="25331.00" departLane="41910184_0" departPos="4.40" departSpeed="0.00" departDelay="0.00" arrival="25378.00" arrivalLane="4145589#0_0" arrivalPos="149.75" arrivalSpeed="6.52" duration="47.00" routeLength="368.38" waitingTime="0.00" waitingCount="0" stopTime="0.00" timeLoss="8.02" rerouteNo="0" devices="tripinfo_167856_425_0" vType="pkw" speedFactor="0.89" vaporized=""/>
    <tripinfo id="145057_416_0" depart="25346.00" departLane="241660955#6_0" departPos="4.40" departSpeed="0.00" departDelay="0.00" arrival="25378.00" arrivalLane="-4999334_0" arrivalPos="293.22" arrivalSpeed="12.82" duration="32.00" routeLength="357.51" waitingTime="0.00" waitingCount="0" stopTime="0.00" timeLoss="3.76" rerouteNo="0" devices="tripinfo_145057_416_0" vType="pkw" speedFactor="0.92" vaporized=""/>
    <tripinfo id="141002_414_0" depart="25348.00" departLane="-241660955#17_0" departPos="4.40" departSpeed="0.00" departDelay="1.00" arrival="25380.00" arrivalLane="130160207#0_0" arrivalPos="135.18" arrivalSpeed="7.71" duration="32.00" routeLength="257.86" waitingTime="0.00" waitingCount="0" stopTime="0.00" timeLoss="6.57" rerouteNo="0" devices="tripinfo_141002_414_0" vType="pkw" speedFactor="1.02" vaporized=""/>
    <tripinfo id="111594_401_0" depart="25354.00" departLane="-41910185#2_0" departPos="4.40" departSpeed="0.00" departDelay="0.00" arrival="25383.00" arrivalLane="-4045329#5_0" arrivalPos="121.37" arrivalSpeed="13.78" duration="29.00" routeLength="266.80" waitingTime="0.00" waitingCount="0" stopTime="0.00" timeLoss="4.07" rerouteNo="0" devices="tripinfo_111594_401_0" vType="pkw" speedFactor="1.05" vaporized=""/>
    <tripinfo id="125105_406_0" depart="25345.00" departLane="-241660955#17_0" departPos="4.40" departSpeed="0.00" departDelay="0.00" arrival="25384.00" arrivalLane="-41910184_0" arrivalPos="185.90" arrivalSpeed="12.37" duration="39.00" routeLength="442.68" waitingTime="0.00" waitingCount="0" stopTime="0.00" timeLoss="5.35" rerouteNo="0" devices="tripinfo_125105_406_0" vType="pkw" speedFactor="0.96" vaporized=""/>
    <tripinfo id="134587_411_0" depart="25351.00" departLane="-241660955#17_0" departPos="4.40" departSpeed="0.00" departDelay="2.00" arrival="25388.00" arrivalLane="-41910184_0" arrivalPos="185.90" arrivalSpeed="12.54" duration="37.00" routeLength="442.68" waitingTime="0.00" waitingCount="0" stopTime="0.00" timeLoss="4.27" rerouteNo="0" devices="tripinfo_134587_411_0" vType="pkw" speedFactor="0.97" vaporized=""/>
    <tripinfo id="163598_422_0" depart="25236.00" departLane="-130160207#0_0" departPos="4.40" departSpeed="0.00" departDelay="0.00" arrival="25391.00" arrivalLane="241660955#17_0" arrivalPos="110.13" arrivalSpeed="13.39" duration="155.00" routeLength="250.75" waitingTime="120.00" waitingCount="2" stopTime="0.00" timeLoss="130.96" rerouteNo="0" devices="tripinfo_163598_422_0" vType="pkw" speedFactor="1.05" vaporized=""/>
    <tripinfo id="162626_422_0" depart="25367.00" departLane="-41910185#2_0" departPos="4.40" departSpeed="0.00" departDelay="0.00" arrival="25397.00" arrivalLane="-4045329#5_0" arrivalPos="121.37" arrivalSpeed="13.13" duration="30.00" routeLength="266.80" waitingTime="0.00" waitingCount="0" stopTime="0.00" timeLoss="4.20" rerouteNo="0" devices="tripinfo_162626_422_0" vType="pkw" speedFactor="0.98" vaporized=""/>
    <tripinfo id="159648_421_0" depart="25358.00" departLane="-241660955#17_0" departPos="4.40" departSpeed="0.00" departDelay="0.00" arrival="25399.00" arrivalLane="-41910184_0" arrivalPos="185.90" arrivalSpeed="12.32" duration="41.00" routeLength="442.68" waitingTime="0.00" waitingCount="0" stopTime="0.00" timeLoss="4.86" rerouteNo="0" devices="tripinfo_159648_421_0" vType="pkw" speedFactor="0.91" vaporized=""/>
    <tripinfo id="143018_415_0" depart="25340.00" departLane="-41910185#2_0" departPos="4.40" departSpeed="0.00" departDelay="0.00" arrival="25405.00" arrivalLane="241660955#17_0" arrivalPos="110.13" arrivalSpeed="14.50" duration="65.00" routeLength="545.38" waitingTime="11.00" waitingCount="1" stopTime="0.00" timeLoss="22.24" rerouteNo="0" devices="tripinfo_143018_415_0" vType="pkw" speedFactor="1.08" vaporized=""/>
    <tripinfo id="136360_411_0" depart="25385.00" departLane="-31800061#0_0" departPos="4.40" departSpeed="0.00" departDelay="0.00" arrival="25406.00" arrivalLane="241660955#4_0" arrivalPos="66.03" arrivalSpeed="13.98" duration="21.00" routeLength="182.28" waitingTime="0.00" waitingCount="0" stopTime="0.00" timeLoss="3.43" rerouteNo="0" devices="tripinfo_136360_411_0" vType="pkw" speedFactor="1.04" vaporized=""/>
    <tripinfo id="152489_419_0" depart="25386.00" departLane="-41910185#2_0" departPos="4.40" departSpeed="0.00" departDelay="0.00" arrival="25412.00" arrivalLane="-4045329#5_0" arrivalPos="121.37" arrivalSpeed="16.33" duration="26.00" routeLength="266.80" waitingTime="0.00" waitingCount="0" stopTime="0.00" timeLoss="3.73" rerouteNo="0" devices="tripinfo_152489_419_0" vType="pkw" speedFactor="1.18" vaporized=""/>
    <tripinfo id="141257_415_0" depart="25358.00" departLane="41910184_0" departPos="4.40" departSpeed="0.00" departDelay="0.00" arrival="25415.00" arrivalLane="130160207#0_0" arrivalPos="135.18" arrivalSpeed="7.37" duration="57.00" routeLength="470.65" waitingTime="5.00" waitingCount="1" stopTime="0.00" timeLoss="16.25" rerouteNo="0" devices="tripinfo_141257_415_0" vType="pkw" speedFactor="1.02" vaporized=""/>
    <tripinfo id="150954_418_0" depart="25249.00" departLane="-130160207#0_0" departPos="4.40" departSpeed="0.00" departDelay="0.00" arrival="25418.00" arrivalLane="-41910184_0" arrivalPos="185.90" arrivalSpeed="12.67" duration="169.00" routeLength="470.87" waitingTime="114.00" waitingCount="2" stopTime="0.00" timeLoss="126.90" rerouteNo="0" devices="tripinfo_150954_418_0" vType="pkw" speedFactor="0.96" vaporized=""/>
    <tripinfo id="163366_422_0" depart="25253.00" departLane="-130160207#0_0" departPos="4.40" departSpeed="0.00" departDelay="0.00" arrival="25421.00" arrivalLane="241660955#17_0" arrivalPos="110.13" arrivalSpeed="12.10" duration="168.00" routeLength="250.75" waitingTime="125.00" waitingCount="3" stopTime="0.00" timeLoss="142.07" rerouteNo="0" devices="tripinfo_163366_422_0" vType="pkw" speedFactor="0.96" vaporized=""/>
    <tripinfo id="111902_401_0" depart="25381.00" departLane="-241660955#17_0" departPos="4.40" departSpeed="0.00" departDelay="0.00" arrival="25423.00" arrivalLane="-41910184_0" arrivalPos="185.90" arrivalSpeed="11.71" duration="42.00" routeLength="442.68" waitingTime="0.00" waitingCount="0" stopTime="0.00" timeLoss="4.62" rerouteNo="0" devices="tripinfo_111902_401_0" vType="pkw" speedFactor="0.86" vaporized=""/>
    <tripinfo id="143740_416_0" depart="25408.00" departLane="-41910184_0" departPos="4.40" departSpeed="0.00" departDelay="0.00" arrival="25427.00" arrivalLane="-41910184_0" arrivalPos="185.90" arrivalSpeed="11.11" duration="19.00" routeLength="181.50" waitingTime="0.00" waitingCount="0" stopTime="0.00" timeLoss="3.65" rerouteNo="0" devices="tripinfo_143740_416_0" vType="pkw" speedFactor="0.88" vaporized=""/>
    <tripinfo id="155750_420_0" depart="25256.00" departLane="-130160207#0_0" departPos="4.40" departSpeed="0.00" departDelay="0.00" arrival="25430.00" arrivalLane="241660955#17_0" arrivalPos="110.13" arrivalSpeed="13.83" duration="174.00" routeLength="250.75" waitingTime="129.00" waitingCount="4" stopTime="0.00" timeLoss="149.94" rerouteNo="0" devices="tripinfo_155750_420_0" vType="pkw" speedFactor="1.03" vaporized=""/>
    <tripinfo id="113109_402_0" depart="25203.00" departLane="4999334_0" departPos="4.40" departSpeed="0.00" departDelay="0.00" arrival="25445.00" arrivalLane="-31864804_0" arrivalPos="70.23" arrivalSpeed="14.10" duration="242.00" routeLength="615.92" waitingTime="186.00" waitingCount="1" stopTime="0.00" timeLoss="197.72" rerouteNo="0" devices="tripinfo_113109_402_0" vType="pkw" speedFactor="1.02" vaporized=""/>
    <tripinfo id="173102_427_0" depart="25405.00" departLane="4045330_0" departPos="4.40" departSpeed="0.00" departDelay="0.00" arrival="25445.00" arrivalLane="-41910184_0" arrivalPos="185.90" arrivalSpeed="15.16" duration="40.00" routeLength="409.76" waitingTime="0.00" waitingCount="0" stopTime="0.00" timeLoss="7.57" rerouteNo="0" devices="tripinfo_173102_427_0" vType="pkw" speedFactor="1.12" vaporized=""/>
    <tripinfo id="118681_405_0" depart="25237.00" departLane="4999334_0" departPos="4.40" departSpeed="0.00" departDelay="0.00" arrival="25446.00" arrivalLane="-31864804_1" arrivalPos="70.23" arrivalSpeed="8.89" duration="209.00" routeLength="615.92" waitingTime="149.00" waitingCount="1" stopTime="0.00" timeLoss="163.08" rerouteNo="0" devices="tripinfo_118681_405_0" vType="pkw" speedFactor="0.97" vaporized=""/>
    <tripinfo id="165473_423_0" depart="25267.00" departLane="41910186_0" departPos="4.40" departSpeed="0.00" departDelay="0.00" arrival="25447.00" arrivalLane="-31864804_0" arrivalPos="70.23" arrivalSpeed="13.76" duration="180.00" routeLength="565.92" waitingTime="125.00" waitingCount="1" stopTime="0.00" timeLoss="139.00" rerouteNo="0" devices="tripinfo_165473_423_0" vType="pkw" speedFactor="1.01" vaporized=""/>
    <tripinfo id="163790_422_0" depart="25264.00" departLane="-130160207#0_0" departPos="4.40" departSpeed="0.00" departDelay="0.00" arrival="25448.00" arrivalLane="130160207#0_0" arrivalPos="135.18" arrivalSpeed="7.40" duration="184.00" routeLength="270.63" waitingTime="128.00" waitingCount="5" stopTime="0.00" timeLoss="150.83" rerouteNo="0" devices="tripinfo_163790_422_0" vType="pkw" speedFactor="0.98" vaporized=""/>
    <tripinfo id="158131_421_0" depart="25428.00" departLane="241660955#13_0" departPos="4.40" departSpeed="0.00" departDelay="0.00" arrival="25448.00" arrivalLane="-41910184_0" arrivalPos="185.90" arrivalSpeed="12.22" duration="20.00" routeLength="216.76" waitingTime="0.00" waitingCount="0" stopTime="0.00" timeLoss="3.55" rerouteNo="0" devices="tripinfo_158131_421_0" vType="pkw" speedFactor="0.97" vaporized=""/>
    <tripinfo id="164227_422_0" depart="25285.00" departLane="4999334_0" departPos="4.40" departSpeed="0.00" departDelay="0.00" arrival="25449.00" arrivalLane="-31864804_0" arrivalPos="70.23" arrivalSpeed="11.34" duration="164.00" routeLength="615.92" waitingTime="102.00" waitingCount="1" stopTime="0.00" timeLoss="114.95" rerouteNo="0" devices="tripinfo_164227_422_0" vType="pkw" speedFactor="0.91" vaporized=""/>
    <tripinfo id="149951_417_0" depart="25274.00" departLane="-130160207#0_0" departPos="4.40" departSpeed="0.00" departDelay="0.00" arrival="25451.00" arrivalLane="241660955#17_0" arrivalPos="110.13" arrivalSpeed="12.71" duration="177.00" routeLength="250.75" waitingTime="119.00" waitingCount="6" stopTime="0.00" timeLoss="151.47" rerouteNo="0" devices="tripinfo_149951_417_0" vType="pkw" speedFactor="0.98" vaporized=""/>
    <tripinfo id="147791_416_0" depart="25413.00" departLane="-31800061#0_0" departPos="4.40" departSpeed="0.00" departDelay="0.00" arrival="25452.00" arrivalLane="-41910186_0" arrivalPos="324.50" arrivalSpeed="14.58" duration="39.00" routeLength="450.16" waitingTime="0.00" waitingCount="0" stopTime="0.00" timeLoss="5.51" rerouteNo="0" devices="tripinfo_147791_416_0" vType="pkw" speedFactor="1.13" vaporized=""/>
    <tripinfo id="173797_427_0" depart="25226.00" departLane="-41910186_0" departPos="4.40" departSpeed="0.00" departDelay="0.00" arrival="25453.00" arrivalLane="4145590#0_1" arrivalPos="95.58" arrivalSpeed="13.00" duration="227.00" routeLength="894.77" waitingTime="143.00" waitingCount="2" stopTime="0.00" timeLoss="161.50" rerouteNo="0" devices="tripinfo_173797_427_0" vType="pkw" speedFactor="0.99" vaporized=""/>
    <tripinfo id="131068_409_0" depart="25306.00" departLane="4999334_0" departPos="4.40" departSpeed="0.00" departDelay="0.00" arrival="25455.00" arrivalLane="-31864804_1" arrivalPos="70.23" arrivalSpeed="12.63" duration="149.00" routeLength="615.92" waitingTime="89.00" waitingCount="2" stopTime="0.00" timeLoss="110.51" rerouteNo="0" devices="tripinfo_131068_409_0" vType="pkw" speedFactor="1.17" vaporized=""/>
    <tripinfo id="149275_417_0" depart="25409.00" departLane="41910184_0" departPos="4.40" departSpeed="0.00" departDelay="0.00" arrival="25457.00" arrivalLane="241660955#17_1" arrivalPos="110.13" arrivalSpeed="11.61" duration="48.00" routeLength="451.07" waitingTime="1.00" waitingCount="1" stopTime="0.00" timeLoss="11.49" rerouteNo="0" devices="tripinfo_149275_417_0" vType="pkw" speedFactor="0.89" vaporized=""/>
    <tripinfo id="146011_416_0" depart="25444.00" departLane="-4045329#5_0" departPos="4.40" departSpeed="0.00" departDelay="0.00" arrival="25457.00" arrivalLane="-4045329#5_0" arrivalPos="121.37" arrivalSpeed="11.57" duration="13.00" routeLength="116.97" waitingTime="0.00" waitingCount="0" stopTime="0.00" timeLoss="3.00" rerouteNo="0" devices="tripinfo_146011_416_0" vType="pkw" speedFactor="0.91" vaporized=""/>
    <tripinfo id="122325_406_0" depart="25208.00" departLane="319261593#12_0" departPos="4.40" departSpeed="0.00" departDelay="0.00" arrival="25458.00" arrivalLane="-31864804_0" arrivalPos="70.23" arrivalSpeed="13.10" duration="250.00" routeLength="352.97" waitingTime="211.00" waitingCount="2" stopTime="0.00" timeLoss="222.51" rerouteNo="0" devices="tripinfo_122325_406_0" vType="pkw" speedFactor="0.95" vaporized=""/>