<?xml version="1.0" encoding="UTF-8"?>

<!-- generated on 2023-08-31 13:44:10 by Eclipse SUMO libsumo Version 1.18.0
<configuration xmlns:xsi="http://www.w3.org/2001/XMLSchema-instance" xsi:noNamespaceSchemaLocation="http://sumo.dlr.de/xsd/libsumoConfiguration.xsd">

    <input>
        <net-file value="/home/stefan/RESCO/./environments/cologne3/cologne3.net.xml"/>
        <route-files value="/home/stefan/RESCO/./environments/cologne3/cologne3.rou.xml"/>
    </input>

    <output>
        <tripinfo-output value="/home/stefan/results/RAINBOW-tr0-cologne3-0-drq_norm-wait_norm/tripinfo_77.xml"/>
        <tripinfo-output.write-unfinished value="true"/>
    </output>

    <time>
        <begin value="25200"/>
        <end value="28800"/>
    </time>

    <processing>
        <time-to-teleport value="-1"/>
    </processing>

    <report>
        <no-warnings value="True"/>
        <no-step-log value="True"/>
    </report>

    <random_number>
        <random value="true"/>
    </random_number>

</configuration>
-->

<tripinfos xmlns:xsi="http://www.w3.org/2001/XMLSchema-instance" xsi:noNamespaceSchemaLocation="http://sumo.dlr.de/xsd/tripinfo_file.xsd">
    <tripinfo id="122325_406_0" depart="25208.00" departLane="319261593#12_0" departPos="4.40" departSpeed="0.00" departDelay="0.00" arrival="25242.00" arrivalLane="-31864804_0" arrivalPos="70.23" arrivalSpeed="13.63" duration="34.00" routeLength="352.97" waitingTime="0.00" waitingCount="0" stopTime="0.00" timeLoss="9.18" rerouteNo="0" devices="tripinfo_122325_406_0" vType="pkw" speedFactor="1.06" vaporized=""/>
    <tripinfo id="73303_385_0" depart="25202.00" departLane="319261593#12_0" departPos="4.40" departSpeed="0.00" departDelay="0.00" arrival="25245.00" arrivalLane="4145590#0_0" arrivalPos="95.58" arrivalSpeed="13.48" duration="43.00" routeLength="408.95" waitingTime="3.00" waitingCount="1" stopTime="0.00" timeLoss="13.48" rerouteNo="0" devices="tripinfo_73303_385_0" vType="pkw" speedFactor="1.03" vaporized=""/>
    <tripinfo id="113109_402_0" depart="25203.00" departLane="4999334_0" departPos="4.40" departSpeed="0.00" departDelay="0.00" arrival="25253.00" arrivalLane="-31864804_0" arrivalPos="70.23" arrivalSpeed="13.67" duration="50.00" routeLength="615.92" waitingTime="0.00" waitingCount="0" stopTime="0.00" timeLoss="7.00" rerouteNo="0" devices="tripinfo_113109_402_0" vType="pkw" speedFactor="1.03" vaporized=""/>
    <tripinfo id="169122_425_0" depart="25229.00" departLane="-4999334_0" departPos="4.40" departSpeed="0.00" departDelay="1.00" arrival="25255.00" arrivalLane="-4999334_0" arrivalPos="293.22" arrivalSpeed="11.96" duration="26.00" routeLength="288.82" waitingTime="0.00" waitingCount="0" stopTime="0.00" timeLoss="3.98" rerouteNo="0" devices="tripinfo_169122_425_0" vType="pkw" speedFactor="0.95" vaporized=""/>
    <tripinfo id="120846_405_0" depart="25207.00" departLane="31864804_0" departPos="4.40" departSpeed="0.00" departDelay="0.00" arrival="25257.00" arrivalLane="-4999334_0" arrivalPos="293.22" arrivalSpeed="13.19" duration="50.00" routeLength="621.86" waitingTime="0.00" waitingCount="0" stopTime="0.00" timeLoss="7.02" rerouteNo="0" devices="tripinfo_120846_405_0" vType="pkw" speedFactor="1.04" vaporized=""/>
    <tripinfo id="153968_420_0" depart="25227.00" departLane="319261593#12_0" departPos="4.40" departSpeed="0.00" departDelay="0.00" arrival="25259.00" arrivalLane="-31864804_0" arrivalPos="70.23" arrivalSpeed="13.12" duration="32.00" routeLength="352.97" waitingTime="0.00" waitingCount="0" stopTime="0.00" timeLoss="5.57" rerouteNo="0" devices="tripinfo_153968_420_0" vType="pkw" speedFactor="0.99" vaporized=""/>
    <tripinfo id="132667_410_0" depart="25212.00" departLane="-31800061#0_0" departPos="4.40" departSpeed="0.00" departDelay="0.00" arrival="25262.00" arrivalLane="-4999334_0" arrivalPos="293.22" arrivalSpeed="13.41" duration="50.00" routeLength="492.72" waitingTime="0.00" waitingCount="0" stopTime="0.00" timeLoss="10.79" rerouteNo="0" devices="tripinfo_132667_410_0" vType="pkw" speedFactor="1.06" vaporized=""/>
    <tripinfo id="157649_421_0" depart="25230.00" departLane="319261593#12_0" departPos="4.40" departSpeed="0.00" departDelay="1.00" arrival="25263.00" arrivalLane="-31864804_0" arrivalPos="70.23" arrivalSpeed="12.39" duration="33.00" routeLength="352.97" waitingTime="0.00" waitingCount="0" stopTime="0.00" timeLoss="6.04" rerouteNo="0" devices="tripinfo_157649_421_0" vType="pkw" speedFactor="0.97" vaporized=""/>
    <tripinfo id="141383_415_0" depart="25216.00" departLane="41910184_0" departPos="4.40" departSpeed="0.00" departDelay="0.00" arrival="25264.00" arrivalLane="4145589#0_0" arrivalPos="149.75" arrivalSpeed="7.59" duration="48.00" routeLength="368.38" waitingTime="1.00" waitingCount="1" stopTime="0.00" timeLoss="10.82" rerouteNo="0" devices="tripinfo_141383_415_0" vType="pkw" speedFactor="0.93" vaporized=""/>
    <tripinfo id="68266_381_0" depart="25229.00" departLane="4045329#5_0" departPos="4.40" departSpeed="0.00" departDelay="0.00" arrival="25264.00" arrivalLane="41910185#0_0" arrivalPos="127.86" arrivalSpeed="7.40" duration="35.00" routeLength="267.37" waitingTime="0.00" waitingCount="0" stopTime="0.00" timeLoss="5.78" rerouteNo="0" devices="tripinfo_68266_381_0" vType="pkw" speedFactor="0.90" vaporized=""/>
    <tripinfo id="140163_414_0" depart="25244.00" departLane="241660955#13_0" departPos="4.40" departSpeed="0.00" departDelay="0.00" arrival="25264.00" arrivalLane="-41910184_0" arrivalPos="185.90" arrivalSpeed="14.36" duration="20.00" routeLength="216.76" waitingTime="0.00" waitingCount="0" stopTime="0.00" timeLoss="5.24" rerouteNo="0" devices="tripinfo_140163_414_0" vType="pkw" speedFactor="1.11" vaporized=""/>
    <tripinfo id="81370_389_0" depart="25232.00" departLane="4045329#5_0" departPos="4.40" departSpeed="0.00" departDelay="1.00" arrival="25269.00" arrivalLane="-4045330_0" arrivalPos="128.76" arrivalSpeed="8.61" duration="37.00" routeLength="329.66" waitingTime="0.00" waitingCount="0" stopTime="0.00" timeLoss="7.39" rerouteNo="0" devices="tripinfo_81370_389_0" vType="pkw" speedFactor="1.03" vaporized=""/>
    <tripinfo id="140878_414_0" depart="25231.00" departLane="-130160207#0_0" departPos="4.40" departSpeed="0.00" departDelay="0.00" arrival="25271.00" arrivalLane="241660955#17_0" arrivalPos="110.13" arrivalSpeed="13.87" duration="40.00" routeLength="250.75" waitingTime="8.00" waitingCount="1" stopTime="0.00" timeLoss="15.22" rerouteNo="0" devices="tripinfo_140878_414_0" vType="pkw" speedFactor="1.00" vaporized=""/>
    <tripinfo id="174028_427_0" depart="25233.00" departLane="319261593#12_0" departPos="4.40" departSpeed="0.00" departDelay="1.00" arrival="25272.00" arrivalLane="4145590#0_0" arrivalPos="95.58" arrivalSpeed="12.05" duration="39.00" routeLength="408.95" waitingTime="0.00" waitingCount="0" stopTime="0.00" timeLoss="6.28" rerouteNo="0" devices="tripinfo_174028_427_0" vType="pkw" speedFactor="0.91" vaporized=""/>
    <tripinfo id="98545_395_0" depart="25206.00" departLane="4045330_0" departPos="4.40" departSpeed="0.00" departDelay="0.00" arrival="25274.00" arrivalLane="241660955#17_1" arrivalPos="110.13" arrivalSpeed="14.28" duration="68.00" routeLength="473.04" waitingTime="20.00" waitingCount="1" stopTime="0.00" timeLoss="30.81" rerouteNo="0" devices="tripinfo_98545_395_0" vType="pkw" speedFactor="1.09" vaporized=""/>
    <tripinfo id="160296_421_0" depart="25211.00" departLane="241660955#13_0" departPos="4.40" departSpeed="0.00" departDelay="0.00" arrival="25275.00" arrivalLane="241660955#17_0" arrivalPos="110.13" arrivalSpeed="12.07" duration="64.00" routeLength="247.24" waitingTime="34.00" waitingCount="1" stopTime="0.00" timeLoss="45.10" rerouteNo="0" devices="tripinfo_160296_421_0" vType="pkw" speedFactor="0.95" vaporized=""/>
    <tripinfo id="163719_422_0" depart="25211.00" departLane="4045330_0" departPos="4.40" departSpeed="0.00" departDelay="0.00" arrival="25277.00" arrivalLane="241660955#17_0" arrivalPos="110.13" arrivalSpeed="14.58" duration="66.00" routeLength="473.04" waitingTime="15.00" waitingCount="1" stopTime="0.00" timeLoss="27.61" rerouteNo="0" devices="tripinfo_163719_422_0" vType="pkw" speedFactor="1.06" vaporized=""/>
    <tripinfo id="149066_417_0" depart="25235.00" departLane="31864804_0" departPos="4.40" departSpeed="0.00" departDelay="0.00" arrival="25279.00" arrivalLane="4999331#0_0" arrivalPos="373.64" arrivalSpeed="13.26" duration="44.00" routeLength="492.92" waitingTime="0.00" waitingCount="0" stopTime="0.00" timeLoss="6.32" rerouteNo="0" devices="tripinfo_149066_417_0" vType="pkw" speedFactor="0.96" vaporized=""/>
    <tripinfo id="166826_424_0" depart="25240.00" departLane="41910184_0" departPos="4.40" departSpeed="0.00" departDelay="0.00" arrival="25281.00" arrivalLane="4145589#0_0" arrivalPos="149.75" arrivalSpeed="7.72" duration="41.00" routeLength="368.38" waitingTime="0.00" waitingCount="0" stopTime="0.00" timeLoss="7.89" rerouteNo="0" devices="tripinfo_166826_424_0" vType="pkw" speedFactor="1.05" vaporized=""/>
    <tripinfo id="85241_390_0" depart="25243.00" departLane="41910184_0" departPos="4.40" departSpeed="0.00" departDelay="1.00" arrival="25282.00" arrivalLane="241660955#17_1" arrivalPos="110.13" arrivalSpeed="13.33" duration="39.00" routeLength="451.07" waitingTime="0.00" waitingCount="0" stopTime="0.00" timeLoss="6.99" rerouteNo="0" devices="tripinfo_85241_390_0" vType="pkw" speedFactor="1.04" vaporized=""/>
    <tripinfo id="161841_421_0" depart="25244.00" departLane="31864804_0" departPos="4.40" departSpeed="0.00" departDelay="0.00" arrival="25283.00" arrivalLane="4999331#0_0" arrivalPos="373.64" arrivalSpeed="13.26" duration="39.00" routeLength="492.92" waitingTime="0.00" waitingCount="0" stopTime="0.00" timeLoss="4.88" rerouteNo="0" devices="tripinfo_161841_421_0" vType="pkw" speedFactor="1.04" vaporized=""/>
    <tripinfo id="111993_401_0" depart="25251.00" departLane="4045329#5_0" departPos="4.40" departSpeed="0.00" departDelay="0.00" arrival="25285.00" arrivalLane="41910185#0_0" arrivalPos="127.86" arrivalSpeed="6.48" duration="34.00" routeLength="267.37" waitingTime="0.00" waitingCount="0" stopTime="0.00" timeLoss="5.01" rerouteNo="0" devices="tripinfo_111993_401_0" vType="pkw" speedFactor="0.92" vaporized=""/>
    <tripinfo id="158876_421_0" depart="25255.00" departLane="319261593#12_0" departPos="4.40" departSpeed="0.00" departDelay="0.00" arrival="25287.00" arrivalLane="-31864804_0" arrivalPos="70.23" arrivalSpeed="12.94" duration="32.00" routeLength="352.97" waitingTime="0.00" waitingCount="0" stopTime="0.00" timeLoss="6.01" rerouteNo="0" devices="tripinfo_158876_421_0" vType="pkw" speedFactor="1.01" vaporized=""/>
    <tripinfo id="161578_421_0" depart="25263.00" departLane="-4999334_0" departPos="4.40" departSpeed="0.00" departDelay="0.00" arrival="25290.00" arrivalLane="-4999334_0" arrivalPos="293.22" arrivalSpeed="12.10" duration="27.00" routeLength="288.82" waitingTime="0.00" waitingCount="0" stopTime="0.00" timeLoss="3.77" rerouteNo="0" devices="tripinfo_161578_421_0" vType="pkw" speedFactor="0.90" vaporized=""/>
    <tripinfo id="131963_410_0" depart="25223.00" departLane="-31800061#0_0" departPos="4.40" departSpeed="0.00" departDelay="0.00" arrival="25292.00" arrivalLane="-4999334_0" arrivalPos="293.22" arrivalSpeed="15.19" duration="69.00" routeLength="492.72" waitingTime="13.00" waitingCount="1" stopTime="0.00" timeLoss="31.87" rerouteNo="0" devices="tripinfo_131963_410_0" vType="pkw" speedFactor="1.12" vaporized=""/>
    <tripinfo id="160813_421_0" depart="25253.00" departLane="41910184_0" departPos="4.40" departSpeed="0.00" departDelay="0.00" arrival="25292.00" arrivalLane="4145589#0_0" arrivalPos="149.75" arrivalSpeed="8.97" duration="39.00" routeLength="368.38" waitingTime="0.00" waitingCount="0" stopTime="0.00" timeLoss="8.07" rerouteNo="0" devices="tripinfo_160813_421_0" vType="pkw" speedFactor="1.11" vaporized=""/>
    <tripinfo id="141513_415_0" depart="25233.00" departLane="4999334_0" departPos="4.40" departSpeed="0.00" departDelay="0.00" arrival="25293.00" arrivalLane="4145590#0_1" arrivalPos="95.58" arrivalSpeed="10.76" duration="60.00" routeLength="615.60" waitingTime="0.00" waitingCount="0" stopTime="0.00" timeLoss="6.44" rerouteNo="0" devices="tripinfo_141513_415_0" vType="pkw" speedFactor="0.83" vaporized=""/>
    <tripinfo id="83081_390_0" depart="25228.00" departLane="31864804_0" departPos="4.40" departSpeed="0.00" departDelay="0.00" arrival="25294.00" arrivalLane="-4999334_0" arrivalPos="293.22" arrivalSpeed="12.45" duration="66.00" routeLength="688.22" waitingTime="0.00" waitingCount="0" stopTime="0.00" timeLoss="10.77" rerouteNo="0" devices="tripinfo_83081_390_0" vType="pkw" speedFactor="0.91" vaporized=""/>
    <tripinfo id="168647_425_0" depart="25270.00" departLane="-4999334_0" departPos="4.40" departSpeed="0.00" departDelay="4.00" arrival="25295.00" arrivalLane="-4999334_0" arrivalPos="293.22" arrivalSpeed="13.42" duration="25.00" routeLength="288.82" waitingTime="0.00" waitingCount="0" stopTime="0.00" timeLoss="4.80" rerouteNo="0" devices="tripinfo_168647_425_0" vType="pkw" speedFactor="1.03" vaporized=""/>
    <tripinfo id="100301_396_0" depart="25260.00" departLane="-241660955#17_0" departPos="4.40" departSpeed="0.00" departDelay="0.00" arrival="25296.00" arrivalLane="130160207#0_0" arrivalPos="135.18" arrivalSpeed="6.20" duration="36.00" routeLength="257.86" waitingTime="0.00" waitingCount="0" stopTime="0.00" timeLoss="6.95" rerouteNo="0" devices="tripinfo_100301_396_0" vType="pkw" speedFactor="0.89" vaporized=""/>
    <tripinfo id="137478_412_0" depart="25248.00" departLane="4045330_0" departPos="4.40" departSpeed="0.00" departDelay="0.00" arrival="25300.00" arrivalLane="241660955#17_0" arrivalPos="110.13" arrivalSpeed="10.92" duration="52.00" routeLength="473.04" waitingTime="0.00" waitingCount="0" stopTime="0.00" timeLoss="5.81" rerouteNo="0" devices="tripinfo_137478_412_0" vType="pkw" speedFactor="0.87" vaporized=""/>
    <tripinfo id="173797_427_0" depart="25226.00" departLane="-41910186_0" departPos="4.40" departSpeed="0.00" departDelay="0.00" arrival="25301.00" arrivalLane="4145590#0_1" arrivalPos="95.58" arrivalSpeed="14.20" duration="75.00" routeLength="894.77" waitingTime="0.00" waitingCount="0" stopTime="0.00" timeLoss="14.02" rerouteNo="0" devices="tripinfo_173797_427_0" vType="pkw" speedFactor="1.06" vaporized=""/>
    <tripinfo id="79538_387_0" depart="25217.00" departLane="-5229966#3_0" departPos="4.40" departSpeed="0.00" departDelay="2.00" arrival="25308.00" arrivalLane="4999331#0_0" arrivalPos="373.64" arrivalSpeed="12.39" duration="91.00" routeLength="732.61" waitingTime="17.00" waitingCount="2" stopTime="0.00" timeLoss="36.53" rerouteNo="0" devices="tripinfo_79538_387_0" vType="pkw" speedFactor="0.97" vaporized=""/>
    <tripinfo id="132705_410_0" depart="25200.00" departLane="-5229966#3_0" departPos="4.40" departSpeed="0.00" departDelay="0.00" arrival="25312.00" arrivalLane="4045332#0_0" arrivalPos="114.41" arrivalSpeed="7.51" duration="112.00" routeLength="720.54" waitingTime="35.00" waitingCount="2" stopTime="0.00" timeLoss="52.22" rerouteNo="0" devices="tripinfo_132705_410_0" vType="pkw" speedFactor="0.97" vaporized=""/>
    <tripinfo id="118681_405_0" depart="25237.00" departLane="4999334_0" departPos="4.40" departSpeed="0.00" departDelay="0.00" arrival="25314.00" arrivalLane="-31864804_0" arrivalPos="70.23" arrivalSpeed="16.33" duration="77.00" routeLength="615.92" waitingTime="20.00" waitingCount="1" stopTime="0.00" timeLoss="38.89" rerouteNo="0" devices="tripinfo_118681_405_0" vType="pkw" speedFactor="1.18" vaporized=""/>
    <tripinfo id="76573_386_0" depart="25275.00" departLane="-241660955#17_0" departPos="4.40" departSpeed="0.00" departDelay="0.00" arrival="25314.00" arrivalLane="130160207#0_0" arrivalPos="135.18" arrivalSpeed="6.77" duration="39.00" routeLength="257.86" waitingTime="0.00" waitingCount="0" stopTime="0.00" timeLoss="9.52" rerouteNo="0" devices="tripinfo_76573_386_0" vType="pkw" speedFactor="0.87" vaporized=""/>
    <tripinfo id="67548_381_0" depart="25289.00" departLane="-41910185#2_0" departPos="4.40" departSpeed="0.00" departDelay="1.00" arrival="25315.00" arrivalLane="241660955#10_0" arrivalPos="56.57" arrivalSpeed="12.77" duration="26.00" routeLength="191.84" waitingTime="0.00" waitingCount="0" stopTime="0.00" timeLoss="4.00" rerouteNo="0" devices="tripinfo_67548_381_0" vType="pkw" speedFactor="0.94" vaporized=""/>
    <tripinfo id="165473_423_0" depart="25267.00" departLane="41910186_0" departPos="4.40" departSpeed="0.00" departDelay="0.00" arrival="25317.00" arrivalLane="-31864804_0" arrivalPos="70.23" arrivalSpeed="11.86" duration="50.00" routeLength="565.92" waitingTime="0.00" waitingCount="0" stopTime="0.00" timeLoss="6.17" rerouteNo="0" devices="tripinfo_165473_423_0" vType="pkw" speedFactor="0.94" vaporized=""/>
    <tripinfo id="153005_419_0" depart="25270.00" departLane="41910184_0" departPos="4.40" departSpeed="0.00" departDelay="0.00" arrival="25318.00" arrivalLane="4145589#0_0" arrivalPos="149.75" arrivalSpeed="6.26" duration="48.00" routeLength="368.38" waitingTime="0.00" waitingCount="0" stopTime="0.00" timeLoss="6.66" rerouteNo="0" devices="tripinfo_153005_419_0" vType="pkw" speedFactor="0.83" vaporized=""/>
    <tripinfo id="104671_398_0" depart="25286.00" departLane="-41910185#2_0" departPos="4.40" departSpeed="0.00" departDelay="0.00" arrival="25318.00" arrivalLane="241660955#11_0" arrivalPos="73.18" arrivalSpeed="12.23" duration="32.00" routeLength="279.28" waitingTime="0.00" waitingCount="0" stopTime="0.00" timeLoss="4.34" rerouteNo="0" devices="tripinfo_104671_398_0" vType="pkw" speedFactor="0.96" vaporized=""/>
    <tripinfo id="155359_420_0" depart="25288.00" departLane="31864804_0" departPos="4.40" departSpeed="0.00" departDelay="0.00" arrival="25318.00" arrivalLane="-31864804_1" arrivalPos="70.23" arrivalSpeed="14.96" duration="30.00" routeLength="140.71" waitingTime="7.00" waitingCount="1" stopTime="0.00" timeLoss="20.03" rerouteNo="0" devices="tripinfo_155359_420_0" vType="pkw" speedFactor="1.08" vaporized=""/>
    <tripinfo id="143042_415_0" depart="25300.00" departLane="31864804_0" departPos="4.40" departSpeed="0.00" departDelay="0.00" arrival="25319.00" arrivalLane="4145590#0_0" arrivalPos="95.58" arrivalSpeed="12.87" duration="19.00" routeLength="195.56" waitingTime="0.00" waitingCount="0" stopTime="0.00" timeLoss="3.55" rerouteNo="0" devices="tripinfo_143042_415_0" vType="pkw" speedFactor="0.97" vaporized=""/>
    <tripinfo id="173932_427_0" depart="25275.00" departLane="-41910185#2_0" departPos="4.40" departSpeed="0.00" departDelay="0.00" arrival="25325.00" arrivalLane="241660955#17_0" arrivalPos="110.13" arrivalSpeed="13.89" duration="50.00" routeLength="545.38" waitingTime="0.00" waitingCount="0" stopTime="0.00" timeLoss="5.15" rerouteNo="0" devices="tripinfo_173932_427_0" vType="pkw" speedFactor="1.01" vaporized=""/>
    <tripinfo id="171899_426_0" depart="25303.00" departLane="-41910185#2_0" departPos="4.40" departSpeed="0.00" departDelay="0.00" arrival="25332.00" arrivalLane="-4045329#5_0" arrivalPos="121.37" arrivalSpeed="14.33" duration="29.00" routeLength="266.80" waitingTime="0.00" waitingCount="0" stopTime="0.00" timeLoss="4.28" rerouteNo="0" devices="tripinfo_171899_426_0" vType="pkw" speedFactor="1.06" vaporized=""/>
    <tripinfo id="144088_416_0" depart="25303.00" departLane="241660955#6_0" departPos="4.40" departSpeed="0.00" departDelay="0.00" arrival="25333.00" arrivalLane="-4999334_0" arrivalPos="293.22" arrivalSpeed="14.60" duration="30.00" routeLength="357.51" waitingTime="0.00" waitingCount="0" stopTime="0.00" timeLoss="5.37" rerouteNo="0" devices="tripinfo_144088_416_0" vType="pkw" speedFactor="1.06" vaporized=""/>
    <tripinfo id="163684_422_0" depart="25294.00" departLane="4045330_0" departPos="4.40" departSpeed="0.00" departDelay="0.00" arrival="25337.00" arrivalLane="241660955#17_0" arrivalPos="110.13" arrivalSpeed="15.96" duration="43.00" routeLength="473.04" waitingTime="0.00" waitingCount="0" stopTime="0.00" timeLoss="10.25" rerouteNo="0" devices="tripinfo_163684_422_0" vType="pkw" speedFactor="1.23" vaporized=""/>
    <tripinfo id="150860_418_0" depart="25276.00" departLane="31864804_0" departPos="4.40" departSpeed="0.00" departDelay="0.00" arrival="25342.00" arrivalLane="4999331#0_0" arrivalPos="373.64" arrivalSpeed="12.00" duration="66.00" routeLength="492.92" waitingTime="17.00" waitingCount="1" stopTime="0.00" timeLoss="28.03" rerouteNo="0" devices="tripinfo_150860_418_0" vType="pkw" speedFactor="0.93" vaporized=""/>
    <tripinfo id="157767_421_0" depart="25269.00" departLane="31864804_0" departPos="4.40" departSpeed="0.00" departDelay="0.00" arrival="25345.00" arrivalLane="-41910186_0" arrivalPos="324.50" arrivalSpeed="16.25" duration="76.00" routeLength="571.64" waitingTime="23.00" waitingCount="2" stopTime="0.00" timeLoss="41.95" rerouteNo="0" devices="tripinfo_157767_421_0" vType="pkw" speedFactor="1.23" vaporized=""/>
    <tripinfo id="147727_416_0" depart="25301.00" departLane="41910184_0" departPos="4.40" departSpeed="0.00" departDelay="0.00" arrival="25346.00" arrivalLane="4145589#0_0" arrivalPos="149.75" arrivalSpeed="8.25" duration="45.00" routeLength="368.38" waitingTime="0.00" waitingCount="0" stopTime="0.00" timeLoss="11.80" rerouteNo="0" devices="tripinfo_147727_416_0" vType="pkw" speedFactor="1.06" vaporized=""/>
    <tripinfo id="101678_396_0" depart="25320.00" departLane="-41910185#2_0" departPos="4.40" departSpeed="0.00" departDelay="0.00" arrival="25349.00" arrivalLane="-4045329#5_0" arrivalPos="121.37" arrivalSpeed="13.88" duration="29.00" routeLength="266.80" waitingTime="0.00" waitingCount="0" stopTime="0.00" timeLoss="4.14" rerouteNo="0" devices="tripinfo_101678_396_0" vType="pkw" speedFactor="1.02" vaporized=""/>
    <tripinfo id="172020_426_0" depart="25285.00" departLane="31864804_0" departPos="4.40" departSpeed="0.00" departDelay="0.00" arrival="25353.00" arrivalLane="4999331#0_0" arrivalPos="373.64" arrivalSpeed="13.58" duration="68.00" routeLength="492.92" waitingTime="17.00" waitingCount="2" stopTime="0.00" timeLoss="31.11" rerouteNo="0" devices="tripinfo_172020_426_0" vType="pkw" speedFactor="0.99" vaporized=""/>
    <tripinfo id="162714_422_0" depart="25301.00" departLane="4999334_0" departPos="4.40" departSpeed="0.00" departDelay="0.00" arrival="25353.00" arrivalLane="-4999334_0" arrivalPos="293.22" arrivalSpeed="12.36" duration="52.00" routeLength="586.71" waitingTime="0.00" waitingCount="0" stopTime="0.00" timeLoss="5.44" rerouteNo="0" devices="tripinfo_162714_422_0" vType="pkw" speedFactor="0.93" vaporized=""/>
    <tripinfo id="149020_417_0" depart="25323.00" departLane="4999331#0_0" departPos="4.40" departSpeed="0.00" departDelay="0.00" arrival="25354.00" arrivalLane="4999331#0_1" arrivalPos="373.64" arrivalSpeed="14.39" duration="31.00" routeLength="369.24" waitingTime="0.00" waitingCount="0" stopTime="0.00" timeLoss="4.50" rerouteNo="0" devices="tripinfo_149020_417_0" vType="pkw" speedFactor="1.04" vaporized=""/>
    <tripinfo id="81323_389_0" depart="25328.00" departLane="41910186_0" departPos="4.40" departSpeed="0.00" departDelay="1.00" arrival="25355.00" arrivalLane="41910186_0" arrivalPos="324.91" arrivalSpeed="13.68" duration="27.00" routeLength="320.51" waitingTime="0.00" waitingCount="0" stopTime="0.00" timeLoss="3.63" rerouteNo="0" devices="tripinfo_81323_389_0" vType="pkw" speedFactor="0.99" vaporized=""/>
    <tripinfo id="134193_411_0" depart="25298.00" departLane="31864804_0" departPos="4.40" departSpeed="0.00" departDelay="0.00" arrival="25363.00" arrivalLane="4999331#0_0" arrivalPos="373.64" arrivalSpeed="12.56" duration="65.00" routeLength="492.92" waitingTime="8.00" waitingCount="2" stopTime="0.00" timeLoss="28.74" rerouteNo="0" devices="tripinfo_134193_411_0" vType="pkw" speedFactor="0.99" vaporized=""/>
    <tripinfo id="139565_413_0" depart="25322.00" departLane="-31800061#0_0" departPos="4.40" departSpeed="0.00" departDelay="0.00" arrival="25363.00" arrivalLane="-41910186_0" arrivalPos="324.50" arrivalSpeed="14.41" duration="41.00" routeLength="450.16" waitingTime="0.00" waitingCount="0" stopTime="0.00" timeLoss="7.67" rerouteNo="0" devices="tripinfo_139565_413_0" vType="pkw" speedFactor="1.13" vaporized=""/>
    <tripinfo id="85782_390_0" depart="25302.00" departLane="31864804_0" departPos="4.40" departSpeed="0.00" departDelay="2.00" arrival="25364.00" arrivalLane="4999331#0_1" arrivalPos="373.64" arrivalSpeed="13.75" duration="62.00" routeLength="492.92" waitingTime="6.00" waitingCount="2" stopTime="0.00" timeLoss="28.25" rerouteNo="0" devices="tripinfo_85782_390_0" vType="pkw" speedFactor="1.08" vaporized=""/>
    <tripinfo id="148750_417_0" depart="25308.00" departLane="31864804_0" departPos="4.40" departSpeed="0.00" departDelay="2.00" arrival="25368.00" arrivalLane="4999331#0_1" arrivalPos="373.64" arrivalSpeed="13.91" duration="60.00" routeLength="492.92" waitingTime="11.00" waitingCount="2" stopTime="0.00" timeLoss="26.48" rerouteNo="0" devices="tripinfo_148750_417_0" vType="pkw" speedFactor="1.07" vaporized=""/>
    <tripinfo id="73223_384_0" depart="25204.00" departLane="241660957#0_0" departPos="4.40" departSpeed="0.00" departDelay="0.00" arrival="25369.00" arrivalLane="4999331#0_0" arrivalPos="373.64" arrivalSpeed="14.00" duration="165.00" routeLength="489.64" waitingTime="120.00" waitingCount="1" stopTime="0.00" timeLoss="132.15" rerouteNo="0" devices="tripinfo_73223_384_0" vType="pkw" speedFactor="1.08" vaporized=""/>
    <tripinfo id="158960_421_0" depart="25321.00" departLane="4045330_0" departPos="4.40" departSpeed="0.00" departDelay="0.00" arrival="25369.00" arrivalLane="241660955#17_0" arrivalPos="110.13" arrivalSpeed="12.92" duration="48.00" routeLength="473.04" waitingTime="0.00" waitingCount="0" stopTime="0.00" timeLoss="5.35" rerouteNo="0" devices="tripinfo_158960_421_0" vType="pkw" speedFactor="0.94" vaporized=""/>
    <tripinfo id="167856_425_0" depart="25331.00" departLane="41910184_0" departPos="4.40" departSpeed="0.00" departDelay="0.00" arrival="25371.00" arrivalLane="4145589#0_0" arrivalPos="149.75" arrivalSpeed="8.46" duration="40.00" routeLength="368.38" waitingTime="0.00" waitingCount="0" stopTime="0.00" timeLoss="8.02" rerouteNo="0" devices="tripinfo_167856_425_0" vType="pkw" speedFactor="1.07" vaporized=""/>
    <tripinfo id="148720_417_0" depart="25231.00" departLane="31864804_0" departPos="4.40" departSpeed="0.00" departDelay="2.00" arrival="25376.00" arrivalLane="-41910184_0" arrivalPos="185.90" arrivalSpeed="13.81" duration="145.00" routeLength="811.95" waitingTime="71.00" waitingCount="1" stopTime="0.00" timeLoss="89.98" rerouteNo="0" devices="tripinfo_148720_417_0" vType="pkw" speedFactor="1.07" vaporized=""/>
    <tripinfo id="106913_399_0" depart="25201.00" departLane="31864804_0" departPos="4.40" departSpeed="0.00" departDelay="0.00" arrival="25378.00" arrivalLane="241660955#17_0" arrivalPos="110.13" arrivalSpeed="12.96" duration="177.00" routeLength="875.23" waitingTime="99.00" waitingCount="1" stopTime="0.00" timeLoss="113.95" rerouteNo="0" devices="tripinfo_106913_399_0" vType="pkw" speedFactor="1.01" vaporized=""/>
    <tripinfo id="145057_416_0" depart="25346.00" departLane="241660955#6_0" departPos="4.40" departSpeed="0.00" departDelay="0.00" arrival="25379.00" arrivalLane="-4999334_0" arrivalPos="293.22" arrivalSpeed="12.04" duration="33.00" routeLength="357.51" waitingTime="0.00" waitingCount="0" stopTime="0.00" timeLoss="5.42" rerouteNo="0" devices="tripinfo_145057_416_0" vType="pkw" speedFactor="0.94" vaporized=""/>
    <tripinfo id="134770_411_0" depart="25235.00" departLane="-31800061#0_0" departPos="4.40" departSpeed="0.00" departDelay="0.00" arrival="25380.00" arrivalLane="-41910184_0" arrivalPos="185.90" arrivalSpeed="12.53" duration="145.00" routeLength="682.81" waitingTime="64.00" waitingCount="2" stopTime="0.00" timeLoss="89.64" rerouteNo="0" devices="tripinfo_134770_411_0" vType="pkw" speedFactor="0.99" vaporized=""/>
    <tripinfo id="125105_406_0" depart="25346.00" departLane="-241660955#17_0" departPos="4.40" departSpeed="0.00" departDelay="1.00" arrival="25382.00" arrivalLane="-41910184_0" arrivalPos="185.90" arrivalSpeed="14.35" duration="36.00" routeLength="442.68" waitingTime="0.00" waitingCount="0" stopTime="0.00" timeLoss="5.15" rerouteNo="0" devices="tripinfo_125105_406_0" vType="pkw" speedFactor="1.05" vaporized=""/>
    <tripinfo id="111594_401_0" depart="25354.00" departLane="-41910185#2_0" departPos="4.40" departSpeed="0.00" departDelay="0.00" arrival="25383.00" arrivalLane="-4045329#5_0" arrivalPos="121.37" arrivalSpeed="14.24" duration="29.00" routeLength="266.80" waitingTime="0.00" waitingCount="0" stopTime="0.00" timeLoss="4.22" rerouteNo="0" devices="tripinfo_111594_401_0" vType="pkw" speedFactor="1.04" vaporized=""/>
    <tripinfo id="134587_411_0" depart="25351.00" departLane="-241660955#17_0" departPos="4.40" departSpeed="0.00" departDelay="2.00" arrival="25385.00" arrivalLane="-41910184_0" arrivalPos="185.90" arrivalSpeed="14.51" duration="34.00" routeLength="442.68" waitingTime="0.00" waitingCount="0" stopTime="0.00" timeLoss="5.12" rerouteNo="0" devices="tripinfo_134587_411_0" vType="pkw" speedFactor="1.12" vaporized=""/>
    <tripinfo id="143018_415_0" depart="25340.00" departLane="-41910185#2_0" departPos="4.40" departSpeed="0.00" departDelay="0.00" arrival="25386.00" arrivalLane="241660955#17_0" arrivalPos="110.13" arrivalSpeed="15.23" duration="46.00" routeLength="545.38" waitingTime="0.00" waitingCount="0" stopTime="0.00" timeLoss="4.37" rerouteNo="0" devices="tripinfo_143018_415_0" vType="pkw" speedFactor="1.11" vaporized=""/>