<?xml version="1.0" encoding="UTF-8"?>

<!-- generated on 2023-08-31 13:44:37 by Eclipse SUMO libsumo Version 1.18.0
<configuration xmlns:xsi="http://www.w3.org/2001/XMLSchema-instance" xsi:noNamespaceSchemaLocation="http://sumo.dlr.de/xsd/libsumoConfiguration.xsd">

    <input>
        <net-file value="/home/stefan/RESCO/./environments/cologne3/cologne3.net.xml"/>
        <route-files value="/home/stefan/RESCO/./environments/cologne3/cologne3.rou.xml"/>
    </input>

    <output>
        <tripinfo-output value="/home/stefan/results/RAINBOW-tr0-cologne3-0-drq_norm-wait_norm/tripinfo_79.xml"/>
        <tripinfo-output.write-unfinished value="true"/>
    </output>

    <time>
        <begin value="25200"/>
        <end value="28800"/>
    </time>

    <processing>
        <time-to-teleport value="-1"/>
    </processing>

    <report>
        <no-warnings value="True"/>
        <no-step-log value="True"/>
    </report>

    <random_number>
        <random value="true"/>
    </random_number>

</configuration>
-->

<tripinfos xmlns:xsi="http://www.w3.org/2001/XMLSchema-instance" xsi:noNamespaceSchemaLocation="http://sumo.dlr.de/xsd/tripinfo_file.xsd">
    <tripinfo id="98545_395_0" depart="25206.00" departLane="4045330_0" departPos="4.40" departSpeed="0.00" departDelay="0.00" arrival="25253.00" arrivalLane="241660955#17_1" arrivalPos="110.13" arrivalSpeed="13.03" duration="47.00" routeLength="473.04" waitingTime="0.00" waitingCount="0" stopTime="0.00" timeLoss="7.52" rerouteNo="0" devices="tripinfo_98545_395_0" vType="pkw" speedFactor="1.02" vaporized=""/>
    <tripinfo id="169122_425_0" depart="25230.00" departLane="-4999334_0" departPos="4.40" departSpeed="0.00" departDelay="2.00" arrival="25253.00" arrivalLane="-4999334_0" arrivalPos="293.22" arrivalSpeed="14.17" duration="23.00" routeLength="288.82" waitingTime="0.00" waitingCount="0" stopTime="0.00" timeLoss="4.01" rerouteNo="0" devices="tripinfo_169122_425_0" vType="pkw" speedFactor="1.11" vaporized=""/>
    <tripinfo id="160296_421_0" depart="25211.00" departLane="241660955#13_0" departPos="4.40" departSpeed="0.00" departDelay="0.00" arrival="25255.00" arrivalLane="241660955#17_0" arrivalPos="110.13" arrivalSpeed="12.60" duration="44.00" routeLength="247.24" waitingTime="16.00" waitingCount="1" stopTime="0.00" timeLoss="25.45" rerouteNo="0" devices="tripinfo_160296_421_0" vType="pkw" speedFactor="0.99" vaporized=""/>
    <tripinfo id="141383_415_0" depart="25216.00" departLane="41910184_0" departPos="4.40" departSpeed="0.00" departDelay="0.00" arrival="25258.00" arrivalLane="4145589#0_0" arrivalPos="149.75" arrivalSpeed="7.64" duration="42.00" routeLength="368.38" waitingTime="0.00" waitingCount="0" stopTime="0.00" timeLoss="6.92" rerouteNo="0" devices="tripinfo_141383_415_0" vType="pkw" speedFactor="1.00" vaporized=""/>
    <tripinfo id="132667_410_0" depart="25212.00" departLane="-31800061#0_0" departPos="4.40" departSpeed="0.00" departDelay="0.00" arrival="25259.00" arrivalLane="-4999334_0" arrivalPos="293.22" arrivalSpeed="13.65" duration="47.00" routeLength="492.72" waitingTime="0.00" waitingCount="0" stopTime="0.00" timeLoss="6.87" rerouteNo="0" devices="tripinfo_132667_410_0" vType="pkw" speedFactor="1.01" vaporized=""/>
    <tripinfo id="68266_381_0" depart="25229.00" departLane="4045329#5_0" departPos="4.40" departSpeed="0.00" departDelay="0.00" arrival="25261.00" arrivalLane="41910185#0_0" arrivalPos="127.86" arrivalSpeed="6.95" duration="32.00" routeLength="267.37" waitingTime="0.00" waitingCount="0" stopTime="0.00" timeLoss="5.03" rerouteNo="0" devices="tripinfo_68266_381_0" vType="pkw" speedFactor="0.97" vaporized=""/>
    <tripinfo id="140163_414_0" depart="25244.00" departLane="241660955#13_0" departPos="4.40" departSpeed="0.00" departDelay="0.00" arrival="25263.00" arrivalLane="-41910184_0" arrivalPos="185.90" arrivalSpeed="14.22" duration="19.00" routeLength="216.76" waitingTime="0.00" waitingCount="0" stopTime="0.00" timeLoss="3.32" rerouteNo="0" devices="tripinfo_140163_414_0" vType="pkw" speedFactor="1.06" vaporized=""/>
    <tripinfo id="81370_389_0" depart="25231.00" departLane="4045329#5_0" departPos="4.40" departSpeed="0.00" departDelay="0.00" arrival="25265.00" arrivalLane="-4045330_0" arrivalPos="128.76" arrivalSpeed="9.14" duration="34.00" routeLength="329.66" waitingTime="0.00" waitingCount="0" stopTime="0.00" timeLoss="7.22" rerouteNo="0" devices="tripinfo_81370_389_0" vType="pkw" speedFactor="1.14" vaporized=""/>
    <tripinfo id="163719_422_0" depart="25211.00" departLane="4045330_0" departPos="4.40" departSpeed="0.00" departDelay="0.00" arrival="25266.00" arrivalLane="241660955#17_0" arrivalPos="110.13" arrivalSpeed="9.99" duration="55.00" routeLength="473.04" waitingTime="0.00" waitingCount="0" stopTime="0.00" timeLoss="5.44" rerouteNo="0" devices="tripinfo_163719_422_0" vType="pkw" speedFactor="0.81" vaporized=""/>
    <tripinfo id="131963_410_0" depart="25223.00" departLane="-31800061#0_0" departPos="4.40" departSpeed="0.00" departDelay="0.00" arrival="25267.00" arrivalLane="-4999334_0" arrivalPos="293.22" arrivalSpeed="14.67" duration="44.00" routeLength="492.72" waitingTime="0.00" waitingCount="0" stopTime="0.00" timeLoss="7.31" rerouteNo="0" devices="tripinfo_131963_410_0" vType="pkw" speedFactor="1.11" vaporized=""/>
    <tripinfo id="132705_410_0" depart="25200.00" departLane="-5229966#3_0" departPos="4.40" departSpeed="0.00" departDelay="0.00" arrival="25271.00" arrivalLane="4045332#0_0" arrivalPos="114.41" arrivalSpeed="7.42" duration="71.00" routeLength="720.54" waitingTime="0.00" waitingCount="0" stopTime="0.00" timeLoss="9.15" rerouteNo="0" devices="tripinfo_132705_410_0" vType="pkw" speedFactor="0.93" vaporized=""/>
    <tripinfo id="79538_387_0" depart="25216.00" departLane="-5229966#3_0" departPos="4.40" departSpeed="0.00" departDelay="1.00" arrival="25272.00" arrivalLane="4999331#0_1" arrivalPos="373.64" arrivalSpeed="15.34" duration="56.00" routeLength="731.93" waitingTime="0.00" waitingCount="0" stopTime="0.00" timeLoss="9.51" rerouteNo="0" devices="tripinfo_79538_387_0" vType="pkw" speedFactor="1.15" vaporized=""/>
    <tripinfo id="141513_415_0" depart="25233.00" departLane="4999334_0" departPos="4.40" departSpeed="0.00" departDelay="0.00" arrival="25280.00" arrivalLane="4145590#0_1" arrivalPos="95.58" arrivalSpeed="15.41" duration="47.00" routeLength="615.60" waitingTime="0.00" waitingCount="0" stopTime="0.00" timeLoss="7.47" rerouteNo="0" devices="tripinfo_141513_415_0" vType="pkw" speedFactor="1.14" vaporized=""/>
    <tripinfo id="111993_401_0" depart="25251.00" departLane="4045329#5_0" departPos="4.40" departSpeed="0.00" departDelay="0.00" arrival="25280.00" arrivalLane="41910185#0_0" arrivalPos="127.86" arrivalSpeed="8.25" duration="29.00" routeLength="267.37" waitingTime="0.00" waitingCount="0" stopTime="0.00" timeLoss="4.14" rerouteNo="0" devices="tripinfo_111993_401_0" vType="pkw" speedFactor="1.05" vaporized=""/>
    <tripinfo id="166826_424_0" depart="25240.00" departLane="41910184_0" departPos="4.40" departSpeed="0.00" departDelay="0.00" arrival="25286.00" arrivalLane="4145589#0_0" arrivalPos="149.75" arrivalSpeed="6.95" duration="46.00" routeLength="368.38" waitingTime="0.00" waitingCount="0" stopTime="0.00" timeLoss="7.85" rerouteNo="0" devices="tripinfo_166826_424_0" vType="pkw" speedFactor="0.90" vaporized=""/>
    <tripinfo id="85241_390_0" depart="25243.00" departLane="41910184_0" departPos="4.40" departSpeed="0.00" departDelay="1.00" arrival="25288.00" arrivalLane="241660955#17_1" arrivalPos="110.13" arrivalSpeed="10.78" duration="45.00" routeLength="451.07" waitingTime="0.00" waitingCount="0" stopTime="0.00" timeLoss="5.58" rerouteNo="0" devices="tripinfo_85241_390_0" vType="pkw" speedFactor="0.83" vaporized=""/>
    <tripinfo id="161578_421_0" depart="25263.00" departLane="-4999334_0" departPos="4.40" departSpeed="0.00" departDelay="0.00" arrival="25289.00" arrivalLane="-4999334_0" arrivalPos="293.22" arrivalSpeed="12.56" duration="26.00" routeLength="288.82" waitingTime="0.00" waitingCount="0" stopTime="0.00" timeLoss="3.92" rerouteNo="0" devices="tripinfo_161578_421_0" vType="pkw" speedFactor="0.94" vaporized=""/>
    <tripinfo id="137478_412_0" depart="25248.00" departLane="4045330_0" departPos="4.40" departSpeed="0.00" departDelay="0.00" arrival="25292.00" arrivalLane="241660955#17_0" arrivalPos="110.13" arrivalSpeed="14.52" duration="44.00" routeLength="473.04" waitingTime="0.00" waitingCount="0" stopTime="0.00" timeLoss="5.46" rerouteNo="0" devices="tripinfo_137478_412_0" vType="pkw" speedFactor="1.05" vaporized=""/>
    <tripinfo id="168647_425_0" depart="25266.00" departLane="-4999334_0" departPos="4.40" departSpeed="0.00" departDelay="0.00" arrival="25293.00" arrivalLane="-4999334_0" arrivalPos="293.22" arrivalSpeed="12.10" duration="27.00" routeLength="288.82" waitingTime="0.00" waitingCount="0" stopTime="0.00" timeLoss="4.02" rerouteNo="0" devices="tripinfo_168647_425_0" vType="pkw" speedFactor="0.94" vaporized=""/>
    <tripinfo id="160813_421_0" depart="25253.00" departLane="41910184_0" departPos="4.40" departSpeed="0.00" departDelay="0.00" arrival="25299.00" arrivalLane="4145589#0_0" arrivalPos="149.75" arrivalSpeed="7.80" duration="46.00" routeLength="368.38" waitingTime="0.00" waitingCount="0" stopTime="0.00" timeLoss="11.23" rerouteNo="0" devices="tripinfo_160813_421_0" vType="pkw" speedFactor="1.00" vaporized=""/>
    <tripinfo id="100301_396_0" depart="25260.00" departLane="-241660955#17_0" departPos="4.40" departSpeed="0.00" departDelay="0.00" arrival="25302.00" arrivalLane="130160207#0_0" arrivalPos="135.18" arrivalSpeed="6.94" duration="42.00" routeLength="257.86" waitingTime="3.00" waitingCount="1" stopTime="0.00" timeLoss="11.97" rerouteNo="0" devices="tripinfo_100301_396_0" vType="pkw" speedFactor="0.86" vaporized=""/>
    <tripinfo id="76573_386_0" depart="25275.00" departLane="-241660955#17_0" departPos="4.40" departSpeed="0.00" departDelay="0.00" arrival="25304.00" arrivalLane="130160207#0_0" arrivalPos="135.18" arrivalSpeed="8.59" duration="29.00" routeLength="257.86" waitingTime="0.00" waitingCount="0" stopTime="0.00" timeLoss="6.54" rerouteNo="0" devices="tripinfo_76573_386_0" vType="pkw" speedFactor="1.16" vaporized=""/>
    <tripinfo id="153005_419_0" depart="25270.00" departLane="41910184_0" departPos="4.40" departSpeed="0.00" departDelay="0.00" arrival="25311.00" arrivalLane="4145589#0_0" arrivalPos="149.75" arrivalSpeed="7.68" duration="41.00" routeLength="368.38" waitingTime="0.00" waitingCount="0" stopTime="0.00" timeLoss="7.14" rerouteNo="0" devices="tripinfo_153005_419_0" vType="pkw" speedFactor="1.02" vaporized=""/>
    <tripinfo id="67548_381_0" depart="25288.00" departLane="-41910185#2_0" departPos="4.40" departSpeed="0.00" departDelay="0.00" arrival="25313.00" arrivalLane="241660955#10_0" arrivalPos="56.57" arrivalSpeed="12.22" duration="25.00" routeLength="191.84" waitingTime="0.00" waitingCount="0" stopTime="0.00" timeLoss="4.45" rerouteNo="0" devices="tripinfo_67548_381_0" vType="pkw" speedFactor="0.96" vaporized=""/>
    <tripinfo id="104671_398_0" depart="25286.00" departLane="-41910185#2_0" departPos="4.40" departSpeed="0.00" departDelay="0.00" arrival="25317.00" arrivalLane="241660955#11_0" arrivalPos="73.18" arrivalSpeed="13.22" duration="31.00" routeLength="279.28" waitingTime="0.00" waitingCount="0" stopTime="0.00" timeLoss="3.52" rerouteNo="0" devices="tripinfo_104671_398_0" vType="pkw" speedFactor="0.96" vaporized=""/>
    <tripinfo id="140878_414_0" depart="25231.00" departLane="-130160207#0_0" departPos="4.40" departSpeed="0.00" departDelay="0.00" arrival="25329.00" arrivalLane="241660955#17_0" arrivalPos="110.13" arrivalSpeed="15.78" duration="98.00" routeLength="250.75" waitingTime="67.00" waitingCount="1" stopTime="0.00" timeLoss="76.80" rerouteNo="0" devices="tripinfo_140878_414_0" vType="pkw" speedFactor="1.17" vaporized=""/>
    <tripinfo id="171899_426_0" depart="25303.00" departLane="-41910185#2_0" departPos="4.40" departSpeed="0.00" departDelay="0.00" arrival="25332.00" arrivalLane="-4045329#5_0" arrivalPos="121.37" arrivalSpeed="13.48" duration="29.00" routeLength="266.80" waitingTime="0.00" waitingCount="0" stopTime="0.00" timeLoss="4.14" rerouteNo="0" devices="tripinfo_171899_426_0" vType="pkw" speedFactor="1.02" vaporized=""/>
    <tripinfo id="144088_416_0" depart="25303.00" departLane="241660955#6_0" departPos="4.40" departSpeed="0.00" departDelay="0.00" arrival="25334.00" arrivalLane="-4999334_0" arrivalPos="293.22" arrivalSpeed="12.29" duration="31.00" routeLength="357.51" waitingTime="0.00" waitingCount="0" stopTime="0.00" timeLoss="3.57" rerouteNo="0" devices="tripinfo_144088_416_0" vType="pkw" speedFactor="0.94" vaporized=""/>
    <tripinfo id="173932_427_0" depart="25275.00" departLane="-41910185#2_0" departPos="4.40" departSpeed="0.00" departDelay="0.00" arrival="25335.00" arrivalLane="241660955#17_0" arrivalPos="110.13" arrivalSpeed="12.50" duration="60.00" routeLength="545.38" waitingTime="3.00" waitingCount="1" stopTime="0.00" timeLoss="14.05" rerouteNo="0" devices="tripinfo_173932_427_0" vType="pkw" speedFactor="0.99" vaporized=""/>
    <tripinfo id="147727_416_0" depart="25301.00" departLane="41910184_0" departPos="4.40" departSpeed="0.00" departDelay="0.00" arrival="25340.00" arrivalLane="4145589#0_0" arrivalPos="149.75" arrivalSpeed="7.93" duration="39.00" routeLength="368.38" waitingTime="0.00" waitingCount="0" stopTime="0.00" timeLoss="6.75" rerouteNo="0" devices="tripinfo_147727_416_0" vType="pkw" speedFactor="1.08" vaporized=""/>
    <tripinfo id="113109_402_0" depart="25203.00" departLane="4999334_0" departPos="4.40" departSpeed="0.00" departDelay="0.00" arrival="25345.00" arrivalLane="-31864804_0" arrivalPos="70.23" arrivalSpeed="12.69" duration="142.00" routeLength="615.92" waitingTime="83.00" waitingCount="1" stopTime="0.00" timeLoss="95.79" rerouteNo="0" devices="tripinfo_113109_402_0" vType="pkw" speedFactor="0.96" vaporized=""/>
    <tripinfo id="118681_405_0" depart="25237.00" departLane="4999334_0" departPos="4.40" departSpeed="0.00" departDelay="0.00" arrival="25345.00" arrivalLane="-31864804_1" arrivalPos="70.23" arrivalSpeed="14.11" duration="108.00" routeLength="615.92" waitingTime="52.00" waitingCount="1" stopTime="0.00" timeLoss="66.74" rerouteNo="0" devices="tripinfo_118681_405_0" vType="pkw" speedFactor="1.10" vaporized=""/>
    <tripinfo id="163684_422_0" depart="25294.00" departLane="4045330_0" departPos="4.40" departSpeed="0.00" departDelay="0.00" arrival="25345.00" arrivalLane="241660955#17_0" arrivalPos="110.13" arrivalSpeed="11.83" duration="51.00" routeLength="473.04" waitingTime="0.00" waitingCount="0" stopTime="0.00" timeLoss="5.84" rerouteNo="0" devices="tripinfo_163684_422_0" vType="pkw" speedFactor="0.89" vaporized=""/>
    <tripinfo id="165473_423_0" depart="25267.00" departLane="41910186_0" departPos="4.40" departSpeed="0.00" departDelay="0.00" arrival="25347.00" arrivalLane="-31864804_0" arrivalPos="70.23" arrivalSpeed="13.57" duration="80.00" routeLength="565.92" waitingTime="26.00" waitingCount="1" stopTime="0.00" timeLoss="39.01" rerouteNo="0" devices="tripinfo_165473_423_0" vType="pkw" speedFactor="1.01" vaporized=""/>
    <tripinfo id="164227_422_0" depart="25285.00" departLane="4999334_0" departPos="4.40" departSpeed="0.00" departDelay="0.00" arrival="25349.00" arrivalLane="-31864804_0" arrivalPos="70.23" arrivalSpeed="12.25" duration="64.00" routeLength="615.92" waitingTime="3.00" waitingCount="1" stopTime="0.00" timeLoss="14.92" rerouteNo="0" devices="tripinfo_164227_422_0" vType="pkw" speedFactor="0.91" vaporized=""/>
    <tripinfo id="143042_415_0" depart="25300.00" departLane="31864804_0" departPos="4.40" departSpeed="0.00" departDelay="0.00" arrival="25349.00" arrivalLane="4145590#0_0" arrivalPos="95.58" arrivalSpeed="11.88" duration="49.00" routeLength="195.56" waitingTime="24.00" waitingCount="1" stopTime="0.00" timeLoss="32.15" rerouteNo="0" devices="tripinfo_143042_415_0" vType="pkw" speedFactor="0.88" vaporized=""/>
    <tripinfo id="101678_396_0" depart="25320.00" departLane="-41910185#2_0" departPos="4.40" departSpeed="0.00" departDelay="0.00" arrival="25351.00" arrivalLane="-4045329#5_0" arrivalPos="121.37" arrivalSpeed="11.87" duration="31.00" routeLength="266.80" waitingTime="0.00" waitingCount="0" stopTime="0.00" timeLoss="4.10" rerouteNo="0" devices="tripinfo_101678_396_0" vType="pkw" speedFactor="0.95" vaporized=""/>
    <tripinfo id="149020_417_0" depart="25323.00" departLane="4999331#0_0" departPos="4.40" departSpeed="0.00" departDelay="0.00" arrival="25351.00" arrivalLane="4999331#0_0" arrivalPos="373.64" arrivalSpeed="15.12" duration="28.00" routeLength="369.24" waitingTime="0.00" waitingCount="0" stopTime="0.00" timeLoss="4.13" rerouteNo="0" devices="tripinfo_149020_417_0" vType="pkw" speedFactor="1.14" vaporized=""/>
    <tripinfo id="122325_406_0" depart="25208.00" departLane="319261593#12_0" departPos="4.40" departSpeed="0.00" departDelay="0.00" arrival="25353.00" arrivalLane="-31864804_0" arrivalPos="70.23" arrivalSpeed="11.09" duration="145.00" routeLength="352.97" waitingTime="102.00" waitingCount="2" stopTime="0.00" timeLoss="114.98" rerouteNo="0" devices="tripinfo_122325_406_0" vType="pkw" speedFactor="0.85" vaporized=""/>
    <tripinfo id="173797_427_0" depart="25226.00" departLane="-41910186_0" departPos="4.40" departSpeed="0.00" departDelay="0.00" arrival="25353.00" arrivalLane="4145590#0_1" arrivalPos="95.58" arrivalSpeed="13.49" duration="127.00" routeLength="894.77" waitingTime="47.00" waitingCount="2" stopTime="0.00" timeLoss="62.59" rerouteNo="0" devices="tripinfo_173797_427_0" vType="pkw" speedFactor="1.01" vaporized=""/>
    <tripinfo id="153968_420_0" depart="25227.00" departLane="319261593#12_0" departPos="4.40" departSpeed="0.00" departDelay="0.00" arrival="25355.00" arrivalLane="-31864804_0" arrivalPos="70.23" arrivalSpeed="13.24" duration="128.00" routeLength="352.97" waitingTime="86.00" waitingCount="2" stopTime="0.00" timeLoss="100.91" rerouteNo="0" devices="tripinfo_153968_420_0" vType="pkw" speedFactor="0.96" vaporized=""/>
    <tripinfo id="162714_422_0" depart="25301.00" departLane="4999334_0" departPos="4.40" departSpeed="0.00" departDelay="0.00" arrival="25356.00" arrivalLane="-4999334_0" arrivalPos="293.22" arrivalSpeed="11.07" duration="55.00" routeLength="586.71" waitingTime="0.00" waitingCount="0" stopTime="0.00" timeLoss="6.21" rerouteNo="0" devices="tripinfo_162714_422_0" vType="pkw" speedFactor="0.87" vaporized=""/>
    <tripinfo id="157649_421_0" depart="25229.00" departLane="319261593#12_0" departPos="4.40" departSpeed="0.00" departDelay="0.00" arrival="25358.00" arrivalLane="-31864804_0" arrivalPos="70.23" arrivalSpeed="9.62" duration="129.00" routeLength="352.97" waitingTime="81.00" waitingCount="2" stopTime="0.00" timeLoss="95.80" rerouteNo="0" devices="tripinfo_157649_421_0" vType="pkw" speedFactor="0.78" vaporized=""/>
    <tripinfo id="81323_389_0" depart="25329.00" departLane="41910186_0" departPos="4.40" departSpeed="0.00" departDelay="2.00" arrival="25366.00" arrivalLane="41910186_0" arrivalPos="324.91" arrivalSpeed="9.93" duration="37.00" routeLength="320.51" waitingTime="0.00" waitingCount="0" stopTime="0.00" timeLoss="12.73" rerouteNo="0" devices="tripinfo_81323_389_0" vType="pkw" speedFactor="0.98" vaporized=""/>
    <tripinfo id="148463_417_0" depart="25318.00" departLane="41910186_0" departPos="4.40" departSpeed="0.00" departDelay="0.00" arrival="25371.00" arrivalLane="4145590#0_1" arrivalPos="95.58" arrivalSpeed="12.90" duration="53.00" routeLength="565.60" waitingTime="0.00" waitingCount="0" stopTime="0.00" timeLoss="11.31" rerouteNo="0" devices="tripinfo_148463_417_0" vType="pkw" speedFactor="0.98" vaporized=""/>
    <tripinfo id="158960_421_0" depart="25321.00" departLane="4045330_0" departPos="4.40" departSpeed="0.00" departDelay="0.00" arrival="25371.00" arrivalLane="241660955#17_0" arrivalPos="110.13" arrivalSpeed="12.04" duration="50.00" routeLength="473.04" waitingTime="0.00" waitingCount="0" stopTime="0.00" timeLoss="5.34" rerouteNo="0" devices="tripinfo_158960_421_0" vType="pkw" speedFactor="0.91" vaporized=""/>
    <tripinfo id="139565_413_0" depart="25322.00" departLane="-31800061#0_0" departPos="4.40" departSpeed="0.00" departDelay="0.00" arrival="25373.00" arrivalLane="-41910186_0" arrivalPos="324.50" arrivalSpeed="12.09" duration="51.00" routeLength="450.16" waitingTime="1.00" waitingCount="1" stopTime="0.00" timeLoss="9.92" rerouteNo="0" devices="tripinfo_139565_413_0" vType="pkw" speedFactor="0.93" vaporized=""/>
    <tripinfo id="145057_416_0" depart="25346.00" departLane="241660955#6_0" departPos="4.40" departSpeed="0.00" departDelay="0.00" arrival="25376.00" arrivalLane="-4999334_0" arrivalPos="293.22" arrivalSpeed="14.21" duration="30.00" routeLength="357.51" waitingTime="0.00" waitingCount="0" stopTime="0.00" timeLoss="5.79" rerouteNo="0" devices="tripinfo_145057_416_0" vType="pkw" speedFactor="1.09" vaporized=""/>
    <tripinfo id="167856_425_0" depart="25331.00" departLane="41910184_0" departPos="4.40" departSpeed="0.00" departDelay="0.00" arrival="25378.00" arrivalLane="4145589#0_0" arrivalPos="149.75" arrivalSpeed="7.02" duration="47.00" routeLength="368.38" waitingTime="0.00" waitingCount="0" stopTime="0.00" timeLoss="7.88" rerouteNo="0" devices="tripinfo_167856_425_0" vType="pkw" speedFactor="0.89" vaporized=""/>
    <tripinfo id="141002_414_0" depart="25348.00" departLane="-241660955#17_0" departPos="4.40" departSpeed="0.00" departDelay="1.00" arrival="25380.00" arrivalLane="130160207#0_0" arrivalPos="135.18" arrivalSpeed="8.05" duration="32.00" routeLength="257.86" waitingTime="0.00" waitingCount="0" stopTime="0.00" timeLoss="6.68" rerouteNo="0" devices="tripinfo_141002_414_0" vType="pkw" speedFactor="1.02" vaporized=""/>
    <tripinfo id="125105_406_0" depart="25345.00" departLane="-241660955#17_0" departPos="4.40" departSpeed="0.00" departDelay="0.00" arrival="25382.00" arrivalLane="-41910184_0" arrivalPos="185.90" arrivalSpeed="12.90" duration="37.00" routeLength="442.68" waitingTime="0.00" waitingCount="0" stopTime="0.00" timeLoss="5.13" rerouteNo="0" devices="tripinfo_125105_406_0" vType="pkw" speedFactor="1.02" vaporized=""/>
    <tripinfo id="134587_411_0" depart="25351.00" departLane="-241660955#17_0" departPos="4.40" departSpeed="0.00" departDelay="2.00" arrival="25384.00" arrivalLane="-41910184_0" arrivalPos="185.90" arrivalSpeed="15.44" duration="33.00" routeLength="442.68" waitingTime="0.00" waitingCount="0" stopTime="0.00" timeLoss="5.03" rerouteNo="0" devices="tripinfo_134587_411_0" vType="pkw" speedFactor="1.15" vaporized=""/>
    <tripinfo id="120846_405_0" depart="25207.00" departLane="31864804_0" departPos="4.40" departSpeed="0.00" departDelay="0.00" arrival="25385.00" arrivalLane="-4999334_0" arrivalPos="293.22" arrivalSpeed="11.28" duration="178.00" routeLength="621.86" waitingTime="112.00" waitingCount="1" stopTime="0.00" timeLoss="124.89" rerouteNo="0" devices="tripinfo_120846_405_0" vType="pkw" speedFactor="0.85" vaporized=""/>
    <tripinfo id="111594_401_0" depart="25354.00" departLane="-41910185#2_0" departPos="4.40" departSpeed="0.00" departDelay="0.00" arrival="25387.00" arrivalLane="-4045329#5_0" arrivalPos="121.37" arrivalSpeed="12.01" duration="33.00" routeLength="266.80" waitingTime="0.00" waitingCount="0" stopTime="0.00" timeLoss="4.20" rerouteNo="0" devices="tripinfo_111594_401_0" vType="pkw" speedFactor="0.88" vaporized=""/>
    <tripinfo id="143018_415_0" depart="25340.00" departLane="-41910185#2_0" departPos="4.40" departSpeed="0.00" departDelay="0.00" arrival="25389.00" arrivalLane="241660955#17_0" arrivalPos="110.13" arrivalSpeed="13.79" duration="49.00" routeLength="545.38" waitingTime="0.00" waitingCount="0" stopTime="0.00" timeLoss="4.82" rerouteNo="0" devices="tripinfo_143018_415_0" vType="pkw" speedFactor="1.03" vaporized=""/>
    <tripinfo id="96715_395_0" depart="25326.00" departLane="41910186_0" departPos="4.40" departSpeed="0.00" departDelay="1.00" arrival="25391.00" arrivalLane="4145590#0_1" arrivalPos="95.58" arrivalSpeed="14.53" duration="65.00" routeLength="565.60" waitingTime="3.00" waitingCount="1" stopTime="0.00" timeLoss="25.71" rerouteNo="0" devices="tripinfo_96715_395_0" vType="pkw" speedFactor="1.05" vaporized=""/>
    <tripinfo id="162626_422_0" depart="25367.00" departLane="-41910185#2_0" departPos="4.40" departSpeed="0.00" departDelay="0.00" arrival="25395.00" arrivalLane="-4045329#5_0" arrivalPos="121.37" arrivalSpeed="13.80" duration="28.00" routeLength="266.80" waitingTime="0.00" waitingCount="0" stopTime="0.00" timeLoss="3.12" rerouteNo="0" devices="tripinfo_162626_422_0" vType="pkw" speedFactor="1.03" vaporized=""/>
    <tripinfo id="159648_421_0" depart="25358.00" departLane="-241660955#17_0" departPos="4.40" departSpeed="0.00" departDelay="0.00" arrival="25397.00" arrivalLane="-41910184_0" arrivalPos="185.90" arrivalSpeed="12.66" duration="39.00" routeLength="442.68" waitingTime="0.00" waitingCount="0" stopTime="0.00" timeLoss="4.84" rerouteNo="0" devices="tripinfo_159648_421_0" vType="pkw" speedFactor="0.96" vaporized=""/>
    <tripinfo id="141257_415_0" depart="25358.00" departLane="41910184_0" departPos="4.40" departSpeed="0.00" departDelay="0.00" arrival="25403.00" arrivalLane="130160207#0_0" arrivalPos="135.18" arrivalSpeed="8.52" duration="45.00" routeLength="470.65" waitingTime="0.00" waitingCount="0" stopTime="0.00" timeLoss="7.15" rerouteNo="0" devices="tripinfo_141257_415_0" vType="pkw" speedFactor="1.09" vaporized=""/>
    <tripinfo id="136360_411_0" depart="25385.00" departLane="-31800061#0_0" departPos="4.40" departSpeed="0.00" departDelay="0.00" arrival="25408.00" arrivalLane="241660955#4_0" arrivalPos="66.03" arrivalSpeed="13.92" duration="23.00" routeLength="182.28" waitingTime="0.00" waitingCount="0" stopTime="0.00" timeLoss="4.44" rerouteNo="0" devices="tripinfo_136360_411_0" vType="pkw" speedFactor="1.01" vaporized=""/>
    <tripinfo id="152489_419_0" depart="25386.00" departLane="-41910185#2_0" departPos="4.40" departSpeed="0.00" departDelay="0.00" arrival="25413.00" arrivalLane="-4045329#5_0" arrivalPos="121.37" arrivalSpeed="14.01" duration="27.00" routeLength="266.80" waitingTime="0.00" waitingCount="0" stopTime="0.00" timeLoss="3.69" rerouteNo="0" devices="tripinfo_152489_419_0" vType="pkw" speedFactor="1.10" vaporized=""/>
    <tripinfo id="111902_401_0" depart="25381.00" departLane="-241660955#17_0" departPos="4.40" departSpeed="0.00" departDelay="0.00" arrival="25417.00" arrivalLane="-41910184_0" arrivalPos="185.90" arrivalSpeed="14.04" duration="36.00" routeLength="442.68" waitingTime="0.00" waitingCount="0" stopTime="0.00" timeLoss="4.24" rerouteNo="0" devices="tripinfo_111902_401_0" vType="pkw" speedFactor="1.02" vaporized=""/>
    <tripinfo id="143740_416_0" depart="25408.00" departLane="-41910184_0" departPos="4.40" departSpeed="0.00" departDelay="0.00" arrival="25426.00" arrivalLane="-41910184_0" arrivalPos="185.90" arrivalSpeed="12.46" duration="18.00" routeLength="181.50" waitingTime="0.00" waitingCount="0" stopTime="0.00" timeLoss="3.64" rerouteNo="0" devices="tripinfo_143740_416_0" vType="pkw" speedFactor="0.95" vaporized=""/>
    <tripinfo id="173102_427_0" depart="25405.00" departLane="4045330_0" departPos="4.40" departSpeed="0.00" departDelay="0.00" arrival="25444.00" arrivalLane="-41910184_0" arrivalPos="185.90" arrivalSpeed="15.28" duration="39.00" routeLength="409.76" waitingTime="0.00" waitingCount="0" stopTime="0.00" timeLoss="6.59" rerouteNo="0" devices="tripinfo_173102_427_0" vType="pkw" speedFactor="1.11" vaporized=""/>
    <tripinfo id="158131_421_0" depart="25428.00" departLane="241660955#13_0" departPos="4.40" departSpeed="0.00" departDelay="0.00" arrival="25447.00" arrivalLane="-41910184_0" arrivalPos="185.90" arrivalSpeed="13.43" duration="19.00" routeLength="216.76" waitingTime="0.00" waitingCount="0" stopTime="0.00" timeLoss="3.38" rerouteNo="0" devices="tripinfo_158131_421_0" vType="pkw" speedFactor="1.01" vaporized=""/>
    <tripinfo id="171729_426_0" depart="25414.00" departLane="-241660955#17_0" departPos="4.40" departSpeed="0.00" departDelay="0.00" arrival="25451.00" arrivalLane="-41910184_0" arrivalPos="185.90" arrivalSpeed="14.10" duration="37.00" routeLength="442.68" waitingTime="0.00" waitingCount="0" stopTime="0.00" timeLoss="4.87" rerouteNo="0" devices="tripinfo_171729_426_0" vType="pkw" speedFactor="1.02" vaporized=""/>
    <tripinfo id="147791_416_0" depart="25413.00" departLane="-31800061#0_0" departPos="4.40" departSpeed="0.00" departDelay="0.00" arrival="25453.00" arrivalLane="-41910186_0" arrivalPos="324.50" arrivalSpeed="14.18" duration="40.00" routeLength="450.16" waitingTime="0.00" waitingCount="0" stopTime="0.00" timeLoss="5.47" rerouteNo="0" devices="tripinfo_147791_416_0" vType="pkw" speedFactor="1.10" vaporized=""/>
    <tripinfo id="149275_417_0" depart="25409.00" departLane="41910184_0" departPos="4.40" departSpeed="0.00" departDelay="0.00" arrival="25456.00" arrivalLane="241660955#17_1" arrivalPos="110.13" arrivalSpeed="11.77" duration="47.00" routeLength="451.07" waitingTime="0.00" waitingCount="0" stopTime="0.00" timeLoss="10.23" rerouteNo="0" devices="tripinfo_149275_417_0" vType="pkw" speedFactor="0.90" vaporized=""/>
    <tripinfo id="146011_416_0" depart="25444.00" departLane="-4045329#5_0" departPos="4.40" departSpeed="0.00" departDelay="0.00" arrival="25457.00" arrivalLane="-4045329#5_0" arrivalPos="121.37" arrivalSpeed="13.76" duration="13.00" routeLength="116.97" waitingTime="0.00" waitingCount="0" stopTime="0.00" timeLoss="3.73" rerouteNo="0" devices="tripinfo_146011_416_0" vType="pkw" speedFactor="1.00" vaporized=""/>