<?xml version="1.0" encoding="UTF-8"?>

<!-- generated on 2023-08-31 13:46:27 by Eclipse SUMO libsumo Version 1.18.0
<configuration xmlns:xsi="http://www.w3.org/2001/XMLSchema-instance" xsi:noNamespaceSchemaLocation="http://sumo.dlr.de/xsd/libsumoConfiguration.xsd">

    <input>
        <net-file value="/home/stefan/RESCO/./environments/cologne3/cologne3.net.xml"/>
        <route-files value="/home/stefan/RESCO/./environments/cologne3/cologne3.rou.xml"/>
    </input>

    <output>
        <tripinfo-output value="/home/stefan/results/RAINBOW-tr0-cologne3-0-drq_norm-wait_norm/tripinfo_87.xml"/>
        <tripinfo-output.write-unfinished value="true"/>
    </output>

    <time>
        <begin value="25200"/>
        <end value="28800"/>
    </time>

    <processing>
        <time-to-teleport value="-1"/>
    </processing>

    <report>
        <no-warnings value="True"/>
        <no-step-log value="True"/>
    </report>

    <random_number>
        <random value="true"/>
    </random_number>

</configuration>
-->

<tripinfos xmlns:xsi="http://www.w3.org/2001/XMLSchema-instance" xsi:noNamespaceSchemaLocation="http://sumo.dlr.de/xsd/tripinfo_file.xsd">
    <tripinfo id="160296_421_0" depart="25211.00" departLane="241660955#13_0" departPos="4.40" departSpeed="0.00" departDelay="0.00" arrival="25231.00" arrivalLane="241660955#17_0" arrivalPos="110.13" arrivalSpeed="15.11" duration="20.00" routeLength="247.24" waitingTime="0.00" waitingCount="0" stopTime="0.00" timeLoss="3.22" rerouteNo="0" devices="tripinfo_160296_421_0" vType="pkw" speedFactor="1.11" vaporized=""/>
    <tripinfo id="122325_406_0" depart="25208.00" departLane="319261593#12_0" departPos="4.40" departSpeed="0.00" departDelay="0.00" arrival="25240.00" arrivalLane="-31864804_0" arrivalPos="70.23" arrivalSpeed="13.29" duration="32.00" routeLength="352.97" waitingTime="0.00" waitingCount="0" stopTime="0.00" timeLoss="5.86" rerouteNo="0" devices="tripinfo_122325_406_0" vType="pkw" speedFactor="1.01" vaporized=""/>
    <tripinfo id="73303_385_0" depart="25202.00" departLane="319261593#12_0" departPos="4.40" departSpeed="0.00" departDelay="0.00" arrival="25243.00" arrivalLane="4145590#0_0" arrivalPos="95.58" arrivalSpeed="13.33" duration="41.00" routeLength="408.95" waitingTime="2.00" waitingCount="1" stopTime="0.00" timeLoss="9.99" rerouteNo="0" devices="tripinfo_73303_385_0" vType="pkw" speedFactor="0.98" vaporized=""/>
    <tripinfo id="98545_395_0" depart="25206.00" departLane="4045330_0" departPos="4.40" departSpeed="0.00" departDelay="0.00" arrival="25247.00" arrivalLane="241660955#17_0" arrivalPos="110.13" arrivalSpeed="15.51" duration="41.00" routeLength="473.04" waitingTime="0.00" waitingCount="0" stopTime="0.00" timeLoss="5.10" rerouteNo="0" devices="tripinfo_98545_395_0" vType="pkw" speedFactor="1.14" vaporized=""/>
    <tripinfo id="113109_402_0" depart="25203.00" departLane="4999334_0" departPos="4.40" departSpeed="0.00" departDelay="0.00" arrival="25254.00" arrivalLane="-31864804_0" arrivalPos="70.23" arrivalSpeed="13.59" duration="51.00" routeLength="615.92" waitingTime="0.00" waitingCount="0" stopTime="0.00" timeLoss="6.44" rerouteNo="0" devices="tripinfo_113109_402_0" vType="pkw" speedFactor="1.01" vaporized=""/>
    <tripinfo id="169122_425_0" depart="25229.00" departLane="-4999334_0" departPos="4.40" departSpeed="0.00" departDelay="1.00" arrival="25254.00" arrivalLane="-4999334_0" arrivalPos="293.22" arrivalSpeed="13.10" duration="25.00" routeLength="288.82" waitingTime="0.00" waitingCount="0" stopTime="0.00" timeLoss="3.77" rerouteNo="0" devices="tripinfo_169122_425_0" vType="pkw" speedFactor="1.02" vaporized=""/>
    <tripinfo id="120846_405_0" depart="25207.00" departLane="31864804_0" departPos="4.40" departSpeed="0.00" departDelay="0.00" arrival="25255.00" arrivalLane="-4999334_0" arrivalPos="293.22" arrivalSpeed="15.06" duration="48.00" routeLength="621.86" waitingTime="0.00" waitingCount="0" stopTime="0.00" timeLoss="13.31" rerouteNo="0" devices="tripinfo_120846_405_0" vType="pkw" speedFactor="1.30" vaporized=""/>
    <tripinfo id="163719_422_0" depart="25211.00" departLane="4045330_0" departPos="4.40" departSpeed="0.00" departDelay="0.00" arrival="25255.00" arrivalLane="241660955#17_0" arrivalPos="110.13" arrivalSpeed="14.49" duration="44.00" routeLength="473.04" waitingTime="0.00" waitingCount="0" stopTime="0.00" timeLoss="5.48" rerouteNo="0" devices="tripinfo_163719_422_0" vType="pkw" speedFactor="1.06" vaporized=""/>
    <tripinfo id="68266_381_0" depart="25229.00" departLane="4045329#5_0" departPos="4.40" departSpeed="0.00" departDelay="0.00" arrival="25258.00" arrivalLane="41910185#0_0" arrivalPos="127.86" arrivalSpeed="7.72" duration="29.00" routeLength="267.37" waitingTime="0.00" waitingCount="0" stopTime="0.00" timeLoss="4.41" rerouteNo="0" devices="tripinfo_68266_381_0" vType="pkw" speedFactor="1.07" vaporized=""/>
    <tripinfo id="153968_420_0" depart="25227.00" departLane="319261593#12_0" departPos="4.40" departSpeed="0.00" departDelay="0.00" arrival="25260.00" arrivalLane="-31864804_0" arrivalPos="70.23" arrivalSpeed="12.60" duration="33.00" routeLength="352.97" waitingTime="0.00" waitingCount="0" stopTime="0.00" timeLoss="4.79" rerouteNo="0" devices="tripinfo_153968_420_0" vType="pkw" speedFactor="0.92" vaporized=""/>
    <tripinfo id="157649_421_0" depart="25229.00" departLane="319261593#12_0" departPos="4.40" departSpeed="0.00" departDelay="0.00" arrival="25261.00" arrivalLane="-31864804_0" arrivalPos="70.23" arrivalSpeed="13.56" duration="32.00" routeLength="352.97" waitingTime="1.00" waitingCount="1" stopTime="0.00" timeLoss="7.96" rerouteNo="0" devices="tripinfo_157649_421_0" vType="pkw" speedFactor="1.06" vaporized=""/>
    <tripinfo id="140163_414_0" depart="25244.00" departLane="241660955#13_0" departPos="4.40" departSpeed="0.00" departDelay="0.00" arrival="25261.00" arrivalLane="-41910184_0" arrivalPos="185.90" arrivalSpeed="16.06" duration="17.00" routeLength="216.76" waitingTime="0.00" waitingCount="0" stopTime="0.00" timeLoss="3.31" rerouteNo="0" devices="tripinfo_140163_414_0" vType="pkw" speedFactor="1.16" vaporized=""/>
    <tripinfo id="141383_415_0" depart="25216.00" departLane="41910184_0" departPos="4.40" departSpeed="0.00" departDelay="0.00" arrival="25262.00" arrivalLane="4145589#0_0" arrivalPos="149.75" arrivalSpeed="7.09" duration="46.00" routeLength="368.38" waitingTime="0.00" waitingCount="0" stopTime="0.00" timeLoss="10.67" rerouteNo="0" devices="tripinfo_141383_415_0" vType="pkw" speedFactor="0.99" vaporized=""/>
    <tripinfo id="132667_410_0" depart="25212.00" departLane="-31800061#0_0" departPos="4.40" departSpeed="0.00" departDelay="0.00" arrival="25263.00" arrivalLane="-4999334_0" arrivalPos="293.22" arrivalSpeed="11.19" duration="51.00" routeLength="492.72" waitingTime="0.00" waitingCount="0" stopTime="0.00" timeLoss="5.61" rerouteNo="0" devices="tripinfo_132667_410_0" vType="pkw" speedFactor="0.90" vaporized=""/>
    <tripinfo id="81370_389_0" depart="25231.00" departLane="4045329#5_0" departPos="4.40" departSpeed="0.00" departDelay="0.00" arrival="25265.00" arrivalLane="-4045330_0" arrivalPos="128.76" arrivalSpeed="9.52" duration="34.00" routeLength="329.66" waitingTime="0.00" waitingCount="0" stopTime="0.00" timeLoss="8.73" rerouteNo="0" devices="tripinfo_81370_389_0" vType="pkw" speedFactor="1.22" vaporized=""/>
    <tripinfo id="174028_427_0" depart="25233.00" departLane="319261593#12_0" departPos="4.40" departSpeed="0.00" departDelay="1.00" arrival="25267.00" arrivalLane="4145590#0_0" arrivalPos="95.58" arrivalSpeed="15.42" duration="34.00" routeLength="408.95" waitingTime="0.00" waitingCount="0" stopTime="0.00" timeLoss="8.24" rerouteNo="0" devices="tripinfo_174028_427_0" vType="pkw" speedFactor="1.14" vaporized=""/>
    <tripinfo id="131963_410_0" depart="25223.00" departLane="-31800061#0_0" departPos="4.40" departSpeed="0.00" departDelay="0.00" arrival="25271.00" arrivalLane="-4999334_0" arrivalPos="293.22" arrivalSpeed="14.30" duration="48.00" routeLength="492.72" waitingTime="0.00" waitingCount="0" stopTime="0.00" timeLoss="9.47" rerouteNo="0" devices="tripinfo_131963_410_0" vType="pkw" speedFactor="1.06" vaporized=""/>
    <tripinfo id="149066_417_0" depart="25235.00" departLane="31864804_0" departPos="4.40" departSpeed="0.00" departDelay="0.00" arrival="25280.00" arrivalLane="4999331#0_0" arrivalPos="373.64" arrivalSpeed="12.31" duration="45.00" routeLength="492.92" waitingTime="0.00" waitingCount="0" stopTime="0.00" timeLoss="6.65" rerouteNo="0" devices="tripinfo_149066_417_0" vType="pkw" speedFactor="0.94" vaporized=""/>
    <tripinfo id="111993_401_0" depart="25251.00" departLane="4045329#5_0" departPos="4.40" departSpeed="0.00" departDelay="0.00" arrival="25280.00" arrivalLane="41910185#0_0" arrivalPos="127.86" arrivalSpeed="8.38" duration="29.00" routeLength="267.37" waitingTime="0.00" waitingCount="0" stopTime="0.00" timeLoss="5.69" rerouteNo="0" devices="tripinfo_111993_401_0" vType="pkw" speedFactor="1.16" vaporized=""/>
    <tripinfo id="85241_390_0" depart="25243.00" departLane="41910184_0" departPos="4.40" departSpeed="0.00" departDelay="1.00" arrival="25283.00" arrivalLane="241660955#17_1" arrivalPos="110.13" arrivalSpeed="14.11" duration="40.00" routeLength="451.07" waitingTime="0.00" waitingCount="0" stopTime="0.00" timeLoss="7.66" rerouteNo="0" devices="tripinfo_85241_390_0" vType="pkw" speedFactor="1.03" vaporized=""/>
    <tripinfo id="83081_390_0" depart="25228.00" departLane="31864804_0" departPos="4.40" departSpeed="0.00" departDelay="0.00" arrival="25284.00" arrivalLane="-4999334_0" arrivalPos="293.22" arrivalSpeed="13.97" duration="56.00" routeLength="688.22" waitingTime="0.00" waitingCount="0" stopTime="0.00" timeLoss="7.19" rerouteNo="0" devices="tripinfo_83081_390_0" vType="pkw" speedFactor="1.02" vaporized=""/>
    <tripinfo id="118681_405_0" depart="25237.00" departLane="4999334_0" departPos="4.40" departSpeed="0.00" departDelay="0.00" arrival="25284.00" arrivalLane="-31864804_0" arrivalPos="70.23" arrivalSpeed="16.31" duration="47.00" routeLength="615.92" waitingTime="0.00" waitingCount="0" stopTime="0.00" timeLoss="8.40" rerouteNo="0" devices="tripinfo_118681_405_0" vType="pkw" speedFactor="1.18" vaporized=""/>
    <tripinfo id="166826_424_0" depart="25240.00" departLane="41910184_0" departPos="4.40" departSpeed="0.00" departDelay="0.00" arrival="25284.00" arrivalLane="4145589#0_0" arrivalPos="149.75" arrivalSpeed="7.35" duration="44.00" routeLength="368.38" waitingTime="0.00" waitingCount="0" stopTime="0.00" timeLoss="6.70" rerouteNo="0" devices="tripinfo_166826_424_0" vType="pkw" speedFactor="0.91" vaporized=""/>
    <tripinfo id="161578_421_0" depart="25263.00" departLane="-4999334_0" departPos="4.40" departSpeed="0.00" departDelay="0.00" arrival="25288.00" arrivalLane="-4999334_0" arrivalPos="293.22" arrivalSpeed="12.69" duration="25.00" routeLength="288.82" waitingTime="0.00" waitingCount="0" stopTime="0.00" timeLoss="4.05" rerouteNo="0" devices="tripinfo_161578_421_0" vType="pkw" speedFactor="1.00" vaporized=""/>
    <tripinfo id="168647_425_0" depart="25266.00" departLane="-4999334_0" departPos="4.40" departSpeed="0.00" departDelay="0.00" arrival="25290.00" arrivalLane="-4999334_0" arrivalPos="293.22" arrivalSpeed="14.22" duration="24.00" routeLength="288.82" waitingTime="0.00" waitingCount="0" stopTime="0.00" timeLoss="3.79" rerouteNo="0" devices="tripinfo_168647_425_0" vType="pkw" speedFactor="1.04" vaporized=""/>
    <tripinfo id="161841_421_0" depart="25244.00" departLane="31864804_0" departPos="4.40" departSpeed="0.00" departDelay="0.00" arrival="25292.00" arrivalLane="4999331#0_0" arrivalPos="373.64" arrivalSpeed="11.09" duration="48.00" routeLength="492.92" waitingTime="0.00" waitingCount="0" stopTime="0.00" timeLoss="6.44" rerouteNo="0" devices="tripinfo_161841_421_0" vType="pkw" speedFactor="0.85" vaporized=""/>
    <tripinfo id="141513_415_0" depart="25233.00" departLane="4999334_0" departPos="4.40" departSpeed="0.00" departDelay="0.00" arrival="25294.00" arrivalLane="4145590#0_1" arrivalPos="95.58" arrivalSpeed="13.18" duration="61.00" routeLength="615.60" waitingTime="4.00" waitingCount="1" stopTime="0.00" timeLoss="15.94" rerouteNo="0" devices="tripinfo_141513_415_0" vType="pkw" speedFactor="0.99" vaporized=""/>
    <tripinfo id="100301_396_0" depart="25260.00" departLane="-241660955#17_0" departPos="4.40" departSpeed="0.00" departDelay="0.00" arrival="25296.00" arrivalLane="130160207#0_0" arrivalPos="135.18" arrivalSpeed="8.38" duration="36.00" routeLength="257.86" waitingTime="1.00" waitingCount="1" stopTime="0.00" timeLoss="10.34" rerouteNo="0" devices="tripinfo_100301_396_0" vType="pkw" speedFactor="1.03" vaporized=""/>
    <tripinfo id="137478_412_0" depart="25248.00" departLane="4045330_0" departPos="4.40" departSpeed="0.00" departDelay="0.00" arrival="25303.00" arrivalLane="241660955#17_0" arrivalPos="110.13" arrivalSpeed="10.18" duration="55.00" routeLength="473.04" waitingTime="0.00" waitingCount="0" stopTime="0.00" timeLoss="5.88" rerouteNo="0" devices="tripinfo_137478_412_0" vType="pkw" speedFactor="0.81" vaporized=""/>
    <tripinfo id="160813_421_0" depart="25253.00" departLane="41910184_0" departPos="4.40" departSpeed="0.00" departDelay="0.00" arrival="25303.00" arrivalLane="4145589#0_0" arrivalPos="149.75" arrivalSpeed="6.46" duration="50.00" routeLength="368.38" waitingTime="0.00" waitingCount="0" stopTime="0.00" timeLoss="6.96" rerouteNo="0" devices="tripinfo_160813_421_0" vType="pkw" speedFactor="0.79" vaporized=""/>
    <tripinfo id="155359_420_0" depart="25288.00" departLane="31864804_0" departPos="4.40" departSpeed="0.00" departDelay="0.00" arrival="25305.00" arrivalLane="-31864804_1" arrivalPos="70.23" arrivalSpeed="10.91" duration="17.00" routeLength="140.71" waitingTime="0.00" waitingCount="0" stopTime="0.00" timeLoss="4.71" rerouteNo="0" devices="tripinfo_155359_420_0" vType="pkw" speedFactor="0.87" vaporized=""/>
    <tripinfo id="173797_427_0" depart="25226.00" departLane="-41910186_0" departPos="4.40" departSpeed="0.00" departDelay="0.00" arrival="25307.00" arrivalLane="4145590#0_1" arrivalPos="95.58" arrivalSpeed="11.69" duration="81.00" routeLength="894.77" waitingTime="0.00" waitingCount="0" stopTime="0.00" timeLoss="8.03" rerouteNo="0" devices="tripinfo_173797_427_0" vType="pkw" speedFactor="0.89" vaporized=""/>
    <tripinfo id="76573_386_0" depart="25275.00" departLane="-241660955#17_0" departPos="4.40" departSpeed="0.00" departDelay="0.00" arrival="25307.00" arrivalLane="130160207#0_0" arrivalPos="135.18" arrivalSpeed="7.90" duration="32.00" routeLength="257.86" waitingTime="0.00" waitingCount="0" stopTime="0.00" timeLoss="6.29" rerouteNo="0" devices="tripinfo_76573_386_0" vType="pkw" speedFactor="1.02" vaporized=""/>
    <tripinfo id="153005_419_0" depart="25270.00" departLane="41910184_0" departPos="4.40" departSpeed="0.00" departDelay="0.00" arrival="25308.00" arrivalLane="4145589#0_0" arrivalPos="149.75" arrivalSpeed="9.13" duration="38.00" routeLength="368.38" waitingTime="0.00" waitingCount="0" stopTime="0.00" timeLoss="9.19" rerouteNo="0" devices="tripinfo_153005_419_0" vType="pkw" speedFactor="1.19" vaporized=""/>
    <tripinfo id="67548_381_0" depart="25289.00" departLane="-41910185#2_0" departPos="4.40" departSpeed="0.00" departDelay="1.00" arrival="25312.00" arrivalLane="241660955#10_0" arrivalPos="56.57" arrivalSpeed="14.65" duration="23.00" routeLength="191.84" waitingTime="0.00" waitingCount="0" stopTime="0.00" timeLoss="3.99" rerouteNo="0" devices="tripinfo_67548_381_0" vType="pkw" speedFactor="1.06" vaporized=""/>
    <tripinfo id="150860_418_0" depart="25276.00" departLane="31864804_0" departPos="4.40" departSpeed="0.00" departDelay="0.00" arrival="25316.00" arrivalLane="4999331#0_0" arrivalPos="373.64" arrivalSpeed="14.10" duration="40.00" routeLength="492.92" waitingTime="0.00" waitingCount="0" stopTime="0.00" timeLoss="7.10" rerouteNo="0" devices="tripinfo_150860_418_0" vType="pkw" speedFactor="1.08" vaporized=""/>
    <tripinfo id="104671_398_0" depart="25286.00" departLane="-41910185#2_0" departPos="4.40" departSpeed="0.00" departDelay="0.00" arrival="25316.00" arrivalLane="241660955#11_0" arrivalPos="73.18" arrivalSpeed="13.15" duration="30.00" routeLength="279.28" waitingTime="0.00" waitingCount="0" stopTime="0.00" timeLoss="4.04" rerouteNo="0" devices="tripinfo_104671_398_0" vType="pkw" speedFactor="1.00" vaporized=""/>
    <tripinfo id="165473_423_0" depart="25267.00" departLane="41910186_0" departPos="4.40" departSpeed="0.00" departDelay="0.00" arrival="25319.00" arrivalLane="-31864804_0" arrivalPos="70.23" arrivalSpeed="12.02" duration="52.00" routeLength="565.92" waitingTime="0.00" waitingCount="0" stopTime="0.00" timeLoss="5.85" rerouteNo="0" devices="tripinfo_165473_423_0" vType="pkw" speedFactor="0.90" vaporized=""/>
    <tripinfo id="157767_421_0" depart="25269.00" departLane="31864804_0" departPos="4.40" departSpeed="0.00" departDelay="0.00" arrival="25319.00" arrivalLane="-41910186_0" arrivalPos="324.50" arrivalSpeed="12.97" duration="50.00" routeLength="571.64" waitingTime="0.00" waitingCount="0" stopTime="0.00" timeLoss="6.26" rerouteNo="0" devices="tripinfo_157767_421_0" vType="pkw" speedFactor="0.94" vaporized=""/>
    <tripinfo id="143042_415_0" depart="25300.00" departLane="31864804_0" departPos="4.40" departSpeed="0.00" departDelay="0.00" arrival="25320.00" arrivalLane="4145590#0_0" arrivalPos="95.58" arrivalSpeed="11.26" duration="20.00" routeLength="195.56" waitingTime="0.00" waitingCount="0" stopTime="0.00" timeLoss="3.65" rerouteNo="0" devices="tripinfo_143042_415_0" vType="pkw" speedFactor="0.89" vaporized=""/>
    <tripinfo id="173932_427_0" depart="25275.00" departLane="-41910185#2_0" departPos="4.40" departSpeed="0.00" departDelay="0.00" arrival="25326.00" arrivalLane="241660955#17_0" arrivalPos="110.13" arrivalSpeed="12.59" duration="51.00" routeLength="545.38" waitingTime="0.00" waitingCount="0" stopTime="0.00" timeLoss="4.46" rerouteNo="0" devices="tripinfo_173932_427_0" vType="pkw" speedFactor="0.97" vaporized=""/>
    <tripinfo id="172020_426_0" depart="25285.00" departLane="31864804_0" departPos="4.40" departSpeed="0.00" departDelay="0.00" arrival="25326.00" arrivalLane="4999331#0_0" arrivalPos="373.64" arrivalSpeed="13.70" duration="41.00" routeLength="492.92" waitingTime="0.00" waitingCount="0" stopTime="0.00" timeLoss="6.13" rerouteNo="0" devices="tripinfo_172020_426_0" vType="pkw" speedFactor="1.04" vaporized=""/>
    <tripinfo id="171899_426_0" depart="25303.00" departLane="-41910185#2_0" departPos="4.40" departSpeed="0.00" departDelay="0.00" arrival="25331.00" arrivalLane="-4045329#5_0" arrivalPos="121.37" arrivalSpeed="14.02" duration="28.00" routeLength="266.80" waitingTime="0.00" waitingCount="0" stopTime="0.00" timeLoss="3.62" rerouteNo="0" devices="tripinfo_171899_426_0" vType="pkw" speedFactor="1.08" vaporized=""/>
    <tripinfo id="144088_416_0" depart="25303.00" departLane="241660955#6_0" departPos="4.40" departSpeed="0.00" departDelay="0.00" arrival="25333.00" arrivalLane="-4999334_0" arrivalPos="293.22" arrivalSpeed="14.15" duration="30.00" routeLength="357.51" waitingTime="0.00" waitingCount="0" stopTime="0.00" timeLoss="5.97" rerouteNo="0" devices="tripinfo_144088_416_0" vType="pkw" speedFactor="1.09" vaporized=""/>
    <tripinfo id="164227_422_0" depart="25285.00" departLane="4999334_0" departPos="4.40" departSpeed="0.00" departDelay="0.00" arrival="25334.00" arrivalLane="-31864804_0" arrivalPos="70.23" arrivalSpeed="13.91" duration="49.00" routeLength="615.92" waitingTime="0.00" waitingCount="0" stopTime="0.00" timeLoss="5.55" rerouteNo="0" devices="tripinfo_164227_422_0" vType="pkw" speedFactor="1.03" vaporized=""/>
    <tripinfo id="163684_422_0" depart="25294.00" departLane="4045330_0" departPos="4.40" departSpeed="0.00" departDelay="0.00" arrival="25338.00" arrivalLane="241660955#17_0" arrivalPos="110.13" arrivalSpeed="14.83" duration="44.00" routeLength="473.04" waitingTime="0.00" waitingCount="0" stopTime="0.00" timeLoss="5.69" rerouteNo="0" devices="tripinfo_163684_422_0" vType="pkw" speedFactor="1.07" vaporized=""/>
    <tripinfo id="134193_411_0" depart="25298.00" departLane="31864804_0" departPos="4.40" departSpeed="0.00" departDelay="0.00" arrival="25339.00" arrivalLane="4999331#0_0" arrivalPos="373.64" arrivalSpeed="15.24" duration="41.00" routeLength="492.92" waitingTime="0.00" waitingCount="0" stopTime="0.00" timeLoss="8.63" rerouteNo="0" devices="tripinfo_134193_411_0" vType="pkw" speedFactor="1.11" vaporized=""/>
    <tripinfo id="85782_390_0" depart="25303.00" departLane="31864804_0" departPos="4.40" departSpeed="0.00" departDelay="3.00" arrival="25341.00" arrivalLane="4999331#0_1" arrivalPos="373.64" arrivalSpeed="15.73" duration="38.00" routeLength="492.92" waitingTime="0.00" waitingCount="0" stopTime="0.00" timeLoss="7.50" rerouteNo="0" devices="tripinfo_85782_390_0" vType="pkw" speedFactor="1.16" vaporized=""/>
    <tripinfo id="147727_416_0" depart="25301.00" departLane="41910184_0" departPos="4.40" departSpeed="0.00" departDelay="0.00" arrival="25341.00" arrivalLane="4145589#0_0" arrivalPos="149.75" arrivalSpeed="9.92" duration="40.00" routeLength="368.38" waitingTime="1.00" waitingCount="1" stopTime="0.00" timeLoss="11.23" rerouteNo="0" devices="tripinfo_147727_416_0" vType="pkw" speedFactor="1.21" vaporized=""/>
    <tripinfo id="148750_417_0" depart="25308.00" departLane="31864804_0" departPos="4.40" departSpeed="0.00" departDelay="2.00" arrival="25349.00" arrivalLane="4999331#0_0" arrivalPos="373.64" arrivalSpeed="13.93" duration="41.00" routeLength="492.92" waitingTime="0.00" waitingCount="0" stopTime="0.00" timeLoss="7.93" rerouteNo="0" devices="tripinfo_148750_417_0" vType="pkw" speedFactor="1.08" vaporized=""/>
    <tripinfo id="101678_396_0" depart="25320.00" departLane="-41910185#2_0" departPos="4.40" departSpeed="0.00" departDelay="0.00" arrival="25349.00" arrivalLane="-4045329#5_0" arrivalPos="121.37" arrivalSpeed="13.45" duration="29.00" routeLength="266.80" waitingTime="0.00" waitingCount="0" stopTime="0.00" timeLoss="4.01" rerouteNo="0" devices="tripinfo_101678_396_0" vType="pkw" speedFactor="1.05" vaporized=""/>
    <tripinfo id="162714_422_0" depart="25301.00" departLane="4999334_0" departPos="4.40" departSpeed="0.00" departDelay="0.00" arrival="25351.00" arrivalLane="-4999334_0" arrivalPos="293.22" arrivalSpeed="13.10" duration="50.00" routeLength="586.71" waitingTime="0.00" waitingCount="0" stopTime="0.00" timeLoss="6.04" rerouteNo="0" devices="tripinfo_162714_422_0" vType="pkw" speedFactor="0.97" vaporized=""/>
    <tripinfo id="131068_409_0" depart="25306.00" departLane="4999334_0" departPos="4.40" departSpeed="0.00" departDelay="0.00" arrival="25357.00" arrivalLane="-31864804_0" arrivalPos="70.23" arrivalSpeed="13.00" duration="51.00" routeLength="615.92" waitingTime="0.00" waitingCount="0" stopTime="0.00" timeLoss="6.50" rerouteNo="0" devices="tripinfo_131068_409_0" vType="pkw" speedFactor="1.00" vaporized=""/>
    <tripinfo id="149020_417_0" depart="25325.00" departLane="4999331#0_0" departPos="4.40" departSpeed="0.00" departDelay="2.00" arrival="25360.00" arrivalLane="4999331#0_0" arrivalPos="373.64" arrivalSpeed="11.12" duration="35.00" routeLength="369.24" waitingTime="0.00" waitingCount="0" stopTime="0.00" timeLoss="4.17" rerouteNo="0" devices="tripinfo_149020_417_0" vType="pkw" speedFactor="0.88" vaporized=""/>
    <tripinfo id="81323_389_0" depart="25329.00" departLane="41910186_0" departPos="4.40" departSpeed="0.00" departDelay="2.00" arrival="25362.00" arrivalLane="41910186_0" arrivalPos="324.91" arrivalSpeed="10.56" duration="33.00" routeLength="320.51" waitingTime="0.00" waitingCount="0" stopTime="0.00" timeLoss="7.46" rerouteNo="0" devices="tripinfo_81323_389_0" vType="pkw" speedFactor="0.93" vaporized=""/>
    <tripinfo id="133047_410_0" depart="25318.00" departLane="31864804_0" departPos="4.40" departSpeed="0.00" departDelay="3.00" arrival="25364.00" arrivalLane="4045332#0_0" arrivalPos="114.41" arrivalSpeed="7.80" duration="46.00" routeLength="477.21" waitingTime="0.00" waitingCount="0" stopTime="0.00" timeLoss="5.66" rerouteNo="0" devices="tripinfo_133047_410_0" vType="pkw" speedFactor="1.02" vaporized=""/>
    <tripinfo id="158960_421_0" depart="25321.00" departLane="4045330_0" departPos="4.40" departSpeed="0.00" departDelay="0.00" arrival="25368.00" arrivalLane="241660955#17_0" arrivalPos="110.13" arrivalSpeed="12.88" duration="47.00" routeLength="473.04" waitingTime="0.00" waitingCount="0" stopTime="0.00" timeLoss="5.37" rerouteNo="0" devices="tripinfo_158960_421_0" vType="pkw" speedFactor="0.98" vaporized=""/>
    <tripinfo id="138333_412_0" depart="25315.00" departLane="31864804_0" departPos="4.40" departSpeed="0.00" departDelay="0.00" arrival="25370.00" arrivalLane="-41910186_0" arrivalPos="324.50" arrivalSpeed="11.34" duration="55.00" routeLength="571.64" waitingTime="0.00" waitingCount="0" stopTime="0.00" timeLoss="7.95" rerouteNo="0" devices="tripinfo_138333_412_0" vType="pkw" speedFactor="0.88" vaporized=""/>
    <tripinfo id="167856_425_0" depart="25331.00" departLane="41910184_0" departPos="4.40" departSpeed="0.00" departDelay="0.00" arrival="25370.00" arrivalLane="4145589#0_0" arrivalPos="149.75" arrivalSpeed="8.26" duration="39.00" routeLength="368.38" waitingTime="0.00" waitingCount="0" stopTime="0.00" timeLoss="8.62" rerouteNo="0" devices="tripinfo_167856_425_0" vType="pkw" speedFactor="1.15" vaporized=""/>
    <tripinfo id="139565_413_0" depart="25322.00" departLane="-31800061#0_0" departPos="4.40" departSpeed="0.00" departDelay="0.00" arrival="25371.00" arrivalLane="-41910186_0" arrivalPos="324.50" arrivalSpeed="13.52" duration="49.00" routeLength="450.16" waitingTime="1.00" waitingCount="1" stopTime="0.00" timeLoss="11.51" rerouteNo="0" devices="tripinfo_139565_413_0" vType="pkw" speedFactor="1.01" vaporized=""/>
    <tripinfo id="164244_422_0" depart="25323.00" departLane="41910186_0" departPos="4.40" departSpeed="0.00" departDelay="0.00" arrival="25371.00" arrivalLane="-31864804_0" arrivalPos="70.23" arrivalSpeed="13.25" duration="48.00" routeLength="565.92" waitingTime="0.00" waitingCount="0" stopTime="0.00" timeLoss="5.81" rerouteNo="0" devices="tripinfo_164244_422_0" vType="pkw" speedFactor="0.97" vaporized=""/>
    <tripinfo id="117979_404_0" depart="25310.00" departLane="31864804_0" departPos="4.40" departSpeed="0.00" departDelay="0.00" arrival="25373.00" arrivalLane="-4999334_0" arrivalPos="293.22" arrivalSpeed="12.73" duration="63.00" routeLength="688.22" waitingTime="0.00" waitingCount="0" stopTime="0.00" timeLoss="12.94" rerouteNo="0" devices="tripinfo_117979_404_0" vType="pkw" speedFactor="1.01" vaporized=""/>
    <tripinfo id="145057_416_0" depart="25347.00" departLane="241660955#6_0" departPos="4.40" departSpeed="0.00" departDelay="1.00" arrival="25377.00" arrivalLane="-4999334_0" arrivalPos="293.22" arrivalSpeed="14.77" duration="30.00" routeLength="357.51" waitingTime="0.00" waitingCount="0" stopTime="0.00" timeLoss="5.77" rerouteNo="0" devices="tripinfo_145057_416_0" vType="pkw" speedFactor="1.08" vaporized=""/>
    <tripinfo id="121681_406_0" depart="25357.00" departLane="-5229966#3_0" departPos="4.40" departSpeed="0.00" departDelay="0.00" arrival="25381.00" arrivalLane="-5229966#3_0" arrivalPos="294.55" arrivalSpeed="14.78" duration="24.00" routeLength="290.15" waitingTime="0.00" waitingCount="0" stopTime="0.00" timeLoss="3.91" rerouteNo="0" devices="tripinfo_121681_406_0" vType="pkw" speedFactor="1.08" vaporized=""/>
    <tripinfo id="127107_407_0" depart="25336.00" departLane="31864804_0" departPos="4.40" departSpeed="0.00" departDelay="0.00" arrival="25382.00" arrivalLane="4999331#0_0" arrivalPos="373.64" arrivalSpeed="12.33" duration="46.00" routeLength="492.92" waitingTime="0.00" waitingCount="0" stopTime="0.00" timeLoss="9.39" rerouteNo="0" devices="tripinfo_127107_407_0" vType="pkw" speedFactor="0.97" vaporized=""/>
    <tripinfo id="125105_406_0" depart="25345.00" departLane="-241660955#17_0" departPos="4.40" departSpeed="0.00" departDelay="0.00" arrival="25382.00" arrivalLane="-41910184_0" arrivalPos="185.90" arrivalSpeed="15.18" duration="37.00" routeLength="442.68" waitingTime="0.00" waitingCount="0" stopTime="0.00" timeLoss="7.69" rerouteNo="0" devices="tripinfo_125105_406_0" vType="pkw" speedFactor="1.10" vaporized=""/>
    <tripinfo id="141002_414_0" depart="25348.00" departLane="-241660955#17_0" departPos="4.40" departSpeed="0.00" departDelay="1.00" arrival="25383.00" arrivalLane="130160207#0_0" arrivalPos="135.18" arrivalSpeed="7.34" duration="35.00" routeLength="257.86" waitingTime="0.00" waitingCount="0" stopTime="0.00" timeLoss="7.09" rerouteNo="0" devices="tripinfo_141002_414_0" vType="pkw" speedFactor="0.93" vaporized=""/>
    <tripinfo id="111594_401_0" depart="25354.00" departLane="-41910185#2_0" departPos="4.40" departSpeed="0.00" departDelay="0.00" arrival="25384.00" arrivalLane="-4045329#5_0" arrivalPos="121.37" arrivalSpeed="13.14" duration="30.00" routeLength="266.80" waitingTime="0.00" waitingCount="0" stopTime="0.00" timeLoss="3.66" rerouteNo="0" devices="tripinfo_111594_401_0" vType="pkw" speedFactor="0.97" vaporized=""/>
    <tripinfo id="157831_421_0" depart="25339.00" departLane="31864804_0" departPos="4.40" departSpeed="0.00" departDelay="0.00" arrival="25385.00" arrivalLane="4999331#0_0" arrivalPos="373.64" arrivalSpeed="12.62" duration="46.00" routeLength="492.92" waitingTime="0.00" waitingCount="0" stopTime="0.00" timeLoss="8.06" rerouteNo="0" devices="tripinfo_157831_421_0" vType="pkw" speedFactor="0.94" vaporized=""/>