<?xml version="1.0" encoding="UTF-8"?>

<!-- generated on 2023-08-31 13:45:05 by Eclipse SUMO libsumo Version 1.18.0
<configuration xmlns:xsi="http://www.w3.org/2001/XMLSchema-instance" xsi:noNamespaceSchemaLocation="http://sumo.dlr.de/xsd/libsumoConfiguration.xsd">

    <input>
        <net-file value="/home/stefan/RESCO/./environments/cologne3/cologne3.net.xml"/>
        <route-files value="/home/stefan/RESCO/./environments/cologne3/cologne3.rou.xml"/>
    </input>

    <output>
        <tripinfo-output value="/home/stefan/results/RAINBOW-tr0-cologne3-0-drq_norm-wait_norm/tripinfo_81.xml"/>
        <tripinfo-output.write-unfinished value="true"/>
    </output>

    <time>
        <begin value="25200"/>
        <end value="28800"/>
    </time>

    <processing>
        <time-to-teleport value="-1"/>
    </processing>

    <report>
        <no-warnings value="True"/>
        <no-step-log value="True"/>
    </report>

    <random_number>
        <random value="true"/>
    </random_number>

</configuration>
-->

<tripinfos xmlns:xsi="http://www.w3.org/2001/XMLSchema-instance" xsi:noNamespaceSchemaLocation="http://sumo.dlr.de/xsd/tripinfo_file.xsd">
    <tripinfo id="169122_425_0" depart="25230.00" departLane="-4999334_0" departPos="4.40" departSpeed="0.00" departDelay="2.00" arrival="25253.00" arrivalLane="-4999334_0" arrivalPos="293.22" arrivalSpeed="15.59" duration="23.00" routeLength="288.82" waitingTime="0.00" waitingCount="0" stopTime="0.00" timeLoss="4.09" rerouteNo="0" devices="tripinfo_169122_425_0" vType="pkw" speedFactor="1.14" vaporized=""/>
    <tripinfo id="120846_405_0" depart="25207.00" departLane="31864804_0" departPos="4.40" departSpeed="0.00" departDelay="0.00" arrival="25254.00" arrivalLane="-4999334_0" arrivalPos="293.22" arrivalSpeed="15.78" duration="47.00" routeLength="621.86" waitingTime="0.00" waitingCount="0" stopTime="0.00" timeLoss="8.46" rerouteNo="0" devices="tripinfo_120846_405_0" vType="pkw" speedFactor="1.17" vaporized=""/>
    <tripinfo id="113109_402_0" depart="25203.00" departLane="4999334_0" departPos="4.40" departSpeed="0.00" departDelay="0.00" arrival="25256.00" arrivalLane="-31864804_0" arrivalPos="70.23" arrivalSpeed="13.59" duration="53.00" routeLength="615.92" waitingTime="0.00" waitingCount="0" stopTime="0.00" timeLoss="7.97" rerouteNo="0" devices="tripinfo_113109_402_0" vType="pkw" speedFactor="1.00" vaporized=""/>
    <tripinfo id="68266_381_0" depart="25229.00" departLane="4045329#5_0" departPos="4.40" departSpeed="0.00" departDelay="0.00" arrival="25260.00" arrivalLane="41910185#0_0" arrivalPos="127.86" arrivalSpeed="7.22" duration="31.00" routeLength="267.37" waitingTime="0.00" waitingCount="0" stopTime="0.00" timeLoss="5.45" rerouteNo="0" devices="tripinfo_68266_381_0" vType="pkw" speedFactor="1.02" vaporized=""/>
    <tripinfo id="132667_410_0" depart="25212.00" departLane="-31800061#0_0" departPos="4.40" departSpeed="0.00" departDelay="0.00" arrival="25262.00" arrivalLane="-4999334_0" arrivalPos="293.22" arrivalSpeed="12.22" duration="50.00" routeLength="492.72" waitingTime="0.00" waitingCount="0" stopTime="0.00" timeLoss="7.45" rerouteNo="0" devices="tripinfo_132667_410_0" vType="pkw" speedFactor="0.96" vaporized=""/>
    <tripinfo id="140163_414_0" depart="25244.00" departLane="241660955#13_0" departPos="4.40" departSpeed="0.00" departDelay="0.00" arrival="25264.00" arrivalLane="-41910184_0" arrivalPos="185.90" arrivalSpeed="12.30" duration="20.00" routeLength="216.76" waitingTime="0.00" waitingCount="0" stopTime="0.00" timeLoss="3.67" rerouteNo="0" devices="tripinfo_140163_414_0" vType="pkw" speedFactor="0.97" vaporized=""/>
    <tripinfo id="122325_406_0" depart="25208.00" departLane="319261593#12_0" departPos="4.40" departSpeed="0.00" departDelay="0.00" arrival="25265.00" arrivalLane="-31864804_0" arrivalPos="70.23" arrivalSpeed="15.29" duration="57.00" routeLength="352.97" waitingTime="21.00" waitingCount="1" stopTime="0.00" timeLoss="33.89" rerouteNo="0" devices="tripinfo_122325_406_0" vType="pkw" speedFactor="1.12" vaporized=""/>
    <tripinfo id="141383_415_0" depart="25216.00" departLane="41910184_0" departPos="4.40" departSpeed="0.00" departDelay="0.00" arrival="25267.00" arrivalLane="4145589#0_0" arrivalPos="149.75" arrivalSpeed="6.87" duration="51.00" routeLength="368.38" waitingTime="0.00" waitingCount="0" stopTime="0.00" timeLoss="11.57" rerouteNo="0" devices="tripinfo_141383_415_0" vType="pkw" speedFactor="0.88" vaporized=""/>
    <tripinfo id="131963_410_0" depart="25223.00" departLane="-31800061#0_0" departPos="4.40" departSpeed="0.00" departDelay="0.00" arrival="25267.00" arrivalLane="-4999334_0" arrivalPos="293.22" arrivalSpeed="14.61" duration="44.00" routeLength="492.72" waitingTime="0.00" waitingCount="0" stopTime="0.00" timeLoss="7.56" rerouteNo="0" devices="tripinfo_131963_410_0" vType="pkw" speedFactor="1.11" vaporized=""/>
    <tripinfo id="153968_420_0" depart="25227.00" departLane="319261593#12_0" departPos="4.40" departSpeed="0.00" departDelay="0.00" arrival="25268.00" arrivalLane="-31864804_0" arrivalPos="70.23" arrivalSpeed="11.36" duration="41.00" routeLength="352.97" waitingTime="1.00" waitingCount="1" stopTime="0.00" timeLoss="12.03" rerouteNo="0" devices="tripinfo_153968_420_0" vType="pkw" speedFactor="0.90" vaporized=""/>
    <tripinfo id="73303_385_0" depart="25202.00" departLane="319261593#12_0" departPos="4.40" departSpeed="0.00" departDelay="0.00" arrival="25270.00" arrivalLane="4145590#0_0" arrivalPos="95.58" arrivalSpeed="11.53" duration="68.00" routeLength="408.95" waitingTime="21.00" waitingCount="1" stopTime="0.00" timeLoss="33.12" rerouteNo="0" devices="tripinfo_73303_385_0" vType="pkw" speedFactor="0.86" vaporized=""/>
    <tripinfo id="157649_421_0" depart="25230.00" departLane="319261593#12_0" departPos="4.40" departSpeed="0.00" departDelay="1.00" arrival="25271.00" arrivalLane="-31864804_0" arrivalPos="70.23" arrivalSpeed="11.01" duration="41.00" routeLength="352.97" waitingTime="0.00" waitingCount="0" stopTime="0.00" timeLoss="11.28" rerouteNo="0" devices="tripinfo_157649_421_0" vType="pkw" speedFactor="0.88" vaporized=""/>
    <tripinfo id="140878_414_0" depart="25231.00" departLane="-130160207#0_0" departPos="4.40" departSpeed="0.00" departDelay="0.00" arrival="25271.00" arrivalLane="241660955#17_0" arrivalPos="110.13" arrivalSpeed="12.41" duration="40.00" routeLength="250.75" waitingTime="4.00" waitingCount="1" stopTime="0.00" timeLoss="13.11" rerouteNo="0" devices="tripinfo_140878_414_0" vType="pkw" speedFactor="0.92" vaporized=""/>
    <tripinfo id="81370_389_0" depart="25232.00" departLane="4045329#5_0" departPos="4.40" departSpeed="0.00" departDelay="1.00" arrival="25277.00" arrivalLane="-4045330_0" arrivalPos="128.76" arrivalSpeed="5.88" duration="45.00" routeLength="329.66" waitingTime="0.00" waitingCount="0" stopTime="0.00" timeLoss="7.47" rerouteNo="0" devices="tripinfo_81370_389_0" vType="pkw" speedFactor="0.81" vaporized=""/>
    <tripinfo id="174028_427_0" depart="25232.00" departLane="319261593#12_0" departPos="4.40" departSpeed="0.00" departDelay="0.00" arrival="25277.00" arrivalLane="4145590#0_0" arrivalPos="95.58" arrivalSpeed="12.42" duration="45.00" routeLength="408.95" waitingTime="0.00" waitingCount="0" stopTime="0.00" timeLoss="12.04" rerouteNo="0" devices="tripinfo_174028_427_0" vType="pkw" speedFactor="0.90" vaporized=""/>
    <tripinfo id="163598_422_0" depart="25236.00" departLane="-130160207#0_0" departPos="4.40" departSpeed="0.00" departDelay="0.00" arrival="25280.00" arrivalLane="241660955#17_0" arrivalPos="110.13" arrivalSpeed="14.66" duration="44.00" routeLength="250.75" waitingTime="9.00" waitingCount="2" stopTime="0.00" timeLoss="21.74" rerouteNo="0" devices="tripinfo_163598_422_0" vType="pkw" speedFactor="1.12" vaporized=""/>
    <tripinfo id="166826_424_0" depart="25240.00" departLane="41910184_0" departPos="4.40" departSpeed="0.00" departDelay="0.00" arrival="25280.00" arrivalLane="4145589#0_0" arrivalPos="149.75" arrivalSpeed="8.47" duration="40.00" routeLength="368.38" waitingTime="0.00" waitingCount="0" stopTime="0.00" timeLoss="7.60" rerouteNo="0" devices="tripinfo_166826_424_0" vType="pkw" speedFactor="1.06" vaporized=""/>
    <tripinfo id="161841_421_0" depart="25244.00" departLane="31864804_0" departPos="4.40" departSpeed="0.00" departDelay="0.00" arrival="25281.00" arrivalLane="4999331#0_1" arrivalPos="373.64" arrivalSpeed="16.60" duration="37.00" routeLength="492.92" waitingTime="0.00" waitingCount="0" stopTime="0.00" timeLoss="7.99" rerouteNo="0" devices="tripinfo_161841_421_0" vType="pkw" speedFactor="1.24" vaporized=""/>
    <tripinfo id="111993_401_0" depart="25251.00" departLane="4045329#5_0" departPos="4.40" departSpeed="0.00" departDelay="0.00" arrival="25281.00" arrivalLane="41910185#0_0" arrivalPos="127.86" arrivalSpeed="8.07" duration="30.00" routeLength="267.37" waitingTime="0.00" waitingCount="0" stopTime="0.00" timeLoss="5.08" rerouteNo="0" devices="tripinfo_111993_401_0" vType="pkw" speedFactor="1.07" vaporized=""/>
    <tripinfo id="149066_417_0" depart="25235.00" departLane="31864804_0" departPos="4.40" departSpeed="0.00" departDelay="0.00" arrival="25283.00" arrivalLane="4999331#0_0" arrivalPos="373.64" arrivalSpeed="13.10" duration="48.00" routeLength="492.92" waitingTime="0.00" waitingCount="0" stopTime="0.00" timeLoss="10.21" rerouteNo="0" devices="tripinfo_149066_417_0" vType="pkw" speedFactor="0.95" vaporized=""/>
    <tripinfo id="158876_421_0" depart="25255.00" departLane="319261593#12_0" departPos="4.40" departSpeed="0.00" departDelay="0.00" arrival="25286.00" arrivalLane="-31864804_0" arrivalPos="70.23" arrivalSpeed="13.82" duration="31.00" routeLength="352.97" waitingTime="0.00" waitingCount="0" stopTime="0.00" timeLoss="6.40" rerouteNo="0" devices="tripinfo_158876_421_0" vType="pkw" speedFactor="1.07" vaporized=""/>
    <tripinfo id="118681_405_0" depart="25237.00" departLane="4999334_0" departPos="4.40" departSpeed="0.00" departDelay="0.00" arrival="25288.00" arrivalLane="-31864804_0" arrivalPos="70.23" arrivalSpeed="13.21" duration="51.00" routeLength="615.92" waitingTime="0.00" waitingCount="0" stopTime="0.00" timeLoss="6.40" rerouteNo="0" devices="tripinfo_118681_405_0" vType="pkw" speedFactor="1.00" vaporized=""/>
    <tripinfo id="161578_421_0" depart="25263.00" departLane="-4999334_0" departPos="4.40" departSpeed="0.00" departDelay="0.00" arrival="25288.00" arrivalLane="-4999334_0" arrivalPos="293.22" arrivalSpeed="12.89" duration="25.00" routeLength="288.82" waitingTime="0.00" waitingCount="0" stopTime="0.00" timeLoss="3.87" rerouteNo="0" devices="tripinfo_161578_421_0" vType="pkw" speedFactor="1.01" vaporized=""/>
    <tripinfo id="100301_396_0" depart="25260.00" departLane="-241660955#17_0" departPos="4.40" departSpeed="0.00" departDelay="0.00" arrival="25292.00" arrivalLane="130160207#0_0" arrivalPos="135.18" arrivalSpeed="7.97" duration="32.00" routeLength="257.86" waitingTime="0.00" waitingCount="0" stopTime="0.00" timeLoss="7.19" rerouteNo="0" devices="tripinfo_100301_396_0" vType="pkw" speedFactor="1.06" vaporized=""/>
    <tripinfo id="83081_390_0" depart="25228.00" departLane="31864804_0" departPos="4.40" departSpeed="0.00" departDelay="0.00" arrival="25293.00" arrivalLane="-4999334_0" arrivalPos="293.22" arrivalSpeed="11.67" duration="65.00" routeLength="688.22" waitingTime="0.00" waitingCount="0" stopTime="0.00" timeLoss="7.73" rerouteNo="0" devices="tripinfo_83081_390_0" vType="pkw" speedFactor="0.87" vaporized=""/>
    <tripinfo id="141513_415_0" depart="25233.00" departLane="4999334_0" departPos="4.40" departSpeed="0.00" departDelay="0.00" arrival="25293.00" arrivalLane="4145590#0_1" arrivalPos="95.58" arrivalSpeed="14.39" duration="60.00" routeLength="615.60" waitingTime="3.00" waitingCount="1" stopTime="0.00" timeLoss="17.66" rerouteNo="0" devices="tripinfo_141513_415_0" vType="pkw" speedFactor="1.06" vaporized=""/>
    <tripinfo id="168647_425_0" depart="25268.00" departLane="-4999334_0" departPos="4.40" departSpeed="0.00" departDelay="2.00" arrival="25294.00" arrivalLane="-4999334_0" arrivalPos="293.22" arrivalSpeed="12.79" duration="26.00" routeLength="288.82" waitingTime="0.00" waitingCount="0" stopTime="0.00" timeLoss="5.83" rerouteNo="0" devices="tripinfo_168647_425_0" vType="pkw" speedFactor="1.03" vaporized=""/>
    <tripinfo id="173797_427_0" depart="25226.00" departLane="-41910186_0" departPos="4.40" departSpeed="0.00" departDelay="0.00" arrival="25298.00" arrivalLane="4145590#0_1" arrivalPos="95.58" arrivalSpeed="13.62" duration="72.00" routeLength="894.77" waitingTime="0.00" waitingCount="0" stopTime="0.00" timeLoss="10.68" rerouteNo="0" devices="tripinfo_173797_427_0" vType="pkw" speedFactor="1.06" vaporized=""/>
    <tripinfo id="160813_421_0" depart="25253.00" departLane="41910184_0" departPos="4.40" departSpeed="0.00" departDelay="0.00" arrival="25298.00" arrivalLane="4145589#0_0" arrivalPos="149.75" arrivalSpeed="6.19" duration="45.00" routeLength="368.38" waitingTime="0.00" waitingCount="0" stopTime="0.00" timeLoss="6.42" rerouteNo="0" devices="tripinfo_160813_421_0" vType="pkw" speedFactor="0.89" vaporized=""/>
    <tripinfo id="163366_422_0" depart="25253.00" departLane="-130160207#0_0" departPos="4.40" departSpeed="0.00" departDelay="0.00" arrival="25300.00" arrivalLane="241660955#17_0" arrivalPos="110.13" arrivalSpeed="13.43" duration="47.00" routeLength="250.75" waitingTime="10.00" waitingCount="2" stopTime="0.00" timeLoss="23.29" rerouteNo="0" devices="tripinfo_163366_422_0" vType="pkw" speedFactor="1.04" vaporized=""/>
    <tripinfo id="76573_386_0" depart="25275.00" departLane="-241660955#17_0" departPos="4.40" departSpeed="0.00" departDelay="0.00" arrival="25304.00" arrivalLane="130160207#0_0" arrivalPos="135.18" arrivalSpeed="7.71" duration="29.00" routeLength="257.86" waitingTime="0.00" waitingCount="0" stopTime="0.00" timeLoss="4.96" rerouteNo="0" devices="tripinfo_76573_386_0" vType="pkw" speedFactor="1.07" vaporized=""/>
    <tripinfo id="155359_420_0" depart="25288.00" departLane="31864804_0" departPos="4.40" departSpeed="0.00" departDelay="0.00" arrival="25304.00" arrivalLane="-31864804_1" arrivalPos="70.23" arrivalSpeed="12.32" duration="16.00" routeLength="140.71" waitingTime="0.00" waitingCount="0" stopTime="0.00" timeLoss="5.11" rerouteNo="0" devices="tripinfo_155359_420_0" vType="pkw" speedFactor="0.96" vaporized=""/>
    <tripinfo id="160296_421_0" depart="25211.00" departLane="241660955#13_0" departPos="4.40" departSpeed="0.00" departDelay="0.00" arrival="25305.00" arrivalLane="241660955#17_0" arrivalPos="110.13" arrivalSpeed="12.64" duration="94.00" routeLength="247.24" waitingTime="65.00" waitingCount="1" stopTime="0.00" timeLoss="75.42" rerouteNo="0" devices="tripinfo_160296_421_0" vType="pkw" speedFactor="1.00" vaporized=""/>
    <tripinfo id="98545_395_0" depart="25206.00" departLane="4045330_0" departPos="4.40" departSpeed="0.00" departDelay="0.00" arrival="25306.00" arrivalLane="241660955#17_1" arrivalPos="110.13" arrivalSpeed="13.17" duration="100.00" routeLength="473.04" waitingTime="44.00" waitingCount="1" stopTime="0.00" timeLoss="57.34" rerouteNo="0" devices="tripinfo_98545_395_0" vType="pkw" speedFactor="0.96" vaporized=""/>
    <tripinfo id="163719_422_0" depart="25211.00" departLane="4045330_0" departPos="4.40" departSpeed="0.00" departDelay="0.00" arrival="25306.00" arrivalLane="241660955#17_0" arrivalPos="110.13" arrivalSpeed="13.21" duration="95.00" routeLength="473.04" waitingTime="43.00" waitingCount="1" stopTime="0.00" timeLoss="55.43" rerouteNo="0" devices="tripinfo_163719_422_0" vType="pkw" speedFactor="1.02" vaporized=""/>
    <tripinfo id="85241_390_0" depart="25243.00" departLane="41910184_0" departPos="4.40" departSpeed="0.00" departDelay="1.00" arrival="25307.00" arrivalLane="241660955#17_1" arrivalPos="110.13" arrivalSpeed="14.10" duration="64.00" routeLength="451.07" waitingTime="19.00" waitingCount="1" stopTime="0.00" timeLoss="32.36" rerouteNo="0" devices="tripinfo_85241_390_0" vType="pkw" speedFactor="1.03" vaporized=""/>
    <tripinfo id="137478_412_0" depart="25248.00" departLane="4045330_0" departPos="4.40" departSpeed="0.00" departDelay="0.00" arrival="25308.00" arrivalLane="241660955#17_0" arrivalPos="110.13" arrivalSpeed="14.84" duration="60.00" routeLength="473.04" waitingTime="12.00" waitingCount="1" stopTime="0.00" timeLoss="23.06" rerouteNo="0" devices="tripinfo_137478_412_0" vType="pkw" speedFactor="1.10" vaporized=""/>
    <tripinfo id="150954_418_0" depart="25249.00" departLane="-130160207#0_0" departPos="4.40" departSpeed="0.00" departDelay="0.00" arrival="25309.00" arrivalLane="-41910184_0" arrivalPos="185.90" arrivalSpeed="11.86" duration="60.00" routeLength="470.87" waitingTime="7.00" waitingCount="2" stopTime="0.00" timeLoss="16.63" rerouteNo="0" devices="tripinfo_150954_418_0" vType="pkw" speedFactor="0.94" vaporized=""/>
    <tripinfo id="153005_419_0" depart="25270.00" departLane="41910184_0" departPos="4.40" departSpeed="0.00" departDelay="0.00" arrival="25311.00" arrivalLane="4145589#0_0" arrivalPos="149.75" arrivalSpeed="7.66" duration="41.00" routeLength="368.38" waitingTime="0.00" waitingCount="0" stopTime="0.00" timeLoss="6.72" rerouteNo="0" devices="tripinfo_153005_419_0" vType="pkw" speedFactor="1.01" vaporized=""/>
    <tripinfo id="67548_381_0" depart="25289.00" departLane="-41910185#2_0" departPos="4.40" departSpeed="0.00" departDelay="1.00" arrival="25315.00" arrivalLane="241660955#10_0" arrivalPos="56.57" arrivalSpeed="13.47" duration="26.00" routeLength="191.84" waitingTime="0.00" waitingCount="0" stopTime="0.00" timeLoss="5.12" rerouteNo="0" devices="tripinfo_67548_381_0" vType="pkw" speedFactor="0.97" vaporized=""/>
    <tripinfo id="150860_418_0" depart="25276.00" departLane="31864804_0" departPos="4.40" departSpeed="0.00" departDelay="0.00" arrival="25316.00" arrivalLane="4999331#0_0" arrivalPos="373.64" arrivalSpeed="13.84" duration="40.00" routeLength="492.92" waitingTime="0.00" waitingCount="0" stopTime="0.00" timeLoss="7.09" rerouteNo="0" devices="tripinfo_150860_418_0" vType="pkw" speedFactor="1.08" vaporized=""/>
    <tripinfo id="143042_415_0" depart="25300.00" departLane="31864804_0" departPos="4.40" departSpeed="0.00" departDelay="0.00" arrival="25317.00" arrivalLane="4145590#0_0" arrivalPos="95.58" arrivalSpeed="14.27" duration="17.00" routeLength="195.56" waitingTime="0.00" waitingCount="0" stopTime="0.00" timeLoss="3.97" rerouteNo="0" devices="tripinfo_143042_415_0" vType="pkw" speedFactor="1.10" vaporized=""/>
    <tripinfo id="157767_421_0" depart="25269.00" departLane="31864804_0" departPos="4.40" departSpeed="0.00" departDelay="0.00" arrival="25318.00" arrivalLane="-41910186_0" arrivalPos="324.50" arrivalSpeed="12.84" duration="49.00" routeLength="571.64" waitingTime="0.00" waitingCount="0" stopTime="0.00" timeLoss="7.96" rerouteNo="0" devices="tripinfo_157767_421_0" vType="pkw" speedFactor="1.01" vaporized=""/>
    <tripinfo id="165473_423_0" depart="25267.00" departLane="41910186_0" departPos="4.40" departSpeed="0.00" departDelay="0.00" arrival="25319.00" arrivalLane="-31864804_0" arrivalPos="70.23" arrivalSpeed="12.57" duration="52.00" routeLength="565.92" waitingTime="0.00" waitingCount="0" stopTime="0.00" timeLoss="7.36" rerouteNo="0" devices="tripinfo_165473_423_0" vType="pkw" speedFactor="0.93" vaporized=""/>
    <tripinfo id="155750_420_0" depart="25256.00" departLane="-130160207#0_0" departPos="4.40" departSpeed="0.00" departDelay="0.00" arrival="25321.00" arrivalLane="241660955#17_0" arrivalPos="110.13" arrivalSpeed="13.02" duration="65.00" routeLength="250.75" waitingTime="23.00" waitingCount="3" stopTime="0.00" timeLoss="39.05" rerouteNo="0" devices="tripinfo_155750_420_0" vType="pkw" speedFactor="0.96" vaporized=""/>
    <tripinfo id="104671_398_0" depart="25286.00" departLane="-41910185#2_0" departPos="4.40" departSpeed="0.00" departDelay="0.00" arrival="25321.00" arrivalLane="241660955#11_0" arrivalPos="73.18" arrivalSpeed="11.82" duration="35.00" routeLength="279.28" waitingTime="0.00" waitingCount="0" stopTime="0.00" timeLoss="4.89" rerouteNo="0" devices="tripinfo_104671_398_0" vType="pkw" speedFactor="0.88" vaporized=""/>
    <tripinfo id="173932_427_0" depart="25275.00" departLane="-41910185#2_0" departPos="4.40" departSpeed="0.00" departDelay="0.00" arrival="25329.00" arrivalLane="241660955#17_0" arrivalPos="110.13" arrivalSpeed="12.46" duration="54.00" routeLength="545.38" waitingTime="0.00" waitingCount="0" stopTime="0.00" timeLoss="5.51" rerouteNo="0" devices="tripinfo_173932_427_0" vType="pkw" speedFactor="0.95" vaporized=""/>
    <tripinfo id="171899_426_0" depart="25303.00" departLane="-41910185#2_0" departPos="4.40" departSpeed="0.00" departDelay="0.00" arrival="25329.00" arrivalLane="-4045329#5_0" arrivalPos="121.37" arrivalSpeed="15.70" duration="26.00" routeLength="266.80" waitingTime="0.00" waitingCount="0" stopTime="0.00" timeLoss="3.82" rerouteNo="0" devices="tripinfo_171899_426_0" vType="pkw" speedFactor="1.15" vaporized=""/>
    <tripinfo id="144088_416_0" depart="25303.00" departLane="241660955#6_0" departPos="4.40" departSpeed="0.00" departDelay="0.00" arrival="25333.00" arrivalLane="-4999334_0" arrivalPos="293.22" arrivalSpeed="14.96" duration="30.00" routeLength="357.51" waitingTime="0.00" waitingCount="0" stopTime="0.00" timeLoss="6.17" rerouteNo="0" devices="tripinfo_144088_416_0" vType="pkw" speedFactor="1.08" vaporized=""/>
    <tripinfo id="164227_422_0" depart="25285.00" departLane="4999334_0" departPos="4.40" departSpeed="0.00" departDelay="0.00" arrival="25334.00" arrivalLane="-31864804_0" arrivalPos="70.23" arrivalSpeed="13.75" duration="49.00" routeLength="615.92" waitingTime="0.00" waitingCount="0" stopTime="0.00" timeLoss="6.91" rerouteNo="0" devices="tripinfo_164227_422_0" vType="pkw" speedFactor="1.08" vaporized=""/>
    <tripinfo id="172020_426_0" depart="25285.00" departLane="31864804_0" departPos="4.40" departSpeed="0.00" departDelay="0.00" arrival="25336.00" arrivalLane="4999331#0_0" arrivalPos="373.64" arrivalSpeed="10.68" duration="51.00" routeLength="492.92" waitingTime="0.00" waitingCount="0" stopTime="0.00" timeLoss="5.92" rerouteNo="0" devices="tripinfo_172020_426_0" vType="pkw" speedFactor="0.80" vaporized=""/>
    <tripinfo id="134193_411_0" depart="25298.00" departLane="31864804_0" departPos="4.40" departSpeed="0.00" departDelay="0.00" arrival="25338.00" arrivalLane="4999331#0_1" arrivalPos="373.64" arrivalSpeed="15.08" duration="40.00" routeLength="492.92" waitingTime="0.00" waitingCount="0" stopTime="0.00" timeLoss="9.43" rerouteNo="0" devices="tripinfo_134193_411_0" vType="pkw" speedFactor="1.17" vaporized=""/>
    <tripinfo id="163684_422_0" depart="25294.00" departLane="4045330_0" departPos="4.40" departSpeed="0.00" departDelay="0.00" arrival="25343.00" arrivalLane="241660955#17_1" arrivalPos="110.13" arrivalSpeed="13.78" duration="49.00" routeLength="473.04" waitingTime="1.00" waitingCount="1" stopTime="0.00" timeLoss="10.97" rerouteNo="0" devices="tripinfo_163684_422_0" vType="pkw" speedFactor="1.07" vaporized=""/>
    <tripinfo id="85782_390_0" depart="25302.00" departLane="31864804_0" departPos="4.40" departSpeed="0.00" departDelay="2.00" arrival="25345.00" arrivalLane="4999331#0_0" arrivalPos="373.64" arrivalSpeed="13.19" duration="43.00" routeLength="492.92" waitingTime="1.00" waitingCount="1" stopTime="0.00" timeLoss="8.08" rerouteNo="0" devices="tripinfo_85782_390_0" vType="pkw" speedFactor="1.03" vaporized=""/>
    <tripinfo id="147727_416_0" depart="25301.00" departLane="41910184_0" departPos="4.40" departSpeed="0.00" departDelay="0.00" arrival="25345.00" arrivalLane="4145589#0_0" arrivalPos="149.75" arrivalSpeed="7.08" duration="44.00" routeLength="368.38" waitingTime="0.00" waitingCount="0" stopTime="0.00" timeLoss="8.54" rerouteNo="0" devices="tripinfo_147727_416_0" vType="pkw" speedFactor="0.96" vaporized=""/>
    <tripinfo id="162714_422_0" depart="25301.00" departLane="4999334_0" departPos="4.40" departSpeed="0.00" departDelay="0.00" arrival="25347.00" arrivalLane="-4999334_0" arrivalPos="293.22" arrivalSpeed="14.72" duration="46.00" routeLength="586.71" waitingTime="0.00" waitingCount="0" stopTime="0.00" timeLoss="7.43" rerouteNo="0" devices="tripinfo_162714_422_0" vType="pkw" speedFactor="1.11" vaporized=""/>
    <tripinfo id="101678_396_0" depart="25320.00" departLane="-41910185#2_0" departPos="4.40" departSpeed="0.00" departDelay="0.00" arrival="25350.00" arrivalLane="-4045329#5_0" arrivalPos="121.37" arrivalSpeed="12.82" duration="30.00" routeLength="266.80" waitingTime="0.00" waitingCount="0" stopTime="0.00" timeLoss="3.86" rerouteNo="0" devices="tripinfo_101678_396_0" vType="pkw" speedFactor="0.99" vaporized=""/>
    <tripinfo id="148750_417_0" depart="25308.00" departLane="31864804_0" departPos="4.40" departSpeed="0.00" departDelay="2.00" arrival="25351.00" arrivalLane="4999331#0_0" arrivalPos="373.64" arrivalSpeed="12.42" duration="43.00" routeLength="492.92" waitingTime="0.00" waitingCount="0" stopTime="0.00" timeLoss="5.81" rerouteNo="0" devices="tripinfo_148750_417_0" vType="pkw" speedFactor="0.95" vaporized=""/>
    <tripinfo id="149020_417_0" depart="25325.00" departLane="4999331#0_0" departPos="4.40" departSpeed="0.00" departDelay="2.00" arrival="25357.00" arrivalLane="4999331#0_0" arrivalPos="373.64" arrivalSpeed="12.75" duration="32.00" routeLength="369.24" waitingTime="0.00" waitingCount="0" stopTime="0.00" timeLoss="4.27" rerouteNo="0" devices="tripinfo_149020_417_0" vType="pkw" speedFactor="0.97" vaporized=""/>
    <tripinfo id="81323_389_0" depart="25328.00" departLane="41910186_0" departPos="4.40" departSpeed="0.00" departDelay="1.00" arrival="25359.00" arrivalLane="41910186_0" arrivalPos="324.91" arrivalSpeed="11.90" duration="31.00" routeLength="320.51" waitingTime="0.00" waitingCount="0" stopTime="0.00" timeLoss="4.62" rerouteNo="0" devices="tripinfo_81323_389_0" vType="pkw" speedFactor="0.90" vaporized=""/>
    <tripinfo id="131068_409_0" depart="25306.00" departLane="4999334_0" departPos="4.40" departSpeed="0.00" departDelay="0.00" arrival="25360.00" arrivalLane="-31864804_0" arrivalPos="70.23" arrivalSpeed="12.95" duration="54.00" routeLength="615.92" waitingTime="0.00" waitingCount="0" stopTime="0.00" timeLoss="7.13" rerouteNo="0" devices="tripinfo_131068_409_0" vType="pkw" speedFactor="0.95" vaporized=""/>
    <tripinfo id="117979_404_0" depart="25310.00" departLane="31864804_0" departPos="4.40" departSpeed="0.00" departDelay="0.00" arrival="25365.00" arrivalLane="-4999334_0" arrivalPos="293.22" arrivalSpeed="14.67" duration="55.00" routeLength="688.22" waitingTime="0.00" waitingCount="0" stopTime="0.00" timeLoss="8.82" rerouteNo="0" devices="tripinfo_117979_404_0" vType="pkw" speedFactor="1.08" vaporized=""/>
    <tripinfo id="133047_410_0" depart="25318.00" departLane="31864804_0" departPos="4.40" departSpeed="0.00" departDelay="3.00" arrival="25365.00" arrivalLane="4045332#0_0" arrivalPos="114.41" arrivalSpeed="7.37" duration="47.00" routeLength="477.21" waitingTime="0.00" waitingCount="0" stopTime="0.00" timeLoss="6.10" rerouteNo="0" devices="tripinfo_133047_410_0" vType="pkw" speedFactor="0.99" vaporized=""/>
    <tripinfo id="158960_421_0" depart="25321.00" departLane="4045330_0" departPos="4.40" departSpeed="0.00" departDelay="0.00" arrival="25367.00" arrivalLane="241660955#17_0" arrivalPos="110.13" arrivalSpeed="13.70" duration="46.00" routeLength="473.04" waitingTime="0.00" waitingCount="0" stopTime="0.00" timeLoss="5.73" rerouteNo="0" devices="tripinfo_158960_421_0" vType="pkw" speedFactor="1.01" vaporized=""/>
    <tripinfo id="164244_422_0" depart="25323.00" departLane="41910186_0" departPos="4.40" departSpeed="0.00" departDelay="0.00" arrival="25368.00" arrivalLane="-31864804_0" arrivalPos="70.23" arrivalSpeed="14.62" duration="45.00" routeLength="565.92" waitingTime="0.00" waitingCount="0" stopTime="0.00" timeLoss="6.02" rerouteNo="0" devices="tripinfo_164244_422_0" vType="pkw" speedFactor="1.07" vaporized=""/>
    <tripinfo id="167856_425_0" depart="25331.00" departLane="41910184_0" departPos="4.40" departSpeed="0.00" departDelay="0.00" arrival="25372.00" arrivalLane="4145589#0_0" arrivalPos="149.75" arrivalSpeed="7.77" duration="41.00" routeLength="368.38" waitingTime="0.00" waitingCount="0" stopTime="0.00" timeLoss="7.05" rerouteNo="0" devices="tripinfo_167856_425_0" vType="pkw" speedFactor="1.02" vaporized=""/>
    <tripinfo id="138333_412_0" depart="25315.00" departLane="31864804_0" departPos="4.40" departSpeed="0.00" departDelay="0.00" arrival="25373.00" arrivalLane="-41910186_0" arrivalPos="324.50" arrivalSpeed="12.02" duration="58.00" routeLength="571.64" waitingTime="0.00" waitingCount="0" stopTime="0.00" timeLoss="11.10" rerouteNo="0" devices="tripinfo_138333_412_0" vType="pkw" speedFactor="0.89" vaporized=""/>
    <tripinfo id="139565_413_0" depart="25322.00" departLane="-31800061#0_0" departPos="4.40" departSpeed="0.00" departDelay="0.00" arrival="25375.00" arrivalLane="-41910186_0" arrivalPos="324.50" arrivalSpeed="11.29" duration="53.00" routeLength="450.16" waitingTime="2.00" waitingCount="1" stopTime="0.00" timeLoss="10.88" rerouteNo="0" devices="tripinfo_139565_413_0" vType="pkw" speedFactor="0.91" vaporized=""/>
    <tripinfo id="145057_416_0" depart="25348.00" departLane="241660955#6_0" departPos="4.40" departSpeed="0.00" departDelay="2.00" arrival="25377.00" arrivalLane="-4999334_0" arrivalPos="293.22" arrivalSpeed="15.56" duration="29.00" routeLength="357.51" waitingTime="0.00" waitingCount="0" stopTime="0.00" timeLoss="5.67" rerouteNo="0" devices="tripinfo_145057_416_0" vType="pkw" speedFactor="1.13" vaporized=""/>