<?xml version="1.0" encoding="UTF-8"?>

<!-- generated on 2023-08-31 13:46:41 by Eclipse SUMO libsumo Version 1.18.0
<configuration xmlns:xsi="http://www.w3.org/2001/XMLSchema-instance" xsi:noNamespaceSchemaLocation="http://sumo.dlr.de/xsd/libsumoConfiguration.xsd">

    <input>
        <net-file value="/home/stefan/RESCO/./environments/cologne3/cologne3.net.xml"/>
        <route-files value="/home/stefan/RESCO/./environments/cologne3/cologne3.rou.xml"/>
    </input>

    <output>
        <tripinfo-output value="/home/stefan/results/RAINBOW-tr0-cologne3-0-drq_norm-wait_norm/tripinfo_88.xml"/>
        <tripinfo-output.write-unfinished value="true"/>
    </output>

    <time>
        <begin value="25200"/>
        <end value="28800"/>
    </time>

    <processing>
        <time-to-teleport value="-1"/>
    </processing>

    <report>
        <no-warnings value="True"/>
        <no-step-log value="True"/>
    </report>

    <random_number>
        <random value="true"/>
    </random_number>

</configuration>
-->

<tripinfos xmlns:xsi="http://www.w3.org/2001/XMLSchema-instance" xsi:noNamespaceSchemaLocation="http://sumo.dlr.de/xsd/tripinfo_file.xsd">
    <tripinfo id="160296_421_0" depart="25211.00" departLane="241660955#13_0" departPos="4.40" departSpeed="0.00" departDelay="0.00" arrival="25235.00" arrivalLane="241660955#17_0" arrivalPos="110.13" arrivalSpeed="12.47" duration="24.00" routeLength="247.24" waitingTime="0.00" waitingCount="0" stopTime="0.00" timeLoss="4.35" rerouteNo="0" devices="tripinfo_160296_421_0" vType="pkw" speedFactor="0.93" vaporized=""/>
    <tripinfo id="73303_385_0" depart="25202.00" departLane="319261593#12_0" departPos="4.40" departSpeed="0.00" departDelay="0.00" arrival="25238.00" arrivalLane="4145590#0_0" arrivalPos="95.58" arrivalSpeed="13.63" duration="36.00" routeLength="408.95" waitingTime="0.00" waitingCount="0" stopTime="0.00" timeLoss="7.93" rerouteNo="0" devices="tripinfo_73303_385_0" vType="pkw" speedFactor="1.07" vaporized=""/>
    <tripinfo id="122325_406_0" depart="25208.00" departLane="319261593#12_0" departPos="4.40" departSpeed="0.00" departDelay="0.00" arrival="25240.00" arrivalLane="-31864804_0" arrivalPos="70.23" arrivalSpeed="13.96" duration="32.00" routeLength="352.97" waitingTime="0.00" waitingCount="0" stopTime="0.00" timeLoss="6.82" rerouteNo="0" devices="tripinfo_122325_406_0" vType="pkw" speedFactor="1.03" vaporized=""/>
    <tripinfo id="163719_422_0" depart="25211.00" departLane="4045330_0" departPos="4.40" departSpeed="0.00" departDelay="0.00" arrival="25253.00" arrivalLane="241660955#17_1" arrivalPos="110.13" arrivalSpeed="15.37" duration="42.00" routeLength="473.04" waitingTime="0.00" waitingCount="0" stopTime="0.00" timeLoss="7.70" rerouteNo="0" devices="tripinfo_163719_422_0" vType="pkw" speedFactor="1.19" vaporized=""/>
    <tripinfo id="169122_425_0" depart="25231.00" departLane="-4999334_0" departPos="4.40" departSpeed="0.00" departDelay="3.00" arrival="25255.00" arrivalLane="-4999334_0" arrivalPos="293.22" arrivalSpeed="14.70" duration="24.00" routeLength="288.82" waitingTime="0.00" waitingCount="0" stopTime="0.00" timeLoss="4.43" rerouteNo="0" devices="tripinfo_169122_425_0" vType="pkw" speedFactor="1.11" vaporized=""/>
    <tripinfo id="98545_395_0" depart="25206.00" departLane="4045330_0" departPos="4.40" departSpeed="0.00" departDelay="0.00" arrival="25257.00" arrivalLane="241660955#17_0" arrivalPos="110.13" arrivalSpeed="11.89" duration="51.00" routeLength="473.04" waitingTime="0.00" waitingCount="0" stopTime="0.00" timeLoss="6.87" rerouteNo="0" devices="tripinfo_98545_395_0" vType="pkw" speedFactor="0.91" vaporized=""/>
    <tripinfo id="120846_405_0" depart="25207.00" departLane="31864804_0" departPos="4.40" departSpeed="0.00" departDelay="0.00" arrival="25258.00" arrivalLane="-4999334_0" arrivalPos="293.22" arrivalSpeed="13.70" duration="51.00" routeLength="621.86" waitingTime="0.00" waitingCount="0" stopTime="0.00" timeLoss="7.29" rerouteNo="0" devices="tripinfo_120846_405_0" vType="pkw" speedFactor="1.03" vaporized=""/>
    <tripinfo id="113109_402_0" depart="25203.00" departLane="4999334_0" departPos="4.40" departSpeed="0.00" departDelay="0.00" arrival="25259.00" arrivalLane="-31864804_0" arrivalPos="70.23" arrivalSpeed="11.96" duration="56.00" routeLength="615.92" waitingTime="0.00" waitingCount="0" stopTime="0.00" timeLoss="7.29" rerouteNo="0" devices="tripinfo_113109_402_0" vType="pkw" speedFactor="0.93" vaporized=""/>
    <tripinfo id="132667_410_0" depart="25212.00" departLane="-31800061#0_0" departPos="4.40" departSpeed="0.00" departDelay="0.00" arrival="25260.00" arrivalLane="-4999334_0" arrivalPos="293.22" arrivalSpeed="13.90" duration="48.00" routeLength="492.72" waitingTime="0.00" waitingCount="0" stopTime="0.00" timeLoss="9.64" rerouteNo="0" devices="tripinfo_132667_410_0" vType="pkw" speedFactor="1.08" vaporized=""/>
    <tripinfo id="153968_420_0" depart="25227.00" departLane="319261593#12_0" departPos="4.40" departSpeed="0.00" departDelay="0.00" arrival="25261.00" arrivalLane="-31864804_0" arrivalPos="70.23" arrivalSpeed="14.78" duration="34.00" routeLength="352.97" waitingTime="0.00" waitingCount="0" stopTime="0.00" timeLoss="10.70" rerouteNo="0" devices="tripinfo_153968_420_0" vType="pkw" speedFactor="1.12" vaporized=""/>
    <tripinfo id="68266_381_0" depart="25229.00" departLane="4045329#5_0" departPos="4.40" departSpeed="0.00" departDelay="0.00" arrival="25261.00" arrivalLane="41910185#0_0" arrivalPos="127.86" arrivalSpeed="7.50" duration="32.00" routeLength="267.37" waitingTime="0.00" waitingCount="0" stopTime="0.00" timeLoss="5.18" rerouteNo="0" devices="tripinfo_68266_381_0" vType="pkw" speedFactor="0.99" vaporized=""/>
    <tripinfo id="141383_415_0" depart="25216.00" departLane="41910184_0" departPos="4.40" departSpeed="0.00" departDelay="0.00" arrival="25263.00" arrivalLane="4145589#0_0" arrivalPos="149.75" arrivalSpeed="7.28" duration="47.00" routeLength="368.38" waitingTime="0.00" waitingCount="0" stopTime="0.00" timeLoss="11.44" rerouteNo="0" devices="tripinfo_141383_415_0" vType="pkw" speedFactor="0.97" vaporized=""/>
    <tripinfo id="157649_421_0" depart="25229.00" departLane="319261593#12_0" departPos="4.40" departSpeed="0.00" departDelay="0.00" arrival="25263.00" arrivalLane="-31864804_0" arrivalPos="70.23" arrivalSpeed="14.14" duration="34.00" routeLength="352.97" waitingTime="0.00" waitingCount="0" stopTime="0.00" timeLoss="9.93" rerouteNo="0" devices="tripinfo_157649_421_0" vType="pkw" speedFactor="1.07" vaporized=""/>
    <tripinfo id="140163_414_0" depart="25244.00" departLane="241660955#13_0" departPos="4.40" departSpeed="0.00" departDelay="0.00" arrival="25263.00" arrivalLane="-41910184_0" arrivalPos="185.90" arrivalSpeed="15.29" duration="19.00" routeLength="216.76" waitingTime="0.00" waitingCount="0" stopTime="0.00" timeLoss="4.32" rerouteNo="0" devices="tripinfo_140163_414_0" vType="pkw" speedFactor="1.11" vaporized=""/>
    <tripinfo id="174028_427_0" depart="25232.00" departLane="319261593#12_0" departPos="4.40" departSpeed="0.00" departDelay="0.00" arrival="25269.00" arrivalLane="4145590#0_0" arrivalPos="95.58" arrivalSpeed="12.87" duration="37.00" routeLength="408.95" waitingTime="0.00" waitingCount="0" stopTime="0.00" timeLoss="6.93" rerouteNo="0" devices="tripinfo_174028_427_0" vType="pkw" speedFactor="0.98" vaporized=""/>
    <tripinfo id="131963_410_0" depart="25223.00" departLane="-31800061#0_0" departPos="4.40" departSpeed="0.00" departDelay="0.00" arrival="25271.00" arrivalLane="-4999334_0" arrivalPos="293.22" arrivalSpeed="12.93" duration="48.00" routeLength="492.72" waitingTime="0.00" waitingCount="0" stopTime="0.00" timeLoss="6.65" rerouteNo="0" devices="tripinfo_131963_410_0" vType="pkw" speedFactor="1.00" vaporized=""/>
    <tripinfo id="81370_389_0" depart="25232.00" departLane="4045329#5_0" departPos="4.40" departSpeed="0.00" departDelay="1.00" arrival="25276.00" arrivalLane="-4045330_0" arrivalPos="128.76" arrivalSpeed="6.01" duration="44.00" routeLength="329.66" waitingTime="0.00" waitingCount="0" stopTime="0.00" timeLoss="7.55" rerouteNo="0" devices="tripinfo_81370_389_0" vType="pkw" speedFactor="0.83" vaporized=""/>
    <tripinfo id="111993_401_0" depart="25251.00" departLane="4045329#5_0" departPos="4.40" departSpeed="0.00" departDelay="0.00" arrival="25281.00" arrivalLane="41910185#0_0" arrivalPos="127.86" arrivalSpeed="8.13" duration="30.00" routeLength="267.37" waitingTime="0.00" waitingCount="0" stopTime="0.00" timeLoss="5.93" rerouteNo="0" devices="tripinfo_111993_401_0" vType="pkw" speedFactor="1.09" vaporized=""/>
    <tripinfo id="166826_424_0" depart="25240.00" departLane="41910184_0" departPos="4.40" departSpeed="0.00" departDelay="0.00" arrival="25283.00" arrivalLane="4145589#0_0" arrivalPos="149.75" arrivalSpeed="7.43" duration="43.00" routeLength="368.38" waitingTime="0.00" waitingCount="0" stopTime="0.00" timeLoss="8.27" rerouteNo="0" devices="tripinfo_166826_424_0" vType="pkw" speedFactor="0.98" vaporized=""/>
    <tripinfo id="85241_390_0" depart="25242.00" departLane="41910184_0" departPos="4.40" departSpeed="0.00" departDelay="0.00" arrival="25283.00" arrivalLane="241660955#17_1" arrivalPos="110.13" arrivalSpeed="13.59" duration="41.00" routeLength="451.07" waitingTime="0.00" waitingCount="0" stopTime="0.00" timeLoss="8.51" rerouteNo="0" devices="tripinfo_85241_390_0" vType="pkw" speedFactor="1.01" vaporized=""/>
    <tripinfo id="158876_421_0" depart="25255.00" departLane="319261593#12_0" departPos="4.40" departSpeed="0.00" departDelay="0.00" arrival="25288.00" arrivalLane="-31864804_0" arrivalPos="70.23" arrivalSpeed="12.75" duration="33.00" routeLength="352.97" waitingTime="0.00" waitingCount="0" stopTime="0.00" timeLoss="6.76" rerouteNo="0" devices="tripinfo_158876_421_0" vType="pkw" speedFactor="0.97" vaporized=""/>
    <tripinfo id="83081_390_0" depart="25228.00" departLane="31864804_0" departPos="4.40" departSpeed="0.00" departDelay="0.00" arrival="25290.00" arrivalLane="-4999334_0" arrivalPos="293.22" arrivalSpeed="11.97" duration="62.00" routeLength="688.22" waitingTime="0.00" waitingCount="0" stopTime="0.00" timeLoss="8.04" rerouteNo="0" devices="tripinfo_83081_390_0" vType="pkw" speedFactor="0.93" vaporized=""/>
    <tripinfo id="161841_421_0" depart="25244.00" departLane="31864804_0" departPos="4.40" departSpeed="0.00" departDelay="0.00" arrival="25290.00" arrivalLane="4999331#0_1" arrivalPos="373.64" arrivalSpeed="11.93" duration="46.00" routeLength="492.92" waitingTime="0.00" waitingCount="0" stopTime="0.00" timeLoss="6.92" rerouteNo="0" devices="tripinfo_161841_421_0" vType="pkw" speedFactor="0.91" vaporized=""/>
    <tripinfo id="149066_417_0" depart="25235.00" departLane="31864804_0" departPos="4.40" departSpeed="0.00" departDelay="0.00" arrival="25292.00" arrivalLane="4999331#0_0" arrivalPos="373.64" arrivalSpeed="9.43" duration="57.00" routeLength="492.92" waitingTime="0.00" waitingCount="0" stopTime="0.00" timeLoss="10.17" rerouteNo="0" devices="tripinfo_149066_417_0" vType="pkw" speedFactor="0.77" vaporized=""/>
    <tripinfo id="118681_405_0" depart="25237.00" departLane="4999334_0" departPos="4.40" departSpeed="0.00" departDelay="0.00" arrival="25293.00" arrivalLane="-31864804_0" arrivalPos="70.23" arrivalSpeed="12.42" duration="56.00" routeLength="615.92" waitingTime="0.00" waitingCount="0" stopTime="0.00" timeLoss="10.11" rerouteNo="0" devices="tripinfo_118681_405_0" vType="pkw" speedFactor="0.98" vaporized=""/>
    <tripinfo id="137478_412_0" depart="25248.00" departLane="4045330_0" departPos="4.40" departSpeed="0.00" departDelay="0.00" arrival="25293.00" arrivalLane="241660955#17_0" arrivalPos="110.13" arrivalSpeed="13.38" duration="45.00" routeLength="473.04" waitingTime="0.00" waitingCount="0" stopTime="0.00" timeLoss="5.87" rerouteNo="0" devices="tripinfo_137478_412_0" vType="pkw" speedFactor="1.03" vaporized=""/>
    <tripinfo id="100301_396_0" depart="25260.00" departLane="-241660955#17_0" departPos="4.40" departSpeed="0.00" departDelay="0.00" arrival="25294.00" arrivalLane="130160207#0_0" arrivalPos="135.18" arrivalSpeed="8.80" duration="34.00" routeLength="257.86" waitingTime="1.00" waitingCount="1" stopTime="0.00" timeLoss="11.05" rerouteNo="0" devices="tripinfo_100301_396_0" vType="pkw" speedFactor="1.14" vaporized=""/>
    <tripinfo id="161578_421_0" depart="25267.00" departLane="-4999334_0" departPos="4.40" departSpeed="0.00" departDelay="4.00" arrival="25295.00" arrivalLane="-4999334_0" arrivalPos="293.22" arrivalSpeed="11.85" duration="28.00" routeLength="288.82" waitingTime="0.00" waitingCount="0" stopTime="0.00" timeLoss="4.94" rerouteNo="0" devices="tripinfo_161578_421_0" vType="pkw" speedFactor="0.92" vaporized=""/>
    <tripinfo id="168647_425_0" depart="25270.00" departLane="-4999334_0" departPos="4.40" departSpeed="0.00" departDelay="4.00" arrival="25296.00" arrivalLane="-4999334_0" arrivalPos="293.22" arrivalSpeed="13.61" duration="26.00" routeLength="288.82" waitingTime="0.00" waitingCount="0" stopTime="0.00" timeLoss="7.48" rerouteNo="0" devices="tripinfo_168647_425_0" vType="pkw" speedFactor="1.13" vaporized=""/>
    <tripinfo id="141513_415_0" depart="25233.00" departLane="4999334_0" departPos="4.40" departSpeed="0.00" departDelay="0.00" arrival="25298.00" arrivalLane="4145590#0_1" arrivalPos="95.58" arrivalSpeed="10.56" duration="65.00" routeLength="615.60" waitingTime="0.00" waitingCount="0" stopTime="0.00" timeLoss="8.76" rerouteNo="0" devices="tripinfo_141513_415_0" vType="pkw" speedFactor="0.79" vaporized=""/>
    <tripinfo id="160813_421_0" depart="25253.00" departLane="41910184_0" departPos="4.40" departSpeed="0.00" departDelay="0.00" arrival="25301.00" arrivalLane="4145589#0_0" arrivalPos="149.75" arrivalSpeed="7.30" duration="48.00" routeLength="368.38" waitingTime="1.00" waitingCount="1" stopTime="0.00" timeLoss="12.36" rerouteNo="0" devices="tripinfo_160813_421_0" vType="pkw" speedFactor="0.96" vaporized=""/>
    <tripinfo id="155359_420_0" depart="25288.00" departLane="31864804_0" departPos="4.40" departSpeed="0.00" departDelay="0.00" arrival="25304.00" arrivalLane="-31864804_1" arrivalPos="70.23" arrivalSpeed="13.32" duration="16.00" routeLength="140.71" waitingTime="0.00" waitingCount="0" stopTime="0.00" timeLoss="5.52" rerouteNo="0" devices="tripinfo_155359_420_0" vType="pkw" speedFactor="1.04" vaporized=""/>
    <tripinfo id="100843_396_0" depart="25270.00" departLane="319261593#12_0" departPos="4.40" departSpeed="0.00" departDelay="0.00" arrival="25307.00" arrivalLane="4145590#0_0" arrivalPos="95.58" arrivalSpeed="14.89" duration="37.00" routeLength="408.95" waitingTime="0.00" waitingCount="0" stopTime="0.00" timeLoss="10.10" rerouteNo="0" devices="tripinfo_100843_396_0" vType="pkw" speedFactor="1.12" vaporized=""/>
    <tripinfo id="173797_427_0" depart="25226.00" departLane="-41910186_0" departPos="4.40" departSpeed="0.00" departDelay="0.00" arrival="25308.00" arrivalLane="4145590#0_1" arrivalPos="95.58" arrivalSpeed="13.25" duration="82.00" routeLength="894.77" waitingTime="5.00" waitingCount="1" stopTime="0.00" timeLoss="18.43" rerouteNo="0" devices="tripinfo_173797_427_0" vType="pkw" speedFactor="1.02" vaporized=""/>
    <tripinfo id="76573_386_0" depart="25275.00" departLane="-241660955#17_0" departPos="4.40" departSpeed="0.00" departDelay="0.00" arrival="25308.00" arrivalLane="130160207#0_0" arrivalPos="135.18" arrivalSpeed="6.83" duration="33.00" routeLength="257.86" waitingTime="0.00" waitingCount="0" stopTime="0.00" timeLoss="6.62" rerouteNo="0" devices="tripinfo_76573_386_0" vType="pkw" speedFactor="0.97" vaporized=""/>
    <tripinfo id="153005_419_0" depart="25270.00" departLane="41910184_0" departPos="4.40" departSpeed="0.00" departDelay="0.00" arrival="25310.00" arrivalLane="4145589#0_0" arrivalPos="149.75" arrivalSpeed="7.90" duration="40.00" routeLength="368.38" waitingTime="0.00" waitingCount="0" stopTime="0.00" timeLoss="7.59" rerouteNo="0" devices="tripinfo_153005_419_0" vType="pkw" speedFactor="1.05" vaporized=""/>
    <tripinfo id="165473_423_0" depart="25267.00" departLane="41910186_0" departPos="4.40" departSpeed="0.00" departDelay="0.00" arrival="25313.00" arrivalLane="-31864804_0" arrivalPos="70.23" arrivalSpeed="14.01" duration="46.00" routeLength="565.92" waitingTime="0.00" waitingCount="0" stopTime="0.00" timeLoss="7.41" rerouteNo="0" devices="tripinfo_165473_423_0" vType="pkw" speedFactor="1.06" vaporized=""/>
    <tripinfo id="67548_381_0" depart="25288.00" departLane="-41910185#2_0" departPos="4.40" departSpeed="0.00" departDelay="0.00" arrival="25313.00" arrivalLane="241660955#10_0" arrivalPos="56.57" arrivalSpeed="12.73" duration="25.00" routeLength="191.84" waitingTime="0.00" waitingCount="0" stopTime="0.00" timeLoss="4.82" rerouteNo="0" devices="tripinfo_67548_381_0" vType="pkw" speedFactor="0.99" vaporized=""/>
    <tripinfo id="104671_398_0" depart="25286.00" departLane="-41910185#2_0" departPos="4.40" departSpeed="0.00" departDelay="0.00" arrival="25314.00" arrivalLane="241660955#11_0" arrivalPos="73.18" arrivalSpeed="14.92" duration="28.00" routeLength="279.28" waitingTime="0.00" waitingCount="0" stopTime="0.00" timeLoss="4.03" rerouteNo="0" devices="tripinfo_104671_398_0" vType="pkw" speedFactor="1.10" vaporized=""/>
    <tripinfo id="143042_415_0" depart="25300.00" departLane="31864804_0" departPos="4.40" departSpeed="0.00" departDelay="0.00" arrival="25318.00" arrivalLane="4145590#0_0" arrivalPos="95.58" arrivalSpeed="13.83" duration="18.00" routeLength="195.56" waitingTime="0.00" waitingCount="0" stopTime="0.00" timeLoss="4.09" rerouteNo="0" devices="tripinfo_143042_415_0" vType="pkw" speedFactor="1.05" vaporized=""/>
    <tripinfo id="150860_418_0" depart="25276.00" departLane="31864804_0" departPos="4.40" departSpeed="0.00" departDelay="0.00" arrival="25319.00" arrivalLane="4999331#0_0" arrivalPos="373.64" arrivalSpeed="12.95" duration="43.00" routeLength="492.92" waitingTime="0.00" waitingCount="0" stopTime="0.00" timeLoss="7.56" rerouteNo="0" devices="tripinfo_150860_418_0" vType="pkw" speedFactor="1.01" vaporized=""/>
    <tripinfo id="157767_421_0" depart="25269.00" departLane="31864804_0" departPos="4.40" departSpeed="0.00" departDelay="0.00" arrival="25322.00" arrivalLane="-41910186_0" arrivalPos="324.50" arrivalSpeed="12.05" duration="53.00" routeLength="571.64" waitingTime="0.00" waitingCount="0" stopTime="0.00" timeLoss="6.73" rerouteNo="0" devices="tripinfo_157767_421_0" vType="pkw" speedFactor="0.90" vaporized=""/>
    <tripinfo id="173932_427_0" depart="25275.00" departLane="-41910185#2_0" departPos="4.40" departSpeed="0.00" departDelay="0.00" arrival="25326.00" arrivalLane="241660955#17_0" arrivalPos="110.13" arrivalSpeed="12.87" duration="51.00" routeLength="545.38" waitingTime="0.00" waitingCount="0" stopTime="0.00" timeLoss="5.68" rerouteNo="0" devices="tripinfo_173932_427_0" vType="pkw" speedFactor="1.01" vaporized=""/>
    <tripinfo id="131925_410_0" depart="25260.00" departLane="319261593#12_0" departPos="4.40" departSpeed="0.00" departDelay="0.00" arrival="25329.00" arrivalLane="-41910186_0" arrivalPos="324.50" arrivalSpeed="14.68" duration="69.00" routeLength="785.03" waitingTime="1.00" waitingCount="1" stopTime="0.00" timeLoss="17.56" rerouteNo="0" devices="tripinfo_131925_410_0" vType="pkw" speedFactor="1.10" vaporized=""/>
    <tripinfo id="171899_426_0" depart="25303.00" departLane="-41910185#2_0" departPos="4.40" departSpeed="0.00" departDelay="0.00" arrival="25331.00" arrivalLane="-4045329#5_0" arrivalPos="121.37" arrivalSpeed="14.71" duration="28.00" routeLength="266.80" waitingTime="0.00" waitingCount="0" stopTime="0.00" timeLoss="3.69" rerouteNo="0" devices="tripinfo_171899_426_0" vType="pkw" speedFactor="1.07" vaporized=""/>
    <tripinfo id="144088_416_0" depart="25303.00" departLane="241660955#6_0" departPos="4.40" departSpeed="0.00" departDelay="0.00" arrival="25332.00" arrivalLane="-4999334_0" arrivalPos="293.22" arrivalSpeed="15.51" duration="29.00" routeLength="357.51" waitingTime="0.00" waitingCount="0" stopTime="0.00" timeLoss="6.47" rerouteNo="0" devices="tripinfo_144088_416_0" vType="pkw" speedFactor="1.17" vaporized=""/>
    <tripinfo id="172020_426_0" depart="25285.00" departLane="31864804_0" departPos="4.40" departSpeed="0.00" departDelay="0.00" arrival="25333.00" arrivalLane="4999331#0_0" arrivalPos="373.64" arrivalSpeed="11.57" duration="48.00" routeLength="492.92" waitingTime="0.00" waitingCount="0" stopTime="0.00" timeLoss="5.90" rerouteNo="0" devices="tripinfo_172020_426_0" vType="pkw" speedFactor="0.86" vaporized=""/>
    <tripinfo id="164227_422_0" depart="25285.00" departLane="4999334_0" departPos="4.40" departSpeed="0.00" departDelay="0.00" arrival="25336.00" arrivalLane="-31864804_0" arrivalPos="70.23" arrivalSpeed="14.14" duration="51.00" routeLength="615.92" waitingTime="0.00" waitingCount="0" stopTime="0.00" timeLoss="8.05" rerouteNo="0" devices="tripinfo_164227_422_0" vType="pkw" speedFactor="1.05" vaporized=""/>
    <tripinfo id="163684_422_0" depart="25294.00" departLane="4045330_0" departPos="4.40" departSpeed="0.00" departDelay="0.00" arrival="25340.00" arrivalLane="241660955#17_0" arrivalPos="110.13" arrivalSpeed="12.97" duration="46.00" routeLength="473.04" waitingTime="0.00" waitingCount="0" stopTime="0.00" timeLoss="6.15" rerouteNo="0" devices="tripinfo_163684_422_0" vType="pkw" speedFactor="1.01" vaporized=""/>
    <tripinfo id="134193_411_0" depart="25298.00" departLane="31864804_0" departPos="4.40" departSpeed="0.00" departDelay="0.00" arrival="25340.00" arrivalLane="4999331#0_0" arrivalPos="373.64" arrivalSpeed="13.02" duration="42.00" routeLength="492.92" waitingTime="0.00" waitingCount="0" stopTime="0.00" timeLoss="6.20" rerouteNo="0" devices="tripinfo_134193_411_0" vType="pkw" speedFactor="1.00" vaporized=""/>
    <tripinfo id="85782_390_0" depart="25303.00" departLane="31864804_0" departPos="4.40" departSpeed="0.00" departDelay="3.00" arrival="25346.00" arrivalLane="4999331#0_0" arrivalPos="373.64" arrivalSpeed="12.87" duration="43.00" routeLength="492.92" waitingTime="0.00" waitingCount="0" stopTime="0.00" timeLoss="6.32" rerouteNo="0" devices="tripinfo_85782_390_0" vType="pkw" speedFactor="0.97" vaporized=""/>
    <tripinfo id="147727_416_0" depart="25301.00" departLane="41910184_0" departPos="4.40" departSpeed="0.00" departDelay="0.00" arrival="25346.00" arrivalLane="4145589#0_0" arrivalPos="149.75" arrivalSpeed="7.85" duration="45.00" routeLength="368.38" waitingTime="0.00" waitingCount="0" stopTime="0.00" timeLoss="9.76" rerouteNo="0" devices="tripinfo_147727_416_0" vType="pkw" speedFactor="0.97" vaporized=""/>
    <tripinfo id="101678_396_0" depart="25320.00" departLane="-41910185#2_0" departPos="4.40" departSpeed="0.00" departDelay="0.00" arrival="25348.00" arrivalLane="-4045329#5_0" arrivalPos="121.37" arrivalSpeed="15.08" duration="28.00" routeLength="266.80" waitingTime="0.00" waitingCount="0" stopTime="0.00" timeLoss="4.27" rerouteNo="0" devices="tripinfo_101678_396_0" vType="pkw" speedFactor="1.11" vaporized=""/>
    <tripinfo id="162714_422_0" depart="25301.00" departLane="4999334_0" departPos="4.40" departSpeed="0.00" departDelay="0.00" arrival="25354.00" arrivalLane="-4999334_0" arrivalPos="293.22" arrivalSpeed="12.04" duration="53.00" routeLength="586.71" waitingTime="0.00" waitingCount="0" stopTime="0.00" timeLoss="6.04" rerouteNo="0" devices="tripinfo_162714_422_0" vType="pkw" speedFactor="0.92" vaporized=""/>
    <tripinfo id="133047_410_0" depart="25318.00" departLane="31864804_0" departPos="4.40" departSpeed="0.00" departDelay="3.00" arrival="25354.00" arrivalLane="4045332#0_0" arrivalPos="114.41" arrivalSpeed="10.53" duration="36.00" routeLength="477.21" waitingTime="0.00" waitingCount="0" stopTime="0.00" timeLoss="6.21" rerouteNo="0" devices="tripinfo_133047_410_0" vType="pkw" speedFactor="1.36" vaporized=""/>
    <tripinfo id="149020_417_0" depart="25323.00" departLane="4999331#0_0" departPos="4.40" departSpeed="0.00" departDelay="0.00" arrival="25354.00" arrivalLane="4999331#0_1" arrivalPos="373.64" arrivalSpeed="13.07" duration="31.00" routeLength="369.24" waitingTime="0.00" waitingCount="0" stopTime="0.00" timeLoss="4.45" rerouteNo="0" devices="tripinfo_149020_417_0" vType="pkw" speedFactor="1.02" vaporized=""/>
    <tripinfo id="148750_417_0" depart="25307.00" departLane="31864804_0" departPos="4.40" departSpeed="0.00" departDelay="1.00" arrival="25356.00" arrivalLane="4999331#0_0" arrivalPos="373.64" arrivalSpeed="11.26" duration="49.00" routeLength="492.92" waitingTime="0.00" waitingCount="0" stopTime="0.00" timeLoss="6.32" rerouteNo="0" devices="tripinfo_148750_417_0" vType="pkw" speedFactor="0.85" vaporized=""/>
    <tripinfo id="131068_409_0" depart="25306.00" departLane="4999334_0" departPos="4.40" departSpeed="0.00" departDelay="0.00" arrival="25357.00" arrivalLane="-31864804_0" arrivalPos="70.23" arrivalSpeed="13.00" duration="51.00" routeLength="615.92" waitingTime="0.00" waitingCount="0" stopTime="0.00" timeLoss="6.75" rerouteNo="0" devices="tripinfo_131068_409_0" vType="pkw" speedFactor="1.02" vaporized=""/>
    <tripinfo id="81323_389_0" depart="25329.00" departLane="41910186_0" departPos="4.40" departSpeed="0.00" departDelay="2.00" arrival="25360.00" arrivalLane="41910186_0" arrivalPos="324.91" arrivalSpeed="11.70" duration="31.00" routeLength="320.51" waitingTime="0.00" waitingCount="0" stopTime="0.00" timeLoss="4.34" rerouteNo="0" devices="tripinfo_81323_389_0" vType="pkw" speedFactor="0.88" vaporized=""/>
    <tripinfo id="158960_421_0" depart="25321.00" departLane="4045330_0" departPos="4.40" departSpeed="0.00" departDelay="0.00" arrival="25363.00" arrivalLane="241660955#17_0" arrivalPos="110.13" arrivalSpeed="14.58" duration="42.00" routeLength="473.04" waitingTime="0.00" waitingCount="0" stopTime="0.00" timeLoss="4.74" rerouteNo="0" devices="tripinfo_158960_421_0" vType="pkw" speedFactor="1.08" vaporized=""/>
    <tripinfo id="138333_412_0" depart="25315.00" departLane="31864804_0" departPos="4.40" departSpeed="0.00" departDelay="0.00" arrival="25366.00" arrivalLane="-41910186_0" arrivalPos="324.50" arrivalSpeed="14.64" duration="51.00" routeLength="571.64" waitingTime="0.00" waitingCount="0" stopTime="0.00" timeLoss="13.06" rerouteNo="0" devices="tripinfo_138333_412_0" vType="pkw" speedFactor="1.09" vaporized=""/>
    <tripinfo id="117979_404_0" depart="25310.00" departLane="31864804_0" departPos="4.40" departSpeed="0.00" departDelay="0.00" arrival="25367.00" arrivalLane="-4999334_0" arrivalPos="293.22" arrivalSpeed="13.92" duration="57.00" routeLength="688.22" waitingTime="0.00" waitingCount="0" stopTime="0.00" timeLoss="8.04" rerouteNo="0" devices="tripinfo_117979_404_0" vType="pkw" speedFactor="1.02" vaporized=""/>
    <tripinfo id="164244_422_0" depart="25323.00" departLane="41910186_0" departPos="4.40" departSpeed="0.00" departDelay="0.00" arrival="25373.00" arrivalLane="-31864804_0" arrivalPos="70.23" arrivalSpeed="14.76" duration="50.00" routeLength="565.92" waitingTime="0.00" waitingCount="0" stopTime="0.00" timeLoss="12.81" rerouteNo="0" devices="tripinfo_164244_422_0" vType="pkw" speedFactor="1.10" vaporized=""/>
    <tripinfo id="139565_413_0" depart="25322.00" departLane="-31800061#0_0" departPos="4.40" departSpeed="0.00" departDelay="0.00" arrival="25374.00" arrivalLane="-41910186_0" arrivalPos="324.50" arrivalSpeed="10.98" duration="52.00" routeLength="450.16" waitingTime="0.00" waitingCount="0" stopTime="0.00" timeLoss="8.14" rerouteNo="0" devices="tripinfo_139565_413_0" vType="pkw" speedFactor="0.87" vaporized=""/>
    <tripinfo id="145057_416_0" depart="25346.00" departLane="241660955#6_0" departPos="4.40" departSpeed="0.00" departDelay="0.00" arrival="25375.00" arrivalLane="-4999334_0" arrivalPos="293.22" arrivalSpeed="15.94" duration="29.00" routeLength="357.51" waitingTime="0.00" waitingCount="0" stopTime="0.00" timeLoss="6.37" rerouteNo="0" devices="tripinfo_145057_416_0" vType="pkw" speedFactor="1.16" vaporized=""/>
    <tripinfo id="167856_425_0" depart="25331.00" departLane="41910184_0" departPos="4.40" departSpeed="0.00" departDelay="0.00" arrival="25376.00" arrivalLane="4145589#0_0" arrivalPos="149.75" arrivalSpeed="7.20" duration="45.00" routeLength="368.38" waitingTime="0.00" waitingCount="0" stopTime="0.00" timeLoss="7.18" rerouteNo="0" devices="tripinfo_167856_425_0" vType="pkw" speedFactor="0.92" vaporized=""/>
    <tripinfo id="127107_407_0" depart="25336.00" departLane="31864804_0" departPos="4.40" departSpeed="0.00" departDelay="0.00" arrival="25380.00" arrivalLane="4999331#0_0" arrivalPos="373.64" arrivalSpeed="14.57" duration="44.00" routeLength="492.92" waitingTime="0.00" waitingCount="0" stopTime="0.00" timeLoss="9.70" rerouteNo="0" devices="tripinfo_127107_407_0" vType="pkw" speedFactor="1.06" vaporized=""/>
    <tripinfo id="125105_406_0" depart="25346.00" departLane="-241660955#17_0" departPos="4.40" departSpeed="0.00" departDelay="1.00" arrival="25380.00" arrivalLane="-41910184_0" arrivalPos="185.90" arrivalSpeed="14.82" duration="34.00" routeLength="442.68" waitingTime="0.00" waitingCount="0" stopTime="0.00" timeLoss="5.26" rerouteNo="0" devices="tripinfo_125105_406_0" vType="pkw" speedFactor="1.14" vaporized=""/>
    <tripinfo id="141002_414_0" depart="25349.00" departLane="-241660955#17_0" departPos="4.40" departSpeed="0.00" departDelay="2.00" arrival="25382.00" arrivalLane="130160207#0_0" arrivalPos="135.18" arrivalSpeed="6.74" duration="33.00" routeLength="257.86" waitingTime="0.00" waitingCount="0" stopTime="0.00" timeLoss="6.17" rerouteNo="0" devices="tripinfo_141002_414_0" vType="pkw" speedFactor="0.96" vaporized=""/>