<?xml version="1.0" encoding="UTF-8"?>

<!-- generated on 2023-08-31 13:47:50 by Eclipse SUMO libsumo Version 1.18.0
<configuration xmlns:xsi="http://www.w3.org/2001/XMLSchema-instance" xsi:noNamespaceSchemaLocation="http://sumo.dlr.de/xsd/libsumoConfiguration.xsd">

    <input>
        <net-file value="/home/stefan/RESCO/./environments/cologne3/cologne3.net.xml"/>
        <route-files value="/home/stefan/RESCO/./environments/cologne3/cologne3.rou.xml"/>
    </input>

    <output>
        <tripinfo-output value="/home/stefan/results/RAINBOW-tr0-cologne3-0-drq_norm-wait_norm/tripinfo_93.xml"/>
        <tripinfo-output.write-unfinished value="true"/>
    </output>

    <time>
        <begin value="25200"/>
        <end value="28800"/>
    </time>

    <processing>
        <time-to-teleport value="-1"/>
    </processing>

    <report>
        <no-warnings value="True"/>
        <no-step-log value="True"/>
    </report>

    <random_number>
        <random value="true"/>
    </random_number>

</configuration>
-->

<tripinfos xmlns:xsi="http://www.w3.org/2001/XMLSchema-instance" xsi:noNamespaceSchemaLocation="http://sumo.dlr.de/xsd/tripinfo_file.xsd">
    <tripinfo id="160296_421_0" depart="25211.00" departLane="241660955#13_0" departPos="4.40" departSpeed="0.00" departDelay="0.00" arrival="25235.00" arrivalLane="241660955#17_0" arrivalPos="110.13" arrivalSpeed="11.79" duration="24.00" routeLength="247.24" waitingTime="0.00" waitingCount="0" stopTime="0.00" timeLoss="4.18" rerouteNo="0" devices="tripinfo_160296_421_0" vType="pkw" speedFactor="0.94" vaporized=""/>
    <tripinfo id="122325_406_0" depart="25208.00" departLane="319261593#12_0" departPos="4.40" departSpeed="0.00" departDelay="0.00" arrival="25242.00" arrivalLane="-31864804_0" arrivalPos="70.23" arrivalSpeed="11.52" duration="34.00" routeLength="352.97" waitingTime="0.00" waitingCount="0" stopTime="0.00" timeLoss="6.09" rerouteNo="0" devices="tripinfo_122325_406_0" vType="pkw" speedFactor="0.92" vaporized=""/>
    <tripinfo id="73303_385_0" depart="25202.00" departLane="319261593#12_0" departPos="4.40" departSpeed="0.00" departDelay="0.00" arrival="25245.00" arrivalLane="4145590#0_0" arrivalPos="95.58" arrivalSpeed="12.53" duration="43.00" routeLength="408.95" waitingTime="2.00" waitingCount="1" stopTime="0.00" timeLoss="12.74" rerouteNo="0" devices="tripinfo_73303_385_0" vType="pkw" speedFactor="0.99" vaporized=""/>
    <tripinfo id="169122_425_0" depart="25230.00" departLane="-4999334_0" departPos="4.40" departSpeed="0.00" departDelay="2.00" arrival="25254.00" arrivalLane="-4999334_0" arrivalPos="293.22" arrivalSpeed="13.42" duration="24.00" routeLength="288.82" waitingTime="0.00" waitingCount="0" stopTime="0.00" timeLoss="4.19" rerouteNo="0" devices="tripinfo_169122_425_0" vType="pkw" speedFactor="1.05" vaporized=""/>
    <tripinfo id="98545_395_0" depart="25206.00" departLane="4045330_0" departPos="4.40" departSpeed="0.00" departDelay="0.00" arrival="25255.00" arrivalLane="241660955#17_0" arrivalPos="110.13" arrivalSpeed="12.24" duration="49.00" routeLength="473.04" waitingTime="0.00" waitingCount="0" stopTime="0.00" timeLoss="6.30" rerouteNo="0" devices="tripinfo_98545_395_0" vType="pkw" speedFactor="0.96" vaporized=""/>
    <tripinfo id="113109_402_0" depart="25203.00" departLane="4999334_0" departPos="4.40" departSpeed="0.00" departDelay="0.00" arrival="25256.00" arrivalLane="-31864804_0" arrivalPos="70.23" arrivalSpeed="13.11" duration="53.00" routeLength="615.92" waitingTime="0.00" waitingCount="0" stopTime="0.00" timeLoss="6.06" rerouteNo="0" devices="tripinfo_113109_402_0" vType="pkw" speedFactor="0.95" vaporized=""/>
    <tripinfo id="120846_405_0" depart="25207.00" departLane="31864804_0" departPos="4.40" departSpeed="0.00" departDelay="0.00" arrival="25256.00" arrivalLane="-4999334_0" arrivalPos="293.22" arrivalSpeed="15.95" duration="49.00" routeLength="621.86" waitingTime="0.00" waitingCount="0" stopTime="0.00" timeLoss="10.63" rerouteNo="0" devices="tripinfo_120846_405_0" vType="pkw" speedFactor="1.19" vaporized=""/>
    <tripinfo id="68266_381_0" depart="25229.00" departLane="4045329#5_0" departPos="4.40" departSpeed="0.00" departDelay="0.00" arrival="25258.00" arrivalLane="41910185#0_0" arrivalPos="127.86" arrivalSpeed="8.42" duration="29.00" routeLength="267.37" waitingTime="0.00" waitingCount="0" stopTime="0.00" timeLoss="4.79" rerouteNo="0" devices="tripinfo_68266_381_0" vType="pkw" speedFactor="1.09" vaporized=""/>
    <tripinfo id="163719_422_0" depart="25211.00" departLane="4045330_0" departPos="4.40" departSpeed="0.00" departDelay="0.00" arrival="25261.00" arrivalLane="241660955#17_0" arrivalPos="110.13" arrivalSpeed="11.60" duration="50.00" routeLength="473.04" waitingTime="0.00" waitingCount="0" stopTime="0.00" timeLoss="5.08" rerouteNo="0" devices="tripinfo_163719_422_0" vType="pkw" speedFactor="0.91" vaporized=""/>
    <tripinfo id="153968_420_0" depart="25227.00" departLane="319261593#12_0" departPos="4.40" departSpeed="0.00" departDelay="0.00" arrival="25261.00" arrivalLane="-31864804_0" arrivalPos="70.23" arrivalSpeed="11.86" duration="34.00" routeLength="352.97" waitingTime="0.00" waitingCount="0" stopTime="0.00" timeLoss="5.51" rerouteNo="0" devices="tripinfo_153968_420_0" vType="pkw" speedFactor="0.90" vaporized=""/>
    <tripinfo id="132667_410_0" depart="25212.00" departLane="-31800061#0_0" departPos="4.40" departSpeed="0.00" departDelay="0.00" arrival="25262.00" arrivalLane="-4999334_0" arrivalPos="293.22" arrivalSpeed="12.41" duration="50.00" routeLength="492.72" waitingTime="0.00" waitingCount="0" stopTime="0.00" timeLoss="6.93" rerouteNo="0" devices="tripinfo_132667_410_0" vType="pkw" speedFactor="0.96" vaporized=""/>
    <tripinfo id="141383_415_0" depart="25216.00" departLane="41910184_0" departPos="4.40" departSpeed="0.00" departDelay="0.00" arrival="25263.00" arrivalLane="4145589#0_0" arrivalPos="149.75" arrivalSpeed="8.56" duration="47.00" routeLength="368.38" waitingTime="3.00" waitingCount="1" stopTime="0.00" timeLoss="14.33" rerouteNo="0" devices="tripinfo_141383_415_0" vType="pkw" speedFactor="1.07" vaporized=""/>
    <tripinfo id="157649_421_0" depart="25230.00" departLane="319261593#12_0" departPos="4.40" departSpeed="0.00" departDelay="1.00" arrival="25263.00" arrivalLane="-31864804_0" arrivalPos="70.23" arrivalSpeed="14.57" duration="33.00" routeLength="352.97" waitingTime="0.00" waitingCount="0" stopTime="0.00" timeLoss="8.60" rerouteNo="0" devices="tripinfo_157649_421_0" vType="pkw" speedFactor="1.07" vaporized=""/>
    <tripinfo id="81370_389_0" depart="25232.00" departLane="4045329#5_0" departPos="4.40" departSpeed="0.00" departDelay="1.00" arrival="25266.00" arrivalLane="-4045330_0" arrivalPos="128.76" arrivalSpeed="8.33" duration="34.00" routeLength="329.66" waitingTime="0.00" waitingCount="0" stopTime="0.00" timeLoss="6.11" rerouteNo="0" devices="tripinfo_81370_389_0" vType="pkw" speedFactor="1.11" vaporized=""/>
    <tripinfo id="140163_414_0" depart="25244.00" departLane="241660955#13_0" departPos="4.40" departSpeed="0.00" departDelay="0.00" arrival="25266.00" arrivalLane="-41910184_0" arrivalPos="185.90" arrivalSpeed="11.41" duration="22.00" routeLength="216.76" waitingTime="0.00" waitingCount="0" stopTime="0.00" timeLoss="3.66" rerouteNo="0" devices="tripinfo_140163_414_0" vType="pkw" speedFactor="0.89" vaporized=""/>
    <tripinfo id="174028_427_0" depart="25233.00" departLane="319261593#12_0" departPos="4.40" departSpeed="0.00" departDelay="1.00" arrival="25270.00" arrivalLane="4145590#0_0" arrivalPos="95.58" arrivalSpeed="13.87" duration="37.00" routeLength="408.95" waitingTime="0.00" waitingCount="0" stopTime="0.00" timeLoss="7.41" rerouteNo="0" devices="tripinfo_174028_427_0" vType="pkw" speedFactor="1.01" vaporized=""/>
    <tripinfo id="149066_417_0" depart="25235.00" departLane="31864804_0" departPos="4.40" departSpeed="0.00" departDelay="0.00" arrival="25280.00" arrivalLane="4999331#0_0" arrivalPos="373.64" arrivalSpeed="14.05" duration="45.00" routeLength="492.92" waitingTime="0.00" waitingCount="0" stopTime="0.00" timeLoss="9.94" rerouteNo="0" devices="tripinfo_149066_417_0" vType="pkw" speedFactor="1.02" vaporized=""/>
    <tripinfo id="111993_401_0" depart="25251.00" departLane="4045329#5_0" departPos="4.40" departSpeed="0.00" departDelay="0.00" arrival="25281.00" arrivalLane="41910185#0_0" arrivalPos="127.86" arrivalSpeed="7.53" duration="30.00" routeLength="267.37" waitingTime="0.00" waitingCount="0" stopTime="0.00" timeLoss="5.22" rerouteNo="0" devices="tripinfo_111993_401_0" vType="pkw" speedFactor="1.05" vaporized=""/>
    <tripinfo id="166826_424_0" depart="25240.00" departLane="41910184_0" departPos="4.40" departSpeed="0.00" departDelay="0.00" arrival="25284.00" arrivalLane="4145589#0_0" arrivalPos="149.75" arrivalSpeed="7.32" duration="44.00" routeLength="368.38" waitingTime="0.00" waitingCount="0" stopTime="0.00" timeLoss="7.09" rerouteNo="0" devices="tripinfo_166826_424_0" vType="pkw" speedFactor="0.93" vaporized=""/>
    <tripinfo id="85241_390_0" depart="25243.00" departLane="41910184_0" departPos="4.40" departSpeed="0.00" departDelay="1.00" arrival="25284.00" arrivalLane="241660955#17_1" arrivalPos="110.13" arrivalSpeed="11.82" duration="41.00" routeLength="451.07" waitingTime="0.00" waitingCount="0" stopTime="0.00" timeLoss="6.06" rerouteNo="0" devices="tripinfo_85241_390_0" vType="pkw" speedFactor="0.94" vaporized=""/>
    <tripinfo id="137478_412_0" depart="25248.00" departLane="4045330_0" departPos="4.40" departSpeed="0.00" departDelay="0.00" arrival="25286.00" arrivalLane="241660955#17_0" arrivalPos="110.13" arrivalSpeed="17.01" duration="38.00" routeLength="473.04" waitingTime="0.00" waitingCount="0" stopTime="0.00" timeLoss="5.50" rerouteNo="0" devices="tripinfo_137478_412_0" vType="pkw" speedFactor="1.24" vaporized=""/>
    <tripinfo id="161841_421_0" depart="25244.00" departLane="31864804_0" departPos="4.40" departSpeed="0.00" departDelay="0.00" arrival="25287.00" arrivalLane="4999331#0_0" arrivalPos="373.64" arrivalSpeed="13.42" duration="43.00" routeLength="492.92" waitingTime="0.00" waitingCount="0" stopTime="0.00" timeLoss="7.39" rerouteNo="0" devices="tripinfo_161841_421_0" vType="pkw" speedFactor="1.00" vaporized=""/>
    <tripinfo id="158876_421_0" depart="25255.00" departLane="319261593#12_0" departPos="4.40" departSpeed="0.00" departDelay="0.00" arrival="25288.00" arrivalLane="-31864804_0" arrivalPos="70.23" arrivalSpeed="11.88" duration="33.00" routeLength="352.97" waitingTime="0.00" waitingCount="0" stopTime="0.00" timeLoss="5.28" rerouteNo="0" devices="tripinfo_158876_421_0" vType="pkw" speedFactor="0.93" vaporized=""/>
    <tripinfo id="83081_390_0" depart="25228.00" departLane="31864804_0" departPos="4.40" departSpeed="0.00" departDelay="0.00" arrival="25291.00" arrivalLane="-4999334_0" arrivalPos="293.22" arrivalSpeed="12.08" duration="63.00" routeLength="688.22" waitingTime="0.00" waitingCount="0" stopTime="0.00" timeLoss="6.79" rerouteNo="0" devices="tripinfo_83081_390_0" vType="pkw" speedFactor="0.89" vaporized=""/>
    <tripinfo id="141513_415_0" depart="25233.00" departLane="4999334_0" departPos="4.40" departSpeed="0.00" departDelay="0.00" arrival="25291.00" arrivalLane="4145590#0_1" arrivalPos="95.58" arrivalSpeed="15.10" duration="58.00" routeLength="615.60" waitingTime="4.00" waitingCount="1" stopTime="0.00" timeLoss="17.65" rerouteNo="0" devices="tripinfo_141513_415_0" vType="pkw" speedFactor="1.12" vaporized=""/>
    <tripinfo id="160813_421_0" depart="25253.00" departLane="41910184_0" departPos="4.40" departSpeed="0.00" departDelay="0.00" arrival="25293.00" arrivalLane="4145589#0_0" arrivalPos="149.75" arrivalSpeed="8.83" duration="40.00" routeLength="368.38" waitingTime="0.00" waitingCount="0" stopTime="0.00" timeLoss="7.76" rerouteNo="0" devices="tripinfo_160813_421_0" vType="pkw" speedFactor="1.08" vaporized=""/>
    <tripinfo id="161578_421_0" depart="25267.00" departLane="-4999334_0" departPos="4.40" departSpeed="0.00" departDelay="4.00" arrival="25293.00" arrivalLane="-4999334_0" arrivalPos="293.22" arrivalSpeed="14.96" duration="26.00" routeLength="288.82" waitingTime="0.00" waitingCount="0" stopTime="0.00" timeLoss="7.55" rerouteNo="0" devices="tripinfo_161578_421_0" vType="pkw" speedFactor="1.17" vaporized=""/>
    <tripinfo id="131963_410_0" depart="25223.00" departLane="-31800061#0_0" departPos="4.40" departSpeed="0.00" departDelay="0.00" arrival="25294.00" arrivalLane="-4999334_0" arrivalPos="293.22" arrivalSpeed="12.50" duration="71.00" routeLength="492.72" waitingTime="15.00" waitingCount="1" stopTime="0.00" timeLoss="29.84" rerouteNo="0" devices="tripinfo_131963_410_0" vType="pkw" speedFactor="0.99" vaporized=""/>
    <tripinfo id="168647_425_0" depart="25272.00" departLane="-4999334_0" departPos="4.40" departSpeed="0.00" departDelay="6.00" arrival="25296.00" arrivalLane="-4999334_0" arrivalPos="293.22" arrivalSpeed="14.64" duration="24.00" routeLength="288.82" waitingTime="0.00" waitingCount="0" stopTime="0.00" timeLoss="4.01" rerouteNo="0" devices="tripinfo_168647_425_0" vType="pkw" speedFactor="1.06" vaporized=""/>
    <tripinfo id="173797_427_0" depart="25226.00" departLane="-41910186_0" departPos="4.40" departSpeed="0.00" departDelay="0.00" arrival="25301.00" arrivalLane="4145590#0_1" arrivalPos="95.58" arrivalSpeed="14.56" duration="75.00" routeLength="894.77" waitingTime="0.00" waitingCount="0" stopTime="0.00" timeLoss="13.83" rerouteNo="0" devices="tripinfo_173797_427_0" vType="pkw" speedFactor="1.06" vaporized=""/>
    <tripinfo id="100301_396_0" depart="25260.00" departLane="-241660955#17_0" departPos="4.40" departSpeed="0.00" departDelay="0.00" arrival="25301.00" arrivalLane="130160207#0_0" arrivalPos="135.18" arrivalSpeed="7.19" duration="41.00" routeLength="257.86" waitingTime="6.00" waitingCount="1" stopTime="0.00" timeLoss="15.50" rerouteNo="0" devices="tripinfo_100301_396_0" vType="pkw" speedFactor="1.01" vaporized=""/>
    <tripinfo id="79538_387_0" depart="25216.00" departLane="-5229966#3_0" departPos="4.40" departSpeed="0.00" departDelay="1.00" arrival="25307.00" arrivalLane="4999331#0_0" arrivalPos="373.64" arrivalSpeed="13.52" duration="91.00" routeLength="731.93" waitingTime="24.00" waitingCount="1" stopTime="0.00" timeLoss="37.59" rerouteNo="0" devices="tripinfo_79538_387_0" vType="pkw" speedFactor="1.00" vaporized=""/>
    <tripinfo id="132705_410_0" depart="25200.00" departLane="-5229966#3_0" departPos="4.40" departSpeed="0.00" departDelay="0.00" arrival="25308.00" arrivalLane="4045332#0_0" arrivalPos="114.41" arrivalSpeed="9.01" duration="108.00" routeLength="721.22" waitingTime="40.00" waitingCount="1" stopTime="0.00" timeLoss="55.02" rerouteNo="0" devices="tripinfo_132705_410_0" vType="pkw" speedFactor="1.10" vaporized=""/>
    <tripinfo id="76573_386_0" depart="25275.00" departLane="-241660955#17_0" departPos="4.40" departSpeed="0.00" departDelay="0.00" arrival="25309.00" arrivalLane="130160207#0_0" arrivalPos="135.18" arrivalSpeed="6.26" duration="34.00" routeLength="257.86" waitingTime="0.00" waitingCount="0" stopTime="0.00" timeLoss="4.96" rerouteNo="0" devices="tripinfo_76573_386_0" vType="pkw" speedFactor="0.90" vaporized=""/>
    <tripinfo id="153005_419_0" depart="25270.00" departLane="41910184_0" departPos="4.40" departSpeed="0.00" departDelay="0.00" arrival="25312.00" arrivalLane="4145589#0_0" arrivalPos="149.75" arrivalSpeed="6.88" duration="42.00" routeLength="368.38" waitingTime="0.00" waitingCount="0" stopTime="0.00" timeLoss="5.87" rerouteNo="0" devices="tripinfo_153005_419_0" vType="pkw" speedFactor="0.95" vaporized=""/>
    <tripinfo id="67548_381_0" depart="25288.00" departLane="-41910185#2_0" departPos="4.40" departSpeed="0.00" departDelay="0.00" arrival="25314.00" arrivalLane="241660955#10_0" arrivalPos="56.57" arrivalSpeed="13.38" duration="26.00" routeLength="191.84" waitingTime="0.00" waitingCount="0" stopTime="0.00" timeLoss="6.59" rerouteNo="0" devices="tripinfo_67548_381_0" vType="pkw" speedFactor="1.03" vaporized=""/>
    <tripinfo id="104671_398_0" depart="25286.00" departLane="-41910185#2_0" departPos="4.40" departSpeed="0.00" departDelay="0.00" arrival="25320.00" arrivalLane="241660955#11_0" arrivalPos="73.18" arrivalSpeed="10.99" duration="34.00" routeLength="279.28" waitingTime="0.00" waitingCount="0" stopTime="0.00" timeLoss="3.77" rerouteNo="0" devices="tripinfo_104671_398_0" vType="pkw" speedFactor="0.87" vaporized=""/>
    <tripinfo id="173932_427_0" depart="25275.00" departLane="-41910185#2_0" departPos="4.40" departSpeed="0.00" departDelay="0.00" arrival="25325.00" arrivalLane="241660955#17_0" arrivalPos="110.13" arrivalSpeed="13.58" duration="50.00" routeLength="545.38" waitingTime="0.00" waitingCount="0" stopTime="0.00" timeLoss="4.89" rerouteNo="0" devices="tripinfo_173932_427_0" vType="pkw" speedFactor="1.00" vaporized=""/>
    <tripinfo id="144088_416_0" depart="25303.00" departLane="241660955#6_0" departPos="4.40" departSpeed="0.00" departDelay="0.00" arrival="25334.00" arrivalLane="-4999334_0" arrivalPos="293.22" arrivalSpeed="13.94" duration="31.00" routeLength="357.51" waitingTime="0.00" waitingCount="0" stopTime="0.00" timeLoss="5.35" rerouteNo="0" devices="tripinfo_144088_416_0" vType="pkw" speedFactor="1.01" vaporized=""/>
    <tripinfo id="171899_426_0" depart="25303.00" departLane="-41910185#2_0" departPos="4.40" departSpeed="0.00" departDelay="0.00" arrival="25338.00" arrivalLane="-4045329#5_0" arrivalPos="121.37" arrivalSpeed="10.37" duration="35.00" routeLength="266.80" waitingTime="0.00" waitingCount="0" stopTime="0.00" timeLoss="4.10" rerouteNo="0" devices="tripinfo_171899_426_0" vType="pkw" speedFactor="0.82" vaporized=""/>
    <tripinfo id="147727_416_0" depart="25301.00" departLane="41910184_0" departPos="4.40" departSpeed="0.00" departDelay="0.00" arrival="25342.00" arrivalLane="4145589#0_0" arrivalPos="149.75" arrivalSpeed="8.19" duration="41.00" routeLength="368.38" waitingTime="0.00" waitingCount="0" stopTime="0.00" timeLoss="7.01" rerouteNo="0" devices="tripinfo_147727_416_0" vType="pkw" speedFactor="1.02" vaporized=""/>
    <tripinfo id="101678_396_0" depart="25320.00" departLane="-41910185#2_0" departPos="4.40" departSpeed="0.00" departDelay="0.00" arrival="25350.00" arrivalLane="-4045329#5_0" arrivalPos="121.37" arrivalSpeed="12.26" duration="30.00" routeLength="266.80" waitingTime="0.00" waitingCount="0" stopTime="0.00" timeLoss="3.35" rerouteNo="0" devices="tripinfo_101678_396_0" vType="pkw" speedFactor="0.95" vaporized=""/>
    <tripinfo id="163684_422_0" depart="25294.00" departLane="4045330_0" departPos="4.40" departSpeed="0.00" departDelay="0.00" arrival="25354.00" arrivalLane="241660955#17_0" arrivalPos="110.13" arrivalSpeed="10.36" duration="60.00" routeLength="473.04" waitingTime="0.00" waitingCount="0" stopTime="0.00" timeLoss="5.92" rerouteNo="0" devices="tripinfo_163684_422_0" vType="pkw" speedFactor="0.75" vaporized=""/>
    <tripinfo id="162714_422_0" depart="25301.00" departLane="4999334_0" departPos="4.40" departSpeed="0.00" departDelay="0.00" arrival="25356.00" arrivalLane="-4999334_0" arrivalPos="293.22" arrivalSpeed="11.59" duration="55.00" routeLength="586.71" waitingTime="0.00" waitingCount="0" stopTime="0.00" timeLoss="6.17" rerouteNo="0" devices="tripinfo_162714_422_0" vType="pkw" speedFactor="0.88" vaporized=""/>
    <tripinfo id="149020_417_0" depart="25323.00" departLane="4999331#0_0" departPos="4.40" departSpeed="0.00" departDelay="0.00" arrival="25356.00" arrivalLane="4999331#0_0" arrivalPos="373.64" arrivalSpeed="12.28" duration="33.00" routeLength="369.24" waitingTime="0.00" waitingCount="0" stopTime="0.00" timeLoss="4.19" rerouteNo="0" devices="tripinfo_149020_417_0" vType="pkw" speedFactor="0.95" vaporized=""/>
    <tripinfo id="81323_389_0" depart="25328.00" departLane="41910186_0" departPos="4.40" departSpeed="0.00" departDelay="1.00" arrival="25358.00" arrivalLane="41910186_0" arrivalPos="324.91" arrivalSpeed="11.18" duration="30.00" routeLength="320.51" waitingTime="0.00" waitingCount="0" stopTime="0.00" timeLoss="4.38" rerouteNo="0" devices="tripinfo_81323_389_0" vType="pkw" speedFactor="0.93" vaporized=""/>
    <tripinfo id="158960_421_0" depart="25321.00" departLane="4045330_0" departPos="4.40" departSpeed="0.00" departDelay="0.00" arrival="25365.00" arrivalLane="241660955#17_0" arrivalPos="110.13" arrivalSpeed="14.40" duration="44.00" routeLength="473.04" waitingTime="0.00" waitingCount="0" stopTime="0.00" timeLoss="5.39" rerouteNo="0" devices="tripinfo_158960_421_0" vType="pkw" speedFactor="1.05" vaporized=""/>
    <tripinfo id="167856_425_0" depart="25331.00" departLane="41910184_0" departPos="4.40" departSpeed="0.00" departDelay="0.00" arrival="25371.00" arrivalLane="4145589#0_0" arrivalPos="149.75" arrivalSpeed="8.19" duration="40.00" routeLength="368.38" waitingTime="0.00" waitingCount="0" stopTime="0.00" timeLoss="8.28" rerouteNo="0" devices="tripinfo_167856_425_0" vType="pkw" speedFactor="1.10" vaporized=""/>
    <tripinfo id="145057_416_0" depart="25346.00" departLane="241660955#6_0" departPos="4.40" departSpeed="0.00" departDelay="0.00" arrival="25377.00" arrivalLane="-4999334_0" arrivalPos="293.22" arrivalSpeed="13.39" duration="31.00" routeLength="357.51" waitingTime="0.00" waitingCount="0" stopTime="0.00" timeLoss="5.36" rerouteNo="0" devices="tripinfo_145057_416_0" vType="pkw" speedFactor="1.02" vaporized=""/>
    <tripinfo id="139565_413_0" depart="25322.00" departLane="-31800061#0_0" departPos="4.40" departSpeed="0.00" departDelay="0.00" arrival="25379.00" arrivalLane="-41910186_0" arrivalPos="324.50" arrivalSpeed="10.34" duration="57.00" routeLength="450.16" waitingTime="3.00" waitingCount="1" stopTime="0.00" timeLoss="10.01" rerouteNo="0" devices="tripinfo_139565_413_0" vType="pkw" speedFactor="0.81" vaporized=""/>
    <tripinfo id="125105_406_0" depart="25346.00" departLane="-241660955#17_0" departPos="4.40" departSpeed="0.00" departDelay="1.00" arrival="25380.00" arrivalLane="-41910184_0" arrivalPos="185.90" arrivalSpeed="14.80" duration="34.00" routeLength="442.68" waitingTime="0.00" waitingCount="0" stopTime="0.00" timeLoss="4.07" rerouteNo="0" devices="tripinfo_125105_406_0" vType="pkw" speedFactor="1.09" vaporized=""/>
    <tripinfo id="121681_406_0" depart="25357.00" departLane="-5229966#3_0" departPos="4.40" departSpeed="0.00" departDelay="0.00" arrival="25383.00" arrivalLane="-5229966#3_0" arrivalPos="294.55" arrivalSpeed="12.84" duration="26.00" routeLength="290.15" waitingTime="0.00" waitingCount="0" stopTime="0.00" timeLoss="3.89" rerouteNo="0" devices="tripinfo_121681_406_0" vType="pkw" speedFactor="0.98" vaporized=""/>
    <tripinfo id="141002_414_0" depart="25348.00" departLane="-241660955#17_0" departPos="4.40" departSpeed="0.00" departDelay="1.00" arrival="25386.00" arrivalLane="130160207#0_0" arrivalPos="135.18" arrivalSpeed="6.25" duration="38.00" routeLength="257.86" waitingTime="0.00" waitingCount="0" stopTime="0.00" timeLoss="6.98" rerouteNo="0" devices="tripinfo_141002_414_0" vType="pkw" speedFactor="0.83" vaporized=""/>
    <tripinfo id="111594_401_0" depart="25354.00" departLane="-41910185#2_0" departPos="4.40" departSpeed="0.00" departDelay="0.00" arrival="25386.00" arrivalLane="-4045329#5_0" arrivalPos="121.37" arrivalSpeed="12.93" duration="32.00" routeLength="266.80" waitingTime="0.00" waitingCount="0" stopTime="0.00" timeLoss="4.45" rerouteNo="0" devices="tripinfo_111594_401_0" vType="pkw" speedFactor="0.94" vaporized=""/>
    <tripinfo id="143018_415_0" depart="25340.00" departLane="-41910185#2_0" departPos="4.40" departSpeed="0.00" departDelay="0.00" arrival="25387.00" arrivalLane="241660955#17_0" arrivalPos="110.13" arrivalSpeed="14.25" duration="47.00" routeLength="545.38" waitingTime="0.00" waitingCount="0" stopTime="0.00" timeLoss="4.55" rerouteNo="0" devices="tripinfo_143018_415_0" vType="pkw" speedFactor="1.08" vaporized=""/>
    <tripinfo id="134587_411_0" depart="25351.00" departLane="-241660955#17_0" departPos="4.40" departSpeed="0.00" departDelay="2.00" arrival="25391.00" arrivalLane="-41910184_0" arrivalPos="185.90" arrivalSpeed="12.31" duration="40.00" routeLength="442.68" waitingTime="0.00" waitingCount="0" stopTime="0.00" timeLoss="4.29" rerouteNo="0" devices="tripinfo_134587_411_0" vType="pkw" speedFactor="0.91" vaporized=""/>
    <tripinfo id="159648_421_0" depart="25358.00" departLane="-241660955#17_0" departPos="4.40" departSpeed="0.00" departDelay="0.00" arrival="25396.00" arrivalLane="-41910184_0" arrivalPos="185.90" arrivalSpeed="12.39" duration="38.00" routeLength="442.68" waitingTime="0.00" waitingCount="0" stopTime="0.00" timeLoss="4.28" rerouteNo="0" devices="tripinfo_159648_421_0" vType="pkw" speedFactor="0.96" vaporized=""/>
    <tripinfo id="162626_422_0" depart="25367.00" departLane="-41910185#2_0" departPos="4.40" departSpeed="0.00" departDelay="0.00" arrival="25396.00" arrivalLane="-4045329#5_0" arrivalPos="121.37" arrivalSpeed="13.76" duration="29.00" routeLength="266.80" waitingTime="0.00" waitingCount="0" stopTime="0.00" timeLoss="3.82" rerouteNo="0" devices="tripinfo_162626_422_0" vType="pkw" speedFactor="1.02" vaporized=""/>
    <tripinfo id="141257_415_0" depart="25358.00" departLane="41910184_0" departPos="4.40" departSpeed="0.00" departDelay="0.00" arrival="25401.00" arrivalLane="130160207#0_0" arrivalPos="135.18" arrivalSpeed="9.06" duration="43.00" routeLength="470.65" waitingTime="0.00" waitingCount="0" stopTime="0.00" timeLoss="8.01" rerouteNo="0" devices="tripinfo_141257_415_0" vType="pkw" speedFactor="1.18" vaporized=""/>
    <tripinfo id="136360_411_0" depart="25385.00" departLane="-31800061#0_0" departPos="4.40" departSpeed="0.00" departDelay="0.00" arrival="25408.00" arrivalLane="241660955#4_0" arrivalPos="66.03" arrivalSpeed="12.68" duration="23.00" routeLength="182.28" waitingTime="0.00" waitingCount="0" stopTime="0.00" timeLoss="3.93" rerouteNo="0" devices="tripinfo_136360_411_0" vType="pkw" speedFactor="0.99" vaporized=""/>
    <tripinfo id="111902_401_0" depart="25381.00" departLane="-241660955#17_0" departPos="4.40" departSpeed="0.00" departDelay="0.00" arrival="25415.00" arrivalLane="-41910184_0" arrivalPos="185.90" arrivalSpeed="14.52" duration="34.00" routeLength="442.68" waitingTime="0.00" waitingCount="0" stopTime="0.00" timeLoss="4.94" rerouteNo="0" devices="tripinfo_111902_401_0" vType="pkw" speedFactor="1.11" vaporized=""/>
    <tripinfo id="152489_419_0" depart="25386.00" departLane="-41910185#2_0" departPos="4.40" departSpeed="0.00" departDelay="0.00" arrival="25421.00" arrivalLane="-4045329#5_0" arrivalPos="121.37" arrivalSpeed="11.23" duration="35.00" routeLength="266.80" waitingTime="0.00" waitingCount="0" stopTime="0.00" timeLoss="4.40" rerouteNo="0" devices="tripinfo_152489_419_0" vType="pkw" speedFactor="0.83" vaporized=""/>
    <tripinfo id="143740_416_0" depart="25410.00" departLane="-41910184_0" departPos="4.40" departSpeed="0.00" departDelay="2.00" arrival="25427.00" arrivalLane="-41910184_0" arrivalPos="185.90" arrivalSpeed="14.02" duration="17.00" routeLength="181.50" waitingTime="0.00" waitingCount="0" stopTime="0.00" timeLoss="3.77" rerouteNo="0" devices="tripinfo_143740_416_0" vType="pkw" speedFactor="1.03" vaporized=""/>
    <tripinfo id="173102_427_0" depart="25405.00" departLane="4045330_0" departPos="4.40" departSpeed="0.00" departDelay="0.00" arrival="25446.00" arrivalLane="-41910184_0" arrivalPos="185.90" arrivalSpeed="13.23" duration="41.00" routeLength="409.76" waitingTime="0.00" waitingCount="0" stopTime="0.00" timeLoss="5.70" rerouteNo="0" devices="tripinfo_173102_427_0" vType="pkw" speedFactor="1.02" vaporized=""/>
    <tripinfo id="158131_421_0" depart="25428.00" departLane="241660955#13_0" departPos="4.40" departSpeed="0.00" departDelay="0.00" arrival="25447.00" arrivalLane="-41910184_0" arrivalPos="185.90" arrivalSpeed="14.39" duration="19.00" routeLength="216.76" waitingTime="0.00" waitingCount="0" stopTime="0.00" timeLoss="4.50" rerouteNo="0" devices="tripinfo_158131_421_0" vType="pkw" speedFactor="1.09" vaporized=""/>
    <tripinfo id="171729_426_0" depart="25414.00" departLane="-241660955#17_0" departPos="4.40" departSpeed="0.00" departDelay="0.00" arrival="25449.00" arrivalLane="-41910184_0" arrivalPos="185.90" arrivalSpeed="13.96" duration="35.00" routeLength="442.68" waitingTime="0.00" waitingCount="0" stopTime="0.00" timeLoss="4.18" rerouteNo="0" devices="tripinfo_171729_426_0" vType="pkw" speedFactor="1.04" vaporized=""/>
    <tripinfo id="147791_416_0" depart="25413.00" departLane="-31800061#0_0" departPos="4.40" departSpeed="0.00" departDelay="0.00" arrival="25451.00" arrivalLane="-41910186_0" arrivalPos="324.50" arrivalSpeed="14.76" duration="38.00" routeLength="450.16" waitingTime="0.00" waitingCount="0" stopTime="0.00" timeLoss="4.05" rerouteNo="0" devices="tripinfo_147791_416_0" vType="pkw" speedFactor="1.13" vaporized=""/>
    <tripinfo id="149275_417_0" depart="25409.00" departLane="41910184_0" departPos="4.40" departSpeed="0.00" departDelay="0.00" arrival="25455.00" arrivalLane="241660955#17_1" arrivalPos="110.13" arrivalSpeed="13.02" duration="46.00" routeLength="451.07" waitingTime="5.00" waitingCount="1" stopTime="0.00" timeLoss="13.27" rerouteNo="0" devices="tripinfo_149275_417_0" vType="pkw" speedFactor="1.00" vaporized=""/>
    <tripinfo id="146011_416_0" depart="25444.00" departLane="-4045329#5_0" departPos="4.40" departSpeed="0.00" departDelay="0.00" arrival="25458.00" arrivalLane="-4045329#5_0" arrivalPos="121.37" arrivalSpeed="9.69" duration="14.00" routeLength="116.97" waitingTime="0.00" waitingCount="0" stopTime="0.00" timeLoss="2.84" rerouteNo="0" devices="tripinfo_146011_416_0" vType="pkw" speedFactor="0.76" vaporized=""/>