<?xml version="1.0" encoding="UTF-8"?>

<!-- generated on 2023-08-27 12:05:07 by Eclipse SUMO libsumo Version 1.18.0
<configuration xmlns:xsi="http://www.w3.org/2001/XMLSchema-instance" xsi:noNamespaceSchemaLocation="http://sumo.dlr.de/xsd/libsumoConfiguration.xsd">

    <input>
        <net-file value="/home/stefan/RESCO/./environments/cologne1/cologne1.net.xml"/>
        <route-files value="/home/stefan/RESCO/./environments/cologne1/cologne1.rou.xml"/>
    </input>

    <output>
        <tripinfo-output value="/home/stefan/results/IDQN-tr0-cologne1-0-drq_norm-wait_norm/tripinfo_3.xml"/>
        <tripinfo-output.write-unfinished value="true"/>
    </output>

    <time>
        <begin value="25200"/>
        <end value="28800"/>
    </time>

    <processing>
        <time-to-teleport value="-1"/>
    </processing>

    <report>
        <no-warnings value="True"/>
        <no-step-log value="True"/>
    </report>

    <random_number>
        <random value="true"/>
    </random_number>

</configuration>
-->

<tripinfos xmlns:xsi="http://www.w3.org/2001/XMLSchema-instance" xsi:noNamespaceSchemaLocation="http://sumo.dlr.de/xsd/tripinfo_file.xsd">
    <tripinfo id="124779_406_0" depart="25205.00" departLane="28198821#3_0" departPos="4.40" departSpeed="0.00" departDelay="0.00" arrival="25229.00" arrivalLane="32038051#0_1" arrivalPos="89.25" arrivalSpeed="17.29" duration="24.00" routeLength="170.57" waitingTime="2.00" waitingCount="1" stopTime="0.00" timeLoss="12.42" rerouteNo="0" devices="tripinfo_124779_406_0 routing_124779_406_0" vType="pkw" speedFactor="0.93" vaporized=""/>
    <tripinfo id="98305_395_0" depart="25211.00" departLane="28198821#3_0" departPos="4.40" departSpeed="0.00" departDelay="0.00" arrival="25245.00" arrivalLane="32038051#0_1" arrivalPos="89.25" arrivalSpeed="19.30" duration="34.00" routeLength="170.57" waitingTime="9.00" waitingCount="1" stopTime="0.00" timeLoss="23.20" rerouteNo="0" devices="tripinfo_98305_395_0 routing_98305_395_0" vType="pkw" speedFactor="1.01" vaporized=""/>
    <tripinfo id="102535_396_0" depart="25218.00" departLane="28198821#3_0" departPos="4.40" departSpeed="0.00" departDelay="0.00" arrival="25246.00" arrivalLane="32038051#0_1" arrivalPos="89.25" arrivalSpeed="16.76" duration="28.00" routeLength="170.57" waitingTime="6.00" waitingCount="1" stopTime="0.00" timeLoss="16.81" rerouteNo="0" devices="tripinfo_102535_396_0 routing_102535_396_0" vType="pkw" speedFactor="0.91" vaporized=""/>
    <tripinfo id="147209_416_0" depart="25220.00" departLane="28198821#3_0" departPos="4.40" departSpeed="0.00" departDelay="0.00" arrival="25248.00" arrivalLane="32038051#0_1" arrivalPos="89.25" arrivalSpeed="18.02" duration="28.00" routeLength="170.57" waitingTime="5.00" waitingCount="1" stopTime="0.00" timeLoss="17.01" rerouteNo="0" devices="tripinfo_147209_416_0 routing_147209_416_0" vType="pkw" speedFactor="0.97" vaporized=""/>
    <tripinfo id="123965_406_0" depart="25218.00" departLane="-32038056#3_0" departPos="4.40" departSpeed="0.00" departDelay="0.00" arrival="25251.00" arrivalLane="-28198821#4_0" arrivalPos="57.10" arrivalSpeed="14.23" duration="33.00" routeLength="437.47" waitingTime="0.00" waitingCount="0" stopTime="0.00" timeLoss="4.27" rerouteNo="0" devices="tripinfo_123965_406_0 routing_123965_406_0" vType="pkw" speedFactor="1.11" vaporized=""/>
    <tripinfo id="91582_392_0" depart="25220.00" departLane="-32038056#3_0" departPos="4.40" departSpeed="0.00" departDelay="2.00" arrival="25258.00" arrivalLane="32324544#0_1" arrivalPos="90.48" arrivalSpeed="20.23" duration="38.00" routeLength="465.51" waitingTime="0.00" waitingCount="0" stopTime="0.00" timeLoss="8.59" rerouteNo="0" devices="tripinfo_91582_392_0 routing_91582_392_0" vType="pkw" speedFactor="1.07" vaporized=""/>
    <tripinfo id="160150_421_0" depart="25223.00" departLane="-32038056#3_0" departPos="4.40" departSpeed="0.00" departDelay="4.00" arrival="25258.00" arrivalLane="32038051#0_0" arrivalPos="89.25" arrivalSpeed="18.70" duration="35.00" routeLength="446.95" waitingTime="0.00" waitingCount="0" stopTime="0.00" timeLoss="5.57" rerouteNo="0" devices="tripinfo_160150_421_0 routing_160150_421_0" vType="pkw" speedFactor="1.03" vaporized=""/>
    <tripinfo id="151372_418_0" depart="25207.00" departLane="130165204_0" departPos="4.40" departSpeed="0.00" departDelay="0.00" arrival="25278.00" arrivalLane="32038051#0_1" arrivalPos="89.25" arrivalSpeed="19.10" duration="71.00" routeLength="410.03" waitingTime="30.00" waitingCount="1" stopTime="0.00" timeLoss="44.25" rerouteNo="1" devices="tripinfo_151372_418_0 routing_151372_418_0" vType="pkw" speedFactor="0.99" vaporized=""/>
    <tripinfo id="149029_417_0" depart="25236.00" departLane="27115123#2_0" departPos="4.40" departSpeed="0.00" departDelay="0.00" arrival="25283.00" arrivalLane="32038051#0_1" arrivalPos="89.25" arrivalSpeed="20.02" duration="47.00" routeLength="196.41" waitingTime="21.00" waitingCount="1" stopTime="0.00" timeLoss="37.71" rerouteNo="1" devices="tripinfo_149029_417_0 routing_149029_417_0" vType="pkw" speedFactor="1.16" vaporized=""/>
    <tripinfo id="162814_422_0" depart="25233.00" departLane="-32038056#3_0" departPos="4.40" departSpeed="0.00" departDelay="0.00" arrival="25288.00" arrivalLane="32038051#0_0" arrivalPos="89.25" arrivalSpeed="18.41" duration="55.00" routeLength="446.95" waitingTime="15.00" waitingCount="1" stopTime="0.00" timeLoss="26.66" rerouteNo="0" devices="tripinfo_162814_422_0 routing_162814_422_0" vType="pkw" speedFactor="1.08" vaporized=""/>
    <tripinfo id="130602_409_0" depart="25268.00" departLane="-32038056#3_0" departPos="4.40" departSpeed="0.00" departDelay="0.00" arrival="25308.00" arrivalLane="-28198821#4_0" arrivalPos="57.10" arrivalSpeed="13.65" duration="40.00" routeLength="437.47" waitingTime="0.00" waitingCount="0" stopTime="0.00" timeLoss="8.95" rerouteNo="0" devices="tripinfo_130602_409_0 routing_130602_409_0" vType="pkw" speedFactor="1.02" vaporized=""/>
    <tripinfo id="128446_408_0" depart="25273.00" departLane="-32038056#3_0" departPos="4.40" departSpeed="0.00" departDelay="0.00" arrival="25311.00" arrivalLane="32324544#0_1" arrivalPos="90.48" arrivalSpeed="18.58" duration="38.00" routeLength="465.51" waitingTime="0.00" waitingCount="0" stopTime="0.00" timeLoss="5.18" rerouteNo="0" devices="tripinfo_128446_408_0 routing_128446_408_0" vType="pkw" speedFactor="0.97" vaporized=""/>
    <tripinfo id="83516_390_0" depart="25276.00" departLane="-32038056#3_0" departPos="4.40" departSpeed="0.00" departDelay="1.00" arrival="25312.00" arrivalLane="32324544#0_1" arrivalPos="90.48" arrivalSpeed="18.92" duration="36.00" routeLength="465.51" waitingTime="0.00" waitingCount="0" stopTime="0.00" timeLoss="5.62" rerouteNo="0" devices="tripinfo_83516_390_0 routing_83516_390_0" vType="pkw" speedFactor="1.02" vaporized=""/>
    <tripinfo id="115444_403_0" depart="25294.00" departLane="28198821#3_0" departPos="4.40" departSpeed="0.00" departDelay="0.00" arrival="25313.00" arrivalLane="32038051#0_1" arrivalPos="89.25" arrivalSpeed="17.54" duration="19.00" routeLength="170.57" waitingTime="0.00" waitingCount="0" stopTime="0.00" timeLoss="8.07" rerouteNo="0" devices="tripinfo_115444_403_0 routing_115444_403_0" vType="pkw" speedFactor="0.95" vaporized=""/>
    <tripinfo id="103540_397_0" depart="25300.00" departLane="28198821#3_0" departPos="4.40" departSpeed="0.00" departDelay="0.00" arrival="25315.00" arrivalLane="32038051#0_1" arrivalPos="89.25" arrivalSpeed="18.87" duration="15.00" routeLength="170.57" waitingTime="0.00" waitingCount="0" stopTime="0.00" timeLoss="4.29" rerouteNo="0" devices="tripinfo_103540_397_0 routing_103540_397_0" vType="pkw" speedFactor="1.00" vaporized=""/>
    <tripinfo id="121258_405_0" depart="25240.00" departLane="23429231#1_0" departPos="4.40" departSpeed="0.00" departDelay="0.00" arrival="25322.00" arrivalLane="32038051#0_0" arrivalPos="89.25" arrivalSpeed="17.63" duration="82.00" routeLength="203.79" waitingTime="60.00" waitingCount="1" stopTime="0.00" timeLoss="70.69" rerouteNo="0" devices="tripinfo_121258_405_0 routing_121258_405_0" vType="pkw" speedFactor="0.95" vaporized=""/>
    <tripinfo id="126742_407_0" depart="25242.00" departLane="23429231#1_0" departPos="4.40" departSpeed="0.00" departDelay="2.00" arrival="25323.00" arrivalLane="32038051#0_1" arrivalPos="89.25" arrivalSpeed="18.85" duration="81.00" routeLength="203.79" waitingTime="57.00" waitingCount="1" stopTime="0.00" timeLoss="69.45" rerouteNo="0" devices="tripinfo_126742_407_0 routing_126742_407_0" vType="pkw" speedFactor="0.98" vaporized=""/>
    <tripinfo id="148629_417_0" depart="25284.00" departLane="27115123#2_0" departPos="4.40" departSpeed="0.00" departDelay="0.00" arrival="25323.00" arrivalLane="32324544#0_0" arrivalPos="90.48" arrivalSpeed="21.63" duration="39.00" routeLength="198.06" waitingTime="15.00" waitingCount="1" stopTime="0.00" timeLoss="29.46" rerouteNo="1" devices="tripinfo_148629_417_0 routing_148629_417_0" vType="pkw" speedFactor="1.17" vaporized=""/>
    <tripinfo id="102501_396_0" depart="25245.00" departLane="23429231#1_0" departPos="4.40" departSpeed="0.00" departDelay="1.00" arrival="25324.00" arrivalLane="32038051#0_0" arrivalPos="89.25" arrivalSpeed="21.16" duration="79.00" routeLength="203.79" waitingTime="55.00" waitingCount="1" stopTime="0.00" timeLoss="69.21" rerouteNo="0" devices="tripinfo_102501_396_0 routing_102501_396_0" vType="pkw" speedFactor="1.11" vaporized=""/>
    <tripinfo id="113509_402_0" depart="25251.00" departLane="23429231#1_0" departPos="4.40" departSpeed="0.00" departDelay="3.00" arrival="25324.00" arrivalLane="-28198821#4_1" arrivalPos="57.10" arrivalSpeed="14.96" duration="73.00" routeLength="179.90" waitingTime="48.00" waitingCount="1" stopTime="0.00" timeLoss="63.56" rerouteNo="0" devices="tripinfo_113509_402_0 routing_113509_402_0" vType="pkw" speedFactor="1.17" vaporized=""/>
    <tripinfo id="120663_405_0" depart="25248.00" departLane="23429231#1_0" departPos="4.40" departSpeed="0.00" departDelay="2.00" arrival="25326.00" arrivalLane="32038051#0_0" arrivalPos="89.25" arrivalSpeed="20.83" duration="78.00" routeLength="203.79" waitingTime="53.00" waitingCount="1" stopTime="0.00" timeLoss="67.92" rerouteNo="0" devices="tripinfo_120663_405_0 routing_120663_405_0" vType="pkw" speedFactor="1.10" vaporized=""/>
    <tripinfo id="130147_409_0" depart="25254.00" departLane="23429231#1_0" departPos="4.40" departSpeed="0.00" departDelay="3.00" arrival="25326.00" arrivalLane="32038051#0_1" arrivalPos="89.25" arrivalSpeed="20.26" duration="72.00" routeLength="203.79" waitingTime="47.00" waitingCount="1" stopTime="0.00" timeLoss="63.28" rerouteNo="0" devices="tripinfo_130147_409_0 routing_130147_409_0" vType="pkw" speedFactor="1.21" vaporized=""/>
    <tripinfo id="136082_411_0" depart="25279.00" departLane="-32038056#3_0" departPos="4.40" departSpeed="0.00" departDelay="2.00" arrival="25332.00" arrivalLane="32038051#0_0" arrivalPos="89.25" arrivalSpeed="17.47" duration="53.00" routeLength="446.95" waitingTime="9.00" waitingCount="1" stopTime="0.00" timeLoss="19.12" rerouteNo="0" devices="tripinfo_136082_411_0 routing_136082_411_0" vType="pkw" speedFactor="0.90" vaporized=""/>
    <tripinfo id="137244_412_0" depart="25296.00" departLane="-32038056#3_0" departPos="4.40" departSpeed="0.00" departDelay="2.00" arrival="25333.00" arrivalLane="-28198821#4_1" arrivalPos="57.10" arrivalSpeed="13.69" duration="37.00" routeLength="437.47" waitingTime="0.00" waitingCount="0" stopTime="0.00" timeLoss="6.25" rerouteNo="0" devices="tripinfo_137244_412_0 routing_137244_412_0" vType="pkw" speedFactor="1.03" vaporized=""/>
    <tripinfo id="85818_390_0" depart="25281.00" departLane="-32038056#3_0" departPos="4.40" departSpeed="0.00" departDelay="1.00" arrival="25334.00" arrivalLane="32038051#0_0" arrivalPos="89.25" arrivalSpeed="20.12" duration="53.00" routeLength="446.95" waitingTime="9.00" waitingCount="1" stopTime="0.00" timeLoss="26.17" rerouteNo="0" devices="tripinfo_85818_390_0 routing_85818_390_0" vType="pkw" speedFactor="1.14" vaporized=""/>
    <tripinfo id="113303_402_0" depart="25284.00" departLane="-32038056#3_0" departPos="4.40" departSpeed="0.00" departDelay="1.00" arrival="25334.00" arrivalLane="32324544#0_1" arrivalPos="90.48" arrivalSpeed="15.14" duration="50.00" routeLength="465.51" waitingTime="0.00" waitingCount="0" stopTime="0.00" timeLoss="11.50" rerouteNo="0" devices="tripinfo_113303_402_0 routing_113303_402_0" vType="pkw" speedFactor="0.82" vaporized=""/>
    <tripinfo id="86583_391_0" depart="25289.00" departLane="-32038056#3_0" departPos="4.40" departSpeed="0.00" departDelay="0.00" arrival="25336.00" arrivalLane="32038051#0_0" arrivalPos="89.25" arrivalSpeed="17.86" duration="47.00" routeLength="446.95" waitingTime="4.00" waitingCount="1" stopTime="0.00" timeLoss="15.12" rerouteNo="0" devices="tripinfo_86583_391_0 routing_86583_391_0" vType="pkw" speedFactor="0.96" vaporized=""/>
    <tripinfo id="162096_421_0" depart="25306.00" departLane="130165204_0" departPos="4.40" departSpeed="0.00" departDelay="0.00" arrival="25340.00" arrivalLane="32038051#0_1" arrivalPos="89.25" arrivalSpeed="17.96" duration="34.00" routeLength="410.03" waitingTime="0.00" waitingCount="0" stopTime="0.00" timeLoss="5.31" rerouteNo="1" devices="tripinfo_162096_421_0 routing_162096_421_0" vType="pkw" speedFactor="0.93" vaporized=""/>
    <tripinfo id="120878_405_0" depart="25291.00" departLane="-32038056#3_0" departPos="4.40" departSpeed="0.00" departDelay="0.00" arrival="25348.00" arrivalLane="32038051#0_0" arrivalPos="89.25" arrivalSpeed="17.37" duration="57.00" routeLength="446.95" waitingTime="9.00" waitingCount="2" stopTime="0.00" timeLoss="25.16" rerouteNo="0" devices="tripinfo_120878_405_0 routing_120878_405_0" vType="pkw" speedFactor="0.96" vaporized=""/>
    <tripinfo id="142412_415_0" depart="25307.00" departLane="-32038056#3_0" departPos="4.40" departSpeed="0.00" departDelay="0.00" arrival="25349.00" arrivalLane="-28198821#4_1" arrivalPos="57.10" arrivalSpeed="14.10" duration="42.00" routeLength="437.47" waitingTime="0.00" waitingCount="0" stopTime="0.00" timeLoss="10.63" rerouteNo="0" devices="tripinfo_142412_415_0 routing_142412_415_0" vType="pkw" speedFactor="1.03" vaporized=""/>
    <tripinfo id="175147_428_0" depart="25324.00" departLane="130165204_0" departPos="4.40" departSpeed="0.00" departDelay="0.00" arrival="25358.00" arrivalLane="32038051#0_1" arrivalPos="89.25" arrivalSpeed="17.80" duration="34.00" routeLength="410.03" waitingTime="0.00" waitingCount="0" stopTime="0.00" timeLoss="5.46" rerouteNo="1" devices="tripinfo_175147_428_0 routing_175147_428_0" vType="pkw" speedFactor="0.94" vaporized=""/>
    <tripinfo id="85922_391_0" depart="25294.00" departLane="-32038056#3_0" departPos="4.40" departSpeed="0.00" departDelay="1.00" arrival="25362.00" arrivalLane="32038051#0_0" arrivalPos="89.25" arrivalSpeed="18.81" duration="68.00" routeLength="446.95" waitingTime="17.00" waitingCount="3" stopTime="0.00" timeLoss="36.86" rerouteNo="0" devices="tripinfo_85922_391_0 routing_85922_391_0" vType="pkw" speedFactor="0.99" vaporized=""/>
    <tripinfo id="138220_412_0" depart="25310.00" departLane="-32038056#3_0" departPos="4.40" departSpeed="0.00" departDelay="1.00" arrival="25363.00" arrivalLane="-28198821#4_1" arrivalPos="57.10" arrivalSpeed="12.08" duration="53.00" routeLength="437.47" waitingTime="7.00" waitingCount="1" stopTime="0.00" timeLoss="19.26" rerouteNo="0" devices="tripinfo_138220_412_0 routing_138220_412_0" vType="pkw" speedFactor="0.95" vaporized=""/>
    <tripinfo id="118963_405_0" depart="25304.00" departLane="-32038056#3_0" departPos="4.40" departSpeed="0.00" departDelay="0.00" arrival="25364.00" arrivalLane="32038051#0_0" arrivalPos="89.25" arrivalSpeed="16.99" duration="60.00" routeLength="446.95" waitingTime="12.00" waitingCount="2" stopTime="0.00" timeLoss="26.69" rerouteNo="0" devices="tripinfo_118963_405_0 routing_118963_405_0" vType="pkw" speedFactor="0.91" vaporized=""/>
    <tripinfo id="167799_425_0" depart="25327.00" departLane="-32038056#3_0" departPos="4.40" departSpeed="0.00" departDelay="0.00" arrival="25364.00" arrivalLane="-28198821#4_1" arrivalPos="57.10" arrivalSpeed="13.82" duration="37.00" routeLength="437.47" waitingTime="0.00" waitingCount="0" stopTime="0.00" timeLoss="7.94" rerouteNo="0" devices="tripinfo_167799_425_0 routing_167799_425_0" vType="pkw" speedFactor="1.09" vaporized=""/>
    <tripinfo id="136152_411_0" depart="25313.00" departLane="-32038056#3_0" departPos="4.40" departSpeed="0.00" departDelay="0.00" arrival="25366.00" arrivalLane="32038051#0_0" arrivalPos="89.25" arrivalSpeed="16.47" duration="53.00" routeLength="446.95" waitingTime="7.00" waitingCount="1" stopTime="0.00" timeLoss="18.28" rerouteNo="0" devices="tripinfo_136152_411_0 routing_136152_411_0" vType="pkw" speedFactor="0.88" vaporized=""/>
    <tripinfo id="130372_409_0" depart="25329.00" departLane="-32038056#3_0" departPos="4.40" departSpeed="0.00" departDelay="2.00" arrival="25369.00" arrivalLane="32324544#0_1" arrivalPos="90.48" arrivalSpeed="19.57" duration="40.00" routeLength="465.51" waitingTime="0.00" waitingCount="0" stopTime="0.00" timeLoss="8.88" rerouteNo="0" devices="tripinfo_130372_409_0 routing_130372_409_0" vType="pkw" speedFactor="1.01" vaporized=""/>
    <tripinfo id="104806_398_0" depart="25332.00" departLane="-32038056#3_0" departPos="4.40" departSpeed="0.00" departDelay="3.00" arrival="25371.00" arrivalLane="32324544#0_1" arrivalPos="90.48" arrivalSpeed="20.16" duration="39.00" routeLength="465.51" waitingTime="0.00" waitingCount="0" stopTime="0.00" timeLoss="9.10" rerouteNo="0" devices="tripinfo_104806_398_0 routing_104806_398_0" vType="pkw" speedFactor="1.08" vaporized=""/>
    <tripinfo id="102630_396_0" depart="25257.00" departLane="23429231#1_0" departPos="4.40" departSpeed="0.00" departDelay="5.00" arrival="25383.00" arrivalLane="32038051#0_0" arrivalPos="89.25" arrivalSpeed="18.57" duration="126.00" routeLength="203.79" waitingTime="99.00" waitingCount="2" stopTime="0.00" timeLoss="115.26" rerouteNo="0" devices="tripinfo_102630_396_0 routing_102630_396_0" vType="pkw" speedFactor="0.99" vaporized=""/>
    <tripinfo id="122376_406_0" depart="25260.00" departLane="23429231#1_0" departPos="4.40" departSpeed="0.00" departDelay="6.00" arrival="25383.00" arrivalLane="32038051#0_1" arrivalPos="89.25" arrivalSpeed="17.97" duration="123.00" routeLength="203.79" waitingTime="95.00" waitingCount="2" stopTime="0.00" timeLoss="111.61" rerouteNo="0" devices="tripinfo_122376_406_0 routing_122376_406_0" vType="pkw" speedFactor="0.97" vaporized=""/>
    <tripinfo id="135103_411_0" depart="25265.00" departLane="23429231#1_0" departPos="4.40" departSpeed="0.00" departDelay="9.00" arrival="25384.00" arrivalLane="32038051#0_1" arrivalPos="89.25" arrivalSpeed="19.07" duration="119.00" routeLength="203.79" waitingTime="88.00" waitingCount="2" stopTime="0.00" timeLoss="108.28" rerouteNo="0" devices="tripinfo_135103_411_0 routing_135103_411_0" vType="pkw" speedFactor="0.99" vaporized=""/>
    <tripinfo id="122194_406_0" depart="25263.00" departLane="23429231#1_0" departPos="4.40" departSpeed="0.00" departDelay="8.00" arrival="25385.00" arrivalLane="32038051#0_0" arrivalPos="89.25" arrivalSpeed="20.09" duration="122.00" routeLength="203.79" waitingTime="92.00" waitingCount="2" stopTime="0.00" timeLoss="111.75" rerouteNo="0" devices="tripinfo_122194_406_0 routing_122194_406_0" vType="pkw" speedFactor="1.08" vaporized=""/>
    <tripinfo id="152958_419_0" depart="25268.00" departLane="23429231#1_0" departPos="4.40" departSpeed="0.00" departDelay="11.00" arrival="25387.00" arrivalLane="32038051#0_0" arrivalPos="89.25" arrivalSpeed="15.32" duration="119.00" routeLength="203.79" waitingTime="87.00" waitingCount="2" stopTime="0.00" timeLoss="106.29" rerouteNo="0" devices="tripinfo_152958_419_0 routing_152958_419_0" vType="pkw" speedFactor="0.83" vaporized=""/>
    <tripinfo id="125613_406_0" depart="25271.00" departLane="23429231#1_0" departPos="4.40" departSpeed="0.00" departDelay="13.00" arrival="25387.00" arrivalLane="32038051#0_1" arrivalPos="89.25" arrivalSpeed="15.02" duration="116.00" routeLength="203.79" waitingTime="84.00" waitingCount="2" stopTime="0.00" timeLoss="102.78" rerouteNo="0" devices="tripinfo_125613_406_0 routing_125613_406_0" vType="pkw" speedFactor="0.81" vaporized=""/>
    <tripinfo id="161721_421_0" depart="25337.00" departLane="130165204_0" departPos="4.40" departSpeed="0.00" departDelay="0.00" arrival="25391.00" arrivalLane="32038051#0_1" arrivalPos="89.25" arrivalSpeed="20.19" duration="54.00" routeLength="410.03" waitingTime="11.00" waitingCount="2" stopTime="0.00" timeLoss="28.77" rerouteNo="1" devices="tripinfo_161721_421_0 routing_161721_421_0" vType="pkw" speedFactor="1.07" vaporized=""/>
    <tripinfo id="122154_406_0" depart="25337.00" departLane="-32038056#3_0" departPos="4.40" departSpeed="0.00" departDelay="0.00" arrival="25392.00" arrivalLane="-28198821#4_0" arrivalPos="57.10" arrivalSpeed="16.67" duration="55.00" routeLength="437.47" waitingTime="18.00" waitingCount="1" stopTime="0.00" timeLoss="28.56" rerouteNo="0" devices="tripinfo_122154_406_0 routing_122154_406_0" vType="pkw" speedFactor="1.21" vaporized=""/>
    <tripinfo id="135138_411_0" depart="25350.00" departLane="-32038056#3_0" departPos="4.40" departSpeed="0.00" departDelay="1.00" arrival="25393.00" arrivalLane="-28198821#4_1" arrivalPos="57.10" arrivalSpeed="13.63" duration="43.00" routeLength="437.47" waitingTime="0.00" waitingCount="0" stopTime="0.00" timeLoss="11.54" rerouteNo="0" devices="tripinfo_135138_411_0 routing_135138_411_0" vType="pkw" speedFactor="1.02" vaporized=""/>
    <tripinfo id="121091_405_0" depart="25345.00" departLane="-32038056#3_0" departPos="4.40" departSpeed="0.00" departDelay="0.00" arrival="25394.00" arrivalLane="32038051#0_0" arrivalPos="89.25" arrivalSpeed="17.49" duration="49.00" routeLength="446.95" waitingTime="5.00" waitingCount="1" stopTime="0.00" timeLoss="15.84" rerouteNo="0" devices="tripinfo_121091_405_0 routing_121091_405_0" vType="pkw" speedFactor="0.92" vaporized=""/>
    <tripinfo id="169772_426_0" depart="25348.00" departLane="-32038056#3_0" departPos="4.40" departSpeed="0.00" departDelay="1.00" arrival="25396.00" arrivalLane="32038051#0_0" arrivalPos="89.25" arrivalSpeed="18.50" duration="48.00" routeLength="446.95" waitingTime="3.00" waitingCount="1" stopTime="0.00" timeLoss="15.92" rerouteNo="0" devices="tripinfo_169772_426_0 routing_169772_426_0" vType="pkw" speedFactor="0.96" vaporized=""/>
    <tripinfo id="150753_418_0" depart="25353.00" departLane="-32038056#3_0" departPos="4.40" departSpeed="0.00" departDelay="2.00" arrival="25396.00" arrivalLane="32324544#0_1" arrivalPos="90.48" arrivalSpeed="20.37" duration="43.00" routeLength="465.51" waitingTime="0.00" waitingCount="0" stopTime="0.00" timeLoss="12.82" rerouteNo="0" devices="tripinfo_150753_418_0 routing_150753_418_0" vType="pkw" speedFactor="1.05" vaporized=""/>
    <tripinfo id="148536_417_0" depart="25361.00" departLane="-32038056#3_0" departPos="4.40" departSpeed="0.00" departDelay="0.00" arrival="25398.00" arrivalLane="32324544#0_1" arrivalPos="90.48" arrivalSpeed="19.44" duration="37.00" routeLength="465.51" waitingTime="0.00" waitingCount="0" stopTime="0.00" timeLoss="6.44" rerouteNo="0" devices="tripinfo_148536_417_0 routing_148536_417_0" vType="pkw" speedFactor="1.05" vaporized=""/>
    <tripinfo id="114183_402_0" depart="25359.00" departLane="-32038056#3_0" departPos="4.40" departSpeed="0.00" departDelay="0.00" arrival="25408.00" arrivalLane="32038051#0_0" arrivalPos="89.25" arrivalSpeed="19.92" duration="49.00" routeLength="446.95" waitingTime="6.00" waitingCount="1" stopTime="0.00" timeLoss="21.23" rerouteNo="0" devices="tripinfo_114183_402_0 routing_114183_402_0" vType="pkw" speedFactor="1.10" vaporized=""/>
    <tripinfo id="167170_425_0" depart="25367.00" departLane="-32038056#3_0" departPos="4.40" departSpeed="0.00" departDelay="3.00" arrival="25408.00" arrivalLane="-28198821#4_1" arrivalPos="57.10" arrivalSpeed="14.55" duration="41.00" routeLength="437.47" waitingTime="0.00" waitingCount="0" stopTime="0.00" timeLoss="10.53" rerouteNo="0" devices="tripinfo_167170_425_0 routing_167170_425_0" vType="pkw" speedFactor="1.06" vaporized=""/>
    <tripinfo id="120618_405_0" depart="25364.00" departLane="-32038056#3_0" departPos="4.40" departSpeed="0.00" departDelay="1.00" arrival="25410.00" arrivalLane="32038051#0_0" arrivalPos="89.25" arrivalSpeed="17.60" duration="46.00" routeLength="446.95" waitingTime="1.00" waitingCount="1" stopTime="0.00" timeLoss="13.78" rerouteNo="0" devices="tripinfo_120618_405_0 routing_120618_405_0" vType="pkw" speedFactor="0.94" vaporized=""/>
    <tripinfo id="165043_423_0" depart="25370.00" departLane="-32038056#3_0" departPos="4.40" departSpeed="0.00" departDelay="4.00" arrival="25410.00" arrivalLane="32324544#0_1" arrivalPos="90.48" arrivalSpeed="19.96" duration="40.00" routeLength="465.51" waitingTime="0.00" waitingCount="0" stopTime="0.00" timeLoss="11.17" rerouteNo="0" devices="tripinfo_165043_423_0 routing_165043_423_0" vType="pkw" speedFactor="1.09" vaporized=""/>
    <tripinfo id="137508_412_0" depart="25372.00" departLane="-32038056#3_0" departPos="4.40" departSpeed="0.00" departDelay="5.00" arrival="25412.00" arrivalLane="32038051#0_0" arrivalPos="89.25" arrivalSpeed="19.51" duration="40.00" routeLength="446.95" waitingTime="0.00" waitingCount="0" stopTime="0.00" timeLoss="12.41" rerouteNo="0" devices="tripinfo_137508_412_0 routing_137508_412_0" vType="pkw" speedFactor="1.11" vaporized=""/>
    <tripinfo id="173487_427_0" depart="25376.00" departLane="-32038056#3_0" departPos="4.40" departSpeed="0.00" departDelay="7.00" arrival="25414.00" arrivalLane="32038051#0_0" arrivalPos="89.25" arrivalSpeed="16.68" duration="38.00" routeLength="446.95" waitingTime="0.00" waitingCount="0" stopTime="0.00" timeLoss="4.44" rerouteNo="0" devices="tripinfo_173487_427_0 routing_173487_427_0" vType="pkw" speedFactor="0.90" vaporized=""/>
    <tripinfo id="162547_422_0" depart="25379.00" departLane="-32038056#3_0" departPos="4.40" departSpeed="0.00" departDelay="9.00" arrival="25428.00" arrivalLane="32038051#0_0" arrivalPos="89.25" arrivalSpeed="16.94" duration="49.00" routeLength="446.95" waitingTime="7.00" waitingCount="1" stopTime="0.00" timeLoss="15.72" rerouteNo="0" devices="tripinfo_162547_422_0 routing_162547_422_0" vType="pkw" speedFactor="0.92" vaporized=""/>
    <tripinfo id="163503_422_0" depart="25384.00" departLane="-32038056#3_0" departPos="4.40" departSpeed="0.00" departDelay="9.00" arrival="25428.00" arrivalLane="-28198821#4_1" arrivalPos="57.10" arrivalSpeed="12.41" duration="44.00" routeLength="437.47" waitingTime="0.00" waitingCount="0" stopTime="0.00" timeLoss="11.65" rerouteNo="0" devices="tripinfo_163503_422_0 routing_163503_422_0" vType="pkw" speedFactor="0.99" vaporized=""/>
    <tripinfo id="133955_411_0" depart="25274.00" departLane="23429231#1_0" departPos="4.40" departSpeed="0.00" departDelay="15.00" arrival="25433.00" arrivalLane="32038051#0_0" arrivalPos="89.25" arrivalSpeed="18.75" duration="159.00" routeLength="203.79" waitingTime="123.00" waitingCount="3" stopTime="0.00" timeLoss="148.20" rerouteNo="0" devices="tripinfo_133955_411_0 routing_133955_411_0" vType="pkw" speedFactor="1.00" vaporized=""/>
    <tripinfo id="120275_405_0" depart="25280.00" departLane="23429231#1_0" departPos="4.40" departSpeed="0.00" departDelay="19.00" arrival="25433.00" arrivalLane="32038051#0_1" arrivalPos="89.25" arrivalSpeed="19.16" duration="153.00" routeLength="203.79" waitingTime="115.00" waitingCount="3" stopTime="0.00" timeLoss="142.56" rerouteNo="0" devices="tripinfo_120275_405_0 routing_120275_405_0" vType="pkw" speedFactor="1.05" vaporized=""/>
    <tripinfo id="129253_408_0" depart="25277.00" departLane="23429231#1_0" departPos="4.40" departSpeed="0.00" departDelay="17.00" arrival="25435.00" arrivalLane="32038051#0_0" arrivalPos="89.25" arrivalSpeed="17.18" duration="158.00" routeLength="203.79" waitingTime="120.00" waitingCount="3" stopTime="0.00" timeLoss="145.76" rerouteNo="0" devices="tripinfo_129253_408_0 routing_129253_408_0" vType="pkw" speedFactor="0.89" vaporized=""/>
    <tripinfo id="134807_411_0" depart="25283.00" departLane="23429231#1_0" departPos="4.40" departSpeed="0.00" departDelay="21.00" arrival="25435.00" arrivalLane="32324544#0_1" arrivalPos="90.48" arrivalSpeed="20.47" duration="152.00" routeLength="203.50" waitingTime="114.00" waitingCount="3" stopTime="0.00" timeLoss="141.88" rerouteNo="0" devices="tripinfo_134807_411_0 routing_134807_411_0" vType="pkw" speedFactor="1.06" vaporized=""/>
    <tripinfo id="135201_411_0" depart="25284.00" departLane="23429231#1_0" departPos="4.40" departSpeed="0.00" departDelay="20.00" arrival="25436.00" arrivalLane="32038051#0_0" arrivalPos="89.25" arrivalSpeed="18.83" duration="152.00" routeLength="203.79" waitingTime="114.00" waitingCount="3" stopTime="0.00" timeLoss="141.40" rerouteNo="0" devices="tripinfo_135201_411_0 routing_135201_411_0" vType="pkw" speedFactor="0.99" vaporized=""/>
    <tripinfo id="86189_391_0" depart="25286.00" departLane="23429231#1_0" departPos="4.40" departSpeed="0.00" departDelay="21.00" arrival="25436.00" arrivalLane="32038051#0_1" arrivalPos="89.25" arrivalSpeed="19.48" duration="150.00" routeLength="203.79" waitingTime="110.00" waitingCount="3" stopTime="0.00" timeLoss="139.26" rerouteNo="0" devices="tripinfo_86189_391_0 routing_86189_391_0" vType="pkw" speedFactor="1.02" vaporized=""/>