<?xml version="1.0" encoding="UTF-8"?>

<!-- generated on 2023-08-26 13:55:03 by Eclipse SUMO libsumo Version 1.18.0
<configuration xmlns:xsi="http://www.w3.org/2001/XMLSchema-instance" xsi:noNamespaceSchemaLocation="http://sumo.dlr.de/xsd/libsumoConfiguration.xsd">

    <input>
        <net-file value="/home/stefan/RESCO/./environments/cologne1/cologne1.net.xml"/>
        <route-files value="/home/stefan/RESCO/./environments/cologne1/cologne1.rou.xml"/>
    </input>

    <output>
        <tripinfo-output value="/home/stefan/results/IDQN-tr0-cologne1-0-drq_norm-wait_norm/tripinfo_9.xml"/>
        <tripinfo-output.write-unfinished value="true"/>
    </output>

    <time>
        <begin value="25200"/>
        <end value="28800"/>
    </time>

    <processing>
        <time-to-teleport value="-1"/>
    </processing>

    <report>
        <no-warnings value="True"/>
        <no-step-log value="True"/>
    </report>

    <random_number>
        <random value="true"/>
    </random_number>

</configuration>
-->

<tripinfos xmlns:xsi="http://www.w3.org/2001/XMLSchema-instance" xsi:noNamespaceSchemaLocation="http://sumo.dlr.de/xsd/tripinfo_file.xsd">
    <tripinfo id="124779_406_0" depart="25205.00" departLane="28198821#3_0" departPos="4.40" departSpeed="0.00" departDelay="0.00" arrival="25223.00" arrivalLane="32038051#0_1" arrivalPos="89.25" arrivalSpeed="19.78" duration="18.00" routeLength="170.57" waitingTime="0.00" waitingCount="0" stopTime="0.00" timeLoss="7.66" rerouteNo="0" devices="tripinfo_124779_406_0 routing_124779_406_0" vType="pkw" speedFactor="1.04" vaporized=""/>
    <tripinfo id="98305_395_0" depart="25211.00" departLane="28198821#3_0" departPos="4.40" departSpeed="0.00" departDelay="0.00" arrival="25228.00" arrivalLane="32038051#0_1" arrivalPos="89.25" arrivalSpeed="16.52" duration="17.00" routeLength="170.57" waitingTime="0.00" waitingCount="0" stopTime="0.00" timeLoss="5.11" rerouteNo="0" devices="tripinfo_98305_395_0 routing_98305_395_0" vType="pkw" speedFactor="0.91" vaporized=""/>
    <tripinfo id="102535_396_0" depart="25218.00" departLane="28198821#3_0" departPos="4.40" departSpeed="0.00" departDelay="0.00" arrival="25238.00" arrivalLane="32038051#0_1" arrivalPos="89.25" arrivalSpeed="19.69" duration="20.00" routeLength="170.57" waitingTime="1.00" waitingCount="1" stopTime="0.00" timeLoss="10.71" rerouteNo="0" devices="tripinfo_102535_396_0 routing_102535_396_0" vType="pkw" speedFactor="1.09" vaporized=""/>
    <tripinfo id="151372_418_0" depart="25207.00" departLane="130165204_0" departPos="4.40" departSpeed="0.00" departDelay="0.00" arrival="25243.00" arrivalLane="32038051#0_1" arrivalPos="89.25" arrivalSpeed="17.54" duration="36.00" routeLength="410.03" waitingTime="0.00" waitingCount="0" stopTime="0.00" timeLoss="7.63" rerouteNo="1" devices="tripinfo_151372_418_0 routing_151372_418_0" vType="pkw" speedFactor="0.94" vaporized=""/>
    <tripinfo id="147209_416_0" depart="25220.00" departLane="28198821#3_0" departPos="4.40" departSpeed="0.00" departDelay="0.00" arrival="25250.00" arrivalLane="32038051#0_1" arrivalPos="89.25" arrivalSpeed="16.18" duration="30.00" routeLength="170.57" waitingTime="4.00" waitingCount="1" stopTime="0.00" timeLoss="18.06" rerouteNo="0" devices="tripinfo_147209_416_0 routing_147209_416_0" vType="pkw" speedFactor="0.84" vaporized=""/>
    <tripinfo id="149029_417_0" depart="25236.00" departLane="27115123#2_0" departPos="4.40" departSpeed="0.00" departDelay="0.00" arrival="25259.00" arrivalLane="32038051#0_1" arrivalPos="89.25" arrivalSpeed="16.83" duration="23.00" routeLength="196.41" waitingTime="0.00" waitingCount="0" stopTime="0.00" timeLoss="11.23" rerouteNo="1" devices="tripinfo_149029_417_0 routing_149029_417_0" vType="pkw" speedFactor="0.91" vaporized=""/>
    <tripinfo id="91582_392_0" depart="25221.00" departLane="-32038056#3_0" departPos="4.40" departSpeed="0.00" departDelay="3.00" arrival="25263.00" arrivalLane="32324544#0_1" arrivalPos="90.48" arrivalSpeed="19.52" duration="42.00" routeLength="465.51" waitingTime="0.00" waitingCount="0" stopTime="0.00" timeLoss="10.69" rerouteNo="0" devices="tripinfo_91582_392_0 routing_91582_392_0" vType="pkw" speedFactor="1.03" vaporized=""/>
    <tripinfo id="123965_406_0" depart="25218.00" departLane="-32038056#3_0" departPos="4.40" departSpeed="0.00" departDelay="0.00" arrival="25272.00" arrivalLane="-28198821#4_0" arrivalPos="57.10" arrivalSpeed="12.86" duration="54.00" routeLength="437.47" waitingTime="11.00" waitingCount="1" stopTime="0.00" timeLoss="20.48" rerouteNo="0" devices="tripinfo_123965_406_0 routing_123965_406_0" vType="pkw" speedFactor="0.94" vaporized=""/>
    <tripinfo id="160150_421_0" depart="25223.00" departLane="-32038056#3_0" departPos="4.40" departSpeed="0.00" departDelay="4.00" arrival="25274.00" arrivalLane="32038051#0_0" arrivalPos="89.25" arrivalSpeed="21.07" duration="51.00" routeLength="446.95" waitingTime="11.00" waitingCount="1" stopTime="0.00" timeLoss="26.96" rerouteNo="0" devices="tripinfo_160150_421_0 routing_160150_421_0" vType="pkw" speedFactor="1.29" vaporized=""/>
    <tripinfo id="162814_422_0" depart="25233.00" departLane="-32038056#3_0" departPos="4.40" departSpeed="0.00" departDelay="0.00" arrival="25275.00" arrivalLane="32038051#0_0" arrivalPos="89.25" arrivalSpeed="19.30" duration="42.00" routeLength="446.95" waitingTime="2.00" waitingCount="1" stopTime="0.00" timeLoss="13.33" rerouteNo="0" devices="tripinfo_162814_422_0 routing_162814_422_0" vType="pkw" speedFactor="1.06" vaporized=""/>
    <tripinfo id="130602_409_0" depart="25268.00" departLane="-32038056#3_0" departPos="4.40" departSpeed="0.00" departDelay="0.00" arrival="25300.00" arrivalLane="-28198821#4_0" arrivalPos="57.10" arrivalSpeed="15.50" duration="32.00" routeLength="437.47" waitingTime="0.00" waitingCount="0" stopTime="0.00" timeLoss="4.54" rerouteNo="0" devices="tripinfo_130602_409_0 routing_130602_409_0" vType="pkw" speedFactor="1.18" vaporized=""/>
    <tripinfo id="136082_411_0" depart="25278.00" departLane="-32038056#3_0" departPos="4.40" departSpeed="0.00" departDelay="1.00" arrival="25315.00" arrivalLane="32038051#0_0" arrivalPos="89.25" arrivalSpeed="17.56" duration="37.00" routeLength="446.95" waitingTime="0.00" waitingCount="0" stopTime="0.00" timeLoss="5.75" rerouteNo="0" devices="tripinfo_136082_411_0 routing_136082_411_0" vType="pkw" speedFactor="0.96" vaporized=""/>
    <tripinfo id="128446_408_0" depart="25273.00" departLane="-32038056#3_0" departPos="4.40" departSpeed="0.00" departDelay="0.00" arrival="25319.00" arrivalLane="32324544#0_1" arrivalPos="90.48" arrivalSpeed="20.02" duration="46.00" routeLength="465.51" waitingTime="5.00" waitingCount="1" stopTime="0.00" timeLoss="15.82" rerouteNo="0" devices="tripinfo_128446_408_0 routing_128446_408_0" vType="pkw" speedFactor="1.04" vaporized=""/>
    <tripinfo id="115444_403_0" depart="25294.00" departLane="28198821#3_0" departPos="4.40" departSpeed="0.00" departDelay="0.00" arrival="25320.00" arrivalLane="32038051#0_1" arrivalPos="89.25" arrivalSpeed="14.03" duration="26.00" routeLength="170.57" waitingTime="5.00" waitingCount="1" stopTime="0.00" timeLoss="11.64" rerouteNo="0" devices="tripinfo_115444_403_0 routing_115444_403_0" vType="pkw" speedFactor="0.73" vaporized=""/>
    <tripinfo id="121258_405_0" depart="25240.00" departLane="23429231#1_0" departPos="4.40" departSpeed="0.00" departDelay="0.00" arrival="25323.00" arrivalLane="32038051#0_0" arrivalPos="89.25" arrivalSpeed="19.19" duration="83.00" routeLength="203.79" waitingTime="60.00" waitingCount="1" stopTime="0.00" timeLoss="72.27" rerouteNo="0" devices="tripinfo_121258_405_0 routing_121258_405_0" vType="pkw" speedFactor="1.04" vaporized=""/>
    <tripinfo id="126742_407_0" depart="25243.00" departLane="23429231#1_0" departPos="4.40" departSpeed="0.00" departDelay="3.00" arrival="25323.00" arrivalLane="32038051#0_1" arrivalPos="89.25" arrivalSpeed="17.70" duration="80.00" routeLength="203.79" waitingTime="58.00" waitingCount="1" stopTime="0.00" timeLoss="68.60" rerouteNo="0" devices="tripinfo_126742_407_0 routing_126742_407_0" vType="pkw" speedFactor="0.95" vaporized=""/>
    <tripinfo id="148629_417_0" depart="25284.00" departLane="27115123#2_0" departPos="4.40" departSpeed="0.00" departDelay="0.00" arrival="25323.00" arrivalLane="32324544#0_0" arrivalPos="90.48" arrivalSpeed="20.30" duration="39.00" routeLength="198.06" waitingTime="17.00" waitingCount="1" stopTime="0.00" timeLoss="28.90" rerouteNo="1" devices="tripinfo_148629_417_0 routing_148629_417_0" vType="pkw" speedFactor="1.07" vaporized=""/>
    <tripinfo id="102501_396_0" depart="25245.00" departLane="23429231#1_0" departPos="4.40" departSpeed="0.00" departDelay="1.00" arrival="25324.00" arrivalLane="32038051#0_0" arrivalPos="89.25" arrivalSpeed="20.82" duration="79.00" routeLength="203.79" waitingTime="55.00" waitingCount="1" stopTime="0.00" timeLoss="69.36" rerouteNo="0" devices="tripinfo_102501_396_0 routing_102501_396_0" vType="pkw" speedFactor="1.10" vaporized=""/>
    <tripinfo id="120663_405_0" depart="25248.00" departLane="23429231#1_0" departPos="4.40" departSpeed="0.00" departDelay="2.00" arrival="25325.00" arrivalLane="32038051#0_1" arrivalPos="89.25" arrivalSpeed="14.75" duration="77.00" routeLength="203.79" waitingTime="52.00" waitingCount="1" stopTime="0.00" timeLoss="63.36" rerouteNo="0" devices="tripinfo_120663_405_0 routing_120663_405_0" vType="pkw" speedFactor="0.77" vaporized=""/>
    <tripinfo id="113509_402_0" depart="25251.00" departLane="23429231#1_0" departPos="4.40" departSpeed="0.00" departDelay="3.00" arrival="25326.00" arrivalLane="-28198821#4_1" arrivalPos="57.10" arrivalSpeed="14.74" duration="75.00" routeLength="179.90" waitingTime="50.00" waitingCount="1" stopTime="0.00" timeLoss="64.82" rerouteNo="0" devices="tripinfo_113509_402_0 routing_113509_402_0" vType="pkw" speedFactor="1.08" vaporized=""/>
    <tripinfo id="130147_409_0" depart="25254.00" departLane="23429231#1_0" departPos="4.40" departSpeed="0.00" departDelay="3.00" arrival="25327.00" arrivalLane="32038051#0_0" arrivalPos="89.25" arrivalSpeed="17.67" duration="73.00" routeLength="203.79" waitingTime="47.00" waitingCount="1" stopTime="0.00" timeLoss="61.73" rerouteNo="0" devices="tripinfo_130147_409_0 routing_130147_409_0" vType="pkw" speedFactor="1.01" vaporized=""/>
    <tripinfo id="102630_396_0" depart="25257.00" departLane="23429231#1_0" departPos="4.40" departSpeed="0.00" departDelay="5.00" arrival="25328.00" arrivalLane="32038051#0_0" arrivalPos="89.25" arrivalSpeed="18.85" duration="71.00" routeLength="203.79" waitingTime="47.00" waitingCount="1" stopTime="0.00" timeLoss="59.95" rerouteNo="0" devices="tripinfo_102630_396_0 routing_102630_396_0" vType="pkw" speedFactor="0.98" vaporized=""/>
    <tripinfo id="122376_406_0" depart="25259.00" departLane="23429231#1_0" departPos="4.40" departSpeed="0.00" departDelay="5.00" arrival="25328.00" arrivalLane="32038051#0_1" arrivalPos="89.25" arrivalSpeed="21.66" duration="69.00" routeLength="203.79" waitingTime="44.00" waitingCount="1" stopTime="0.00" timeLoss="59.86" rerouteNo="0" devices="tripinfo_122376_406_0 routing_122376_406_0" vType="pkw" speedFactor="1.18" vaporized=""/>
    <tripinfo id="122194_406_0" depart="25262.00" departLane="23429231#1_0" departPos="4.40" departSpeed="0.00" departDelay="7.00" arrival="25330.00" arrivalLane="32038051#0_0" arrivalPos="89.25" arrivalSpeed="16.45" duration="68.00" routeLength="203.79" waitingTime="43.00" waitingCount="1" stopTime="0.00" timeLoss="55.59" rerouteNo="0" devices="tripinfo_122194_406_0 routing_122194_406_0" vType="pkw" speedFactor="0.89" vaporized=""/>
    <tripinfo id="135103_411_0" depart="25264.00" departLane="23429231#1_0" departPos="4.40" departSpeed="0.00" departDelay="8.00" arrival="25330.00" arrivalLane="32038051#0_1" arrivalPos="89.25" arrivalSpeed="16.55" duration="66.00" routeLength="203.79" waitingTime="39.00" waitingCount="1" stopTime="0.00" timeLoss="53.83" rerouteNo="0" devices="tripinfo_135103_411_0 routing_135103_411_0" vType="pkw" speedFactor="0.89" vaporized=""/>
    <tripinfo id="152958_419_0" depart="25268.00" departLane="23429231#1_0" departPos="4.40" departSpeed="0.00" departDelay="11.00" arrival="25332.00" arrivalLane="32038051#0_0" arrivalPos="89.25" arrivalSpeed="16.73" duration="64.00" routeLength="203.79" waitingTime="39.00" waitingCount="1" stopTime="0.00" timeLoss="51.16" rerouteNo="0" devices="tripinfo_152958_419_0 routing_152958_419_0" vType="pkw" speedFactor="0.88" vaporized=""/>
    <tripinfo id="125613_406_0" depart="25270.00" departLane="23429231#1_0" departPos="4.40" departSpeed="0.00" departDelay="12.00" arrival="25332.00" arrivalLane="32038051#0_1" arrivalPos="89.25" arrivalSpeed="19.37" duration="62.00" routeLength="203.79" waitingTime="35.00" waitingCount="1" stopTime="0.00" timeLoss="51.15" rerouteNo="0" devices="tripinfo_125613_406_0 routing_125613_406_0" vType="pkw" speedFactor="1.03" vaporized=""/>
    <tripinfo id="133955_411_0" depart="25273.00" departLane="23429231#1_0" departPos="4.40" departSpeed="0.00" departDelay="14.00" arrival="25333.00" arrivalLane="32038051#0_0" arrivalPos="89.25" arrivalSpeed="18.84" duration="60.00" routeLength="203.79" waitingTime="36.00" waitingCount="1" stopTime="0.00" timeLoss="48.81" rerouteNo="0" devices="tripinfo_133955_411_0 routing_133955_411_0" vType="pkw" speedFactor="0.98" vaporized=""/>
    <tripinfo id="129253_408_0" depart="25276.00" departLane="23429231#1_0" departPos="4.40" departSpeed="0.00" departDelay="16.00" arrival="25333.00" arrivalLane="32038051#0_1" arrivalPos="89.25" arrivalSpeed="18.12" duration="57.00" routeLength="203.79" waitingTime="32.00" waitingCount="1" stopTime="0.00" timeLoss="46.12" rerouteNo="0" devices="tripinfo_129253_408_0 routing_129253_408_0" vType="pkw" speedFactor="0.97" vaporized=""/>
    <tripinfo id="120275_405_0" depart="25279.00" departLane="23429231#1_0" departPos="4.40" departSpeed="0.00" departDelay="18.00" arrival="25335.00" arrivalLane="32038051#0_0" arrivalPos="89.25" arrivalSpeed="17.98" duration="56.00" routeLength="203.79" waitingTime="31.00" waitingCount="1" stopTime="0.00" timeLoss="44.14" rerouteNo="0" devices="tripinfo_120275_405_0 routing_120275_405_0" vType="pkw" speedFactor="0.96" vaporized=""/>
    <tripinfo id="86189_391_0" depart="25286.00" departLane="23429231#1_0" departPos="4.40" departSpeed="0.00" departDelay="21.00" arrival="25336.00" arrivalLane="32038051#0_1" arrivalPos="89.25" arrivalSpeed="19.71" duration="50.00" routeLength="203.79" waitingTime="25.00" waitingCount="1" stopTime="0.00" timeLoss="39.66" rerouteNo="0" devices="tripinfo_86189_391_0 routing_86189_391_0" vType="pkw" speedFactor="1.06" vaporized=""/>
    <tripinfo id="134807_411_0" depart="25282.00" departLane="23429231#1_0" departPos="4.40" departSpeed="0.00" departDelay="20.00" arrival="25337.00" arrivalLane="32324544#0_1" arrivalPos="90.48" arrivalSpeed="15.45" duration="55.00" routeLength="203.50" waitingTime="27.00" waitingCount="1" stopTime="0.00" timeLoss="41.62" rerouteNo="0" devices="tripinfo_134807_411_0 routing_134807_411_0" vType="pkw" speedFactor="0.82" vaporized=""/>
    <tripinfo id="135201_411_0" depart="25284.00" departLane="23429231#1_0" departPos="4.40" departSpeed="0.00" departDelay="20.00" arrival="25338.00" arrivalLane="32038051#0_0" arrivalPos="89.25" arrivalSpeed="13.35" duration="54.00" routeLength="203.79" waitingTime="28.00" waitingCount="1" stopTime="0.00" timeLoss="38.70" rerouteNo="0" devices="tripinfo_135201_411_0 routing_135201_411_0" vType="pkw" speedFactor="0.73" vaporized=""/>
    <tripinfo id="85818_390_0" depart="25281.00" departLane="-32038056#3_0" departPos="4.40" departSpeed="0.00" departDelay="1.00" arrival="25342.00" arrivalLane="32038051#0_0" arrivalPos="89.25" arrivalSpeed="18.26" duration="61.00" routeLength="446.95" waitingTime="18.00" waitingCount="1" stopTime="0.00" timeLoss="29.30" rerouteNo="0" devices="tripinfo_85818_390_0 routing_85818_390_0" vType="pkw" speedFactor="0.97" vaporized=""/>
    <tripinfo id="83516_390_0" depart="25275.00" departLane="-32038056#3_0" departPos="4.40" departSpeed="0.00" departDelay="0.00" arrival="25343.00" arrivalLane="32324544#0_1" arrivalPos="90.48" arrivalSpeed="17.17" duration="68.00" routeLength="465.51" waitingTime="19.00" waitingCount="2" stopTime="0.00" timeLoss="33.43" rerouteNo="0" devices="tripinfo_83516_390_0 routing_83516_390_0" vType="pkw" speedFactor="0.91" vaporized=""/>
    <tripinfo id="86583_391_0" depart="25289.00" departLane="-32038056#3_0" departPos="4.40" departSpeed="0.00" departDelay="0.00" arrival="25344.00" arrivalLane="32038051#0_0" arrivalPos="89.25" arrivalSpeed="18.43" duration="55.00" routeLength="446.95" waitingTime="12.00" waitingCount="1" stopTime="0.00" timeLoss="23.89" rerouteNo="0" devices="tripinfo_86583_391_0 routing_86583_391_0" vType="pkw" speedFactor="0.99" vaporized=""/>
    <tripinfo id="120878_405_0" depart="25291.00" departLane="-32038056#3_0" departPos="4.40" departSpeed="0.00" departDelay="0.00" arrival="25345.00" arrivalLane="32038051#0_0" arrivalPos="89.25" arrivalSpeed="19.41" duration="54.00" routeLength="446.95" waitingTime="11.00" waitingCount="1" stopTime="0.00" timeLoss="29.44" rerouteNo="0" devices="tripinfo_120878_405_0 routing_120878_405_0" vType="pkw" speedFactor="1.23" vaporized=""/>
    <tripinfo id="113303_402_0" depart="25284.00" departLane="-32038056#3_0" departPos="4.40" departSpeed="0.00" departDelay="1.00" arrival="25346.00" arrivalLane="32324544#0_1" arrivalPos="90.48" arrivalSpeed="20.44" duration="62.00" routeLength="465.51" waitingTime="17.00" waitingCount="1" stopTime="0.00" timeLoss="32.18" rerouteNo="0" devices="tripinfo_113303_402_0 routing_113303_402_0" vType="pkw" speedFactor="1.07" vaporized=""/>
    <tripinfo id="137244_412_0" depart="25297.00" departLane="-32038056#3_0" departPos="4.40" departSpeed="0.00" departDelay="3.00" arrival="25346.00" arrivalLane="-28198821#4_1" arrivalPos="57.10" arrivalSpeed="14.43" duration="49.00" routeLength="437.47" waitingTime="7.00" waitingCount="1" stopTime="0.00" timeLoss="19.72" rerouteNo="0" devices="tripinfo_137244_412_0 routing_137244_412_0" vType="pkw" speedFactor="1.08" vaporized=""/>
    <tripinfo id="103540_397_0" depart="25300.00" departLane="28198821#3_0" departPos="4.40" departSpeed="0.00" departDelay="0.00" arrival="25353.00" arrivalLane="32038051#0_1" arrivalPos="89.25" arrivalSpeed="20.83" duration="53.00" routeLength="170.57" waitingTime="26.00" waitingCount="3" stopTime="0.00" timeLoss="43.65" rerouteNo="0" devices="tripinfo_103540_397_0 routing_103540_397_0" vType="pkw" speedFactor="1.15" vaporized=""/>
    <tripinfo id="162096_421_0" depart="25306.00" departLane="130165204_0" departPos="4.40" departSpeed="0.00" departDelay="0.00" arrival="25358.00" arrivalLane="32038051#0_1" arrivalPos="89.25" arrivalSpeed="17.18" duration="52.00" routeLength="410.03" waitingTime="10.00" waitingCount="1" stopTime="0.00" timeLoss="23.89" rerouteNo="1" devices="tripinfo_162096_421_0 routing_162096_421_0" vType="pkw" speedFactor="0.94" vaporized=""/>
    <tripinfo id="142412_415_0" depart="25307.00" departLane="-32038056#3_0" departPos="4.40" departSpeed="0.00" departDelay="0.00" arrival="25362.00" arrivalLane="-28198821#4_0" arrivalPos="57.10" arrivalSpeed="13.04" duration="55.00" routeLength="437.47" waitingTime="10.00" waitingCount="1" stopTime="0.00" timeLoss="23.99" rerouteNo="0" devices="tripinfo_142412_415_0 routing_142412_415_0" vType="pkw" speedFactor="1.03" vaporized=""/>
    <tripinfo id="85922_391_0" depart="25294.00" departLane="-32038056#3_0" departPos="4.40" departSpeed="0.00" departDelay="1.00" arrival="25363.00" arrivalLane="32038051#0_0" arrivalPos="89.25" arrivalSpeed="17.61" duration="69.00" routeLength="446.95" waitingTime="19.00" waitingCount="2" stopTime="0.00" timeLoss="36.65" rerouteNo="0" devices="tripinfo_85922_391_0 routing_85922_391_0" vType="pkw" speedFactor="0.95" vaporized=""/>
    <tripinfo id="118963_405_0" depart="25304.00" departLane="-32038056#3_0" departPos="4.40" departSpeed="0.00" departDelay="0.00" arrival="25364.00" arrivalLane="32038051#0_0" arrivalPos="89.25" arrivalSpeed="19.01" duration="60.00" routeLength="446.95" waitingTime="13.00" waitingCount="2" stopTime="0.00" timeLoss="31.81" rerouteNo="0" devices="tripinfo_118963_405_0 routing_118963_405_0" vType="pkw" speedFactor="1.07" vaporized=""/>
    <tripinfo id="138220_412_0" depart="25309.00" departLane="-32038056#3_0" departPos="4.40" departSpeed="0.00" departDelay="0.00" arrival="25364.00" arrivalLane="-28198821#4_1" arrivalPos="57.10" arrivalSpeed="14.52" duration="55.00" routeLength="437.47" waitingTime="9.00" waitingCount="1" stopTime="0.00" timeLoss="24.58" rerouteNo="0" devices="tripinfo_138220_412_0 routing_138220_412_0" vType="pkw" speedFactor="1.06" vaporized=""/>
    <tripinfo id="136152_411_0" depart="25313.00" departLane="-32038056#3_0" departPos="4.40" departSpeed="0.00" departDelay="0.00" arrival="25366.00" arrivalLane="32038051#0_0" arrivalPos="89.25" arrivalSpeed="18.88" duration="53.00" routeLength="446.95" waitingTime="8.00" waitingCount="1" stopTime="0.00" timeLoss="21.78" rerouteNo="0" devices="tripinfo_136152_411_0 routing_136152_411_0" vType="pkw" speedFactor="0.98" vaporized=""/>
    <tripinfo id="130372_409_0" depart="25329.00" departLane="-32038056#3_0" departPos="4.40" departSpeed="0.00" departDelay="2.00" arrival="25367.00" arrivalLane="32324544#0_1" arrivalPos="90.48" arrivalSpeed="20.62" duration="38.00" routeLength="465.51" waitingTime="0.00" waitingCount="0" stopTime="0.00" timeLoss="10.04" rerouteNo="0" devices="tripinfo_130372_409_0 routing_130372_409_0" vType="pkw" speedFactor="1.12" vaporized=""/>
    <tripinfo id="57065_374_0" depart="25289.00" departLane="23429231#1_0" departPos="4.40" departSpeed="0.00" departDelay="23.00" arrival="25373.00" arrivalLane="32038051#0_0" arrivalPos="89.25" arrivalSpeed="16.90" duration="84.00" routeLength="203.79" waitingTime="53.00" waitingCount="2" stopTime="0.00" timeLoss="71.68" rerouteNo="0" devices="tripinfo_57065_374_0 routing_57065_374_0" vType="pkw" speedFactor="0.87" vaporized=""/>
    <tripinfo id="129519_408_0" depart="25292.00" departLane="23429231#1_0" departPos="4.40" departSpeed="0.00" departDelay="25.00" arrival="25373.00" arrivalLane="32038051#0_1" arrivalPos="89.25" arrivalSpeed="17.43" duration="81.00" routeLength="203.79" waitingTime="48.00" waitingCount="2" stopTime="0.00" timeLoss="68.86" rerouteNo="0" devices="tripinfo_129519_408_0 routing_129519_408_0" vType="pkw" speedFactor="0.94" vaporized=""/>
    <tripinfo id="136204_411_0" depart="25297.00" departLane="23429231#1_0" departPos="4.40" departSpeed="0.00" departDelay="28.00" arrival="25374.00" arrivalLane="32038051#0_1" arrivalPos="89.25" arrivalSpeed="19.37" duration="77.00" routeLength="203.79" waitingTime="44.00" waitingCount="2" stopTime="0.00" timeLoss="66.64" rerouteNo="0" devices="tripinfo_136204_411_0 routing_136204_411_0" vType="pkw" speedFactor="1.03" vaporized=""/>
    <tripinfo id="82015_389_0" depart="25294.00" departLane="23429231#1_0" departPos="4.40" departSpeed="0.00" departDelay="26.00" arrival="25375.00" arrivalLane="32038051#0_0" arrivalPos="89.25" arrivalSpeed="16.57" duration="81.00" routeLength="203.79" waitingTime="49.00" waitingCount="2" stopTime="0.00" timeLoss="68.72" rerouteNo="0" devices="tripinfo_82015_389_0 routing_82015_389_0" vType="pkw" speedFactor="0.90" vaporized=""/>
    <tripinfo id="146814_416_0" depart="25302.00" departLane="23429231#1_0" departPos="4.40" departSpeed="0.00" departDelay="31.00" arrival="25376.00" arrivalLane="32038051#0_1" arrivalPos="89.25" arrivalSpeed="15.27" duration="74.00" routeLength="203.79" waitingTime="41.00" waitingCount="2" stopTime="0.00" timeLoss="61.26" rerouteNo="0" devices="tripinfo_146814_416_0 routing_146814_416_0" vType="pkw" speedFactor="0.84" vaporized=""/>
    <tripinfo id="135431_411_0" depart="25300.00" departLane="23429231#1_0" departPos="4.40" departSpeed="0.00" departDelay="31.00" arrival="25377.00" arrivalLane="32038051#0_0" arrivalPos="89.25" arrivalSpeed="14.84" duration="77.00" routeLength="203.79" waitingTime="43.00" waitingCount="2" stopTime="0.00" timeLoss="63.18" rerouteNo="0" devices="tripinfo_135431_411_0 routing_135431_411_0" vType="pkw" speedFactor="0.80" vaporized=""/>
    <tripinfo id="118286_405_0" depart="25308.00" departLane="23429231#1_0" departPos="4.40" departSpeed="0.00" departDelay="35.00" arrival="25378.00" arrivalLane="32038051#0_1" arrivalPos="89.25" arrivalSpeed="19.51" duration="70.00" routeLength="203.79" waitingTime="36.00" waitingCount="2" stopTime="0.00" timeLoss="59.68" rerouteNo="0" devices="tripinfo_118286_405_0 routing_118286_405_0" vType="pkw" speedFactor="1.10" vaporized=""/>
    <tripinfo id="175147_428_0" depart="25324.00" departLane="130165204_0" departPos="4.40" departSpeed="0.00" departDelay="0.00" arrival="25383.00" arrivalLane="32038051#0_1" arrivalPos="89.25" arrivalSpeed="19.48" duration="59.00" routeLength="410.03" waitingTime="13.00" waitingCount="2" stopTime="0.00" timeLoss="35.22" rerouteNo="1" devices="tripinfo_175147_428_0 routing_175147_428_0" vType="pkw" speedFactor="1.14" vaporized=""/>
    <tripinfo id="104806_398_0" depart="25332.00" departLane="-32038056#3_0" departPos="4.40" departSpeed="0.00" departDelay="3.00" arrival="25383.00" arrivalLane="32324544#0_1" arrivalPos="90.48" arrivalSpeed="17.75" duration="51.00" routeLength="465.51" waitingTime="2.00" waitingCount="1" stopTime="0.00" timeLoss="18.88" rerouteNo="0" devices="tripinfo_104806_398_0 routing_104806_398_0" vType="pkw" speedFactor="0.97" vaporized=""/>
    <tripinfo id="161721_421_0" depart="25337.00" departLane="130165204_0" departPos="4.40" departSpeed="0.00" departDelay="0.00" arrival="25384.00" arrivalLane="32038051#0_1" arrivalPos="89.25" arrivalSpeed="18.44" duration="47.00" routeLength="410.03" waitingTime="2.00" waitingCount="1" stopTime="0.00" timeLoss="20.29" rerouteNo="1" devices="tripinfo_161721_421_0 routing_161721_421_0" vType="pkw" speedFactor="1.00" vaporized=""/>
    <tripinfo id="108236_400_0" depart="25312.00" departLane="23429231#1_0" departPos="4.40" departSpeed="0.00" departDelay="38.00" arrival="25392.00" arrivalLane="32038051#0_1" arrivalPos="89.25" arrivalSpeed="17.72" duration="80.00" routeLength="203.79" waitingTime="40.00" waitingCount="3" stopTime="0.00" timeLoss="68.92" rerouteNo="0" devices="tripinfo_108236_400_0 routing_108236_400_0" vType="pkw" speedFactor="0.95" vaporized=""/>
    <tripinfo id="125316_406_0" depart="25305.00" departLane="23429231#1_0" departPos="4.40" departSpeed="0.00" departDelay="34.00" arrival="25393.00" arrivalLane="32038051#0_0" arrivalPos="89.25" arrivalSpeed="18.81" duration="88.00" routeLength="203.79" waitingTime="51.00" waitingCount="3" stopTime="0.00" timeLoss="76.55" rerouteNo="0" devices="tripinfo_125316_406_0 routing_125316_406_0" vType="pkw" speedFactor="0.98" vaporized=""/>
    <tripinfo id="134435_411_0" depart="25310.00" departLane="23429231#1_0" departPos="4.40" departSpeed="0.00" departDelay="37.00" arrival="25394.00" arrivalLane="32038051#0_0" arrivalPos="89.25" arrivalSpeed="19.22" duration="84.00" routeLength="203.79" waitingTime="45.00" waitingCount="3" stopTime="0.00" timeLoss="73.63" rerouteNo="0" devices="tripinfo_134435_411_0 routing_134435_411_0" vType="pkw" speedFactor="1.04" vaporized=""/>
    <tripinfo id="110905_401_0" depart="25316.00" departLane="23429231#1_0" departPos="4.40" departSpeed="0.00" departDelay="40.00" arrival="25395.00" arrivalLane="32038051#0_1" arrivalPos="89.25" arrivalSpeed="19.97" duration="79.00" routeLength="203.79" waitingTime="38.00" waitingCount="4" stopTime="0.00" timeLoss="68.64" rerouteNo="0" devices="tripinfo_110905_401_0 routing_110905_401_0" vType="pkw" speedFactor="1.06" vaporized=""/>
    <tripinfo id="146536_416_0" depart="25314.00" departLane="23429231#1_0" departPos="4.40" departSpeed="0.00" departDelay="39.00" arrival="25396.00" arrivalLane="32038051#0_0" arrivalPos="89.25" arrivalSpeed="20.78" duration="82.00" routeLength="203.79" waitingTime="42.00" waitingCount="4" stopTime="0.00" timeLoss="72.67" rerouteNo="0" devices="tripinfo_146536_416_0 routing_146536_416_0" vType="pkw" speedFactor="1.22" vaporized=""/>
    <tripinfo id="94647_393_0" depart="25332.00" departLane="23429231#1_0" departPos="4.40" departSpeed="0.00" departDelay="54.00" arrival="25397.00" arrivalLane="32038051#0_1" arrivalPos="89.25" arrivalSpeed="19.11" duration="65.00" routeLength="203.79" waitingTime="32.00" waitingCount="2" stopTime="0.00" timeLoss="53.88" rerouteNo="0" devices="tripinfo_94647_393_0 routing_94647_393_0" vType="pkw" speedFactor="1.02" vaporized=""/>
    <tripinfo id="167799_425_0" depart="25327.00" departLane="-32038056#3_0" departPos="4.40" departSpeed="0.00" departDelay="0.00" arrival="25409.00" arrivalLane="-28198821#4_0" arrivalPos="57.10" arrivalSpeed="12.21" duration="82.00" routeLength="437.47" waitingTime="37.00" waitingCount="1" stopTime="0.00" timeLoss="48.28" rerouteNo="0" devices="tripinfo_167799_425_0 routing_167799_425_0" vType="pkw" speedFactor="0.96" vaporized=""/>
    <tripinfo id="122154_406_0" depart="25337.00" departLane="-32038056#3_0" departPos="4.40" departSpeed="0.00" departDelay="0.00" arrival="25410.00" arrivalLane="-28198821#4_1" arrivalPos="57.10" arrivalSpeed="10.80" duration="73.00" routeLength="437.47" waitingTime="22.00" waitingCount="2" stopTime="0.00" timeLoss="35.41" rerouteNo="0" devices="tripinfo_122154_406_0 routing_122154_406_0" vType="pkw" speedFactor="0.86" vaporized=""/>