<?xml version="1.0" encoding="UTF-8"?>

<!-- generated on 2023-08-30 13:09:34 by Eclipse SUMO libsumo Version 1.18.0
<configuration xmlns:xsi="http://www.w3.org/2001/XMLSchema-instance" xsi:noNamespaceSchemaLocation="http://sumo.dlr.de/xsd/libsumoConfiguration.xsd">

    <input>
        <net-file value="/home/stefan/RESCO/./environments/grid4x4/grid4x4.net.xml"/>
        <route-files value="/home/stefan/RESCO/./environments/grid4x4/grid4x4_24.rou.xml"/>
    </input>

    <output>
        <tripinfo-output value="/home/stefan/results/RAINBOW-tr0-grid4x4-0-drq_norm-wait_norm/tripinfo_24.xml"/>
        <tripinfo-output.write-unfinished value="true"/>
    </output>

    <processing>
        <time-to-teleport value="-1"/>
    </processing>

    <report>
        <no-warnings value="True"/>
        <no-step-log value="True"/>
    </report>

    <random_number>
        <random value="true"/>
    </random_number>

</configuration>
-->

<tripinfos xmlns:xsi="http://www.w3.org/2001/XMLSchema-instance" xsi:noNamespaceSchemaLocation="http://sumo.dlr.de/xsd/tripinfo_file.xsd">
    <tripinfo id="3" depart="17.00" departLane="left0A0_0" departPos="5.10" departSpeed="0.00" departDelay="0.00" arrival="90.00" arrivalLane="B0bottom1_0" arrivalPos="286.40" arrivalSpeed="14.18" duration="73.00" routeLength="876.90" waitingTime="0.00" waitingCount="0" stopTime="0.00" timeLoss="11.43" rerouteNo="0" devices="tripinfo_3" vType="DEFAULT_VEHTYPE" speedFactor="1.04" vaporized=""/>
    <tripinfo id="12" depart="58.00" departLane="bottom3D0_0" departPos="5.10" departSpeed="0.00" departDelay="0.00" arrival="107.00" arrivalLane="D0right0_0" arrivalPos="286.40" arrivalSpeed="13.62" duration="49.00" routeLength="576.73" waitingTime="0.00" waitingCount="0" stopTime="0.00" timeLoss="6.86" rerouteNo="0" devices="tripinfo_12" vType="DEFAULT_VEHTYPE" speedFactor="1.02" vaporized=""/>
    <tripinfo id="6" depart="27.00" departLane="top1B3_0" departPos="5.10" departSpeed="0.00" departDelay="0.00" arrival="116.00" arrivalLane="C3top2_0" arrivalPos="286.40" arrivalSpeed="10.12" duration="89.00" routeLength="894.86" waitingTime="0.00" waitingCount="0" stopTime="0.00" timeLoss="8.84" rerouteNo="0" devices="tripinfo_6" vType="DEFAULT_VEHTYPE" speedFactor="0.82" vaporized=""/>
    <tripinfo id="10" depart="50.00" departLane="right1D1_0" departPos="5.10" departSpeed="0.00" departDelay="0.00" arrival="143.00" arrivalLane="D2right2_0" arrivalPos="286.40" arrivalSpeed="11.10" duration="93.00" routeLength="858.56" waitingTime="2.00" waitingCount="2" stopTime="0.00" timeLoss="20.96" rerouteNo="0" devices="tripinfo_10" vType="DEFAULT_VEHTYPE" speedFactor="0.88" vaporized=""/>
    <tripinfo id="7" depart="30.00" departLane="left3A3_0" departPos="5.10" departSpeed="0.00" departDelay="0.00" arrival="155.00" arrivalLane="C3top2_0" arrivalPos="286.40" arrivalSpeed="12.10" duration="125.00" routeLength="1197.89" waitingTime="20.00" waitingCount="1" stopTime="0.00" timeLoss="33.32" rerouteNo="0" devices="tripinfo_7" vType="DEFAULT_VEHTYPE" speedFactor="0.95" vaporized=""/>
    <tripinfo id="4" depart="24.00" departLane="right2D2_0" departPos="5.10" departSpeed="0.00" departDelay="0.00" arrival="176.00" arrivalLane="D3top3_0" arrivalPos="286.40" arrivalSpeed="15.37" duration="152.00" routeLength="879.60" waitingTime="81.00" waitingCount="2" stopTime="0.00" timeLoss="98.31" rerouteNo="0" devices="tripinfo_4" vType="DEFAULT_VEHTYPE" speedFactor="1.19" vaporized=""/>
    <tripinfo id="19" depart="88.00" departLane="bottom2C0_0" departPos="5.10" departSpeed="0.00" departDelay="0.00" arrival="195.00" arrivalLane="C3top2_0" arrivalPos="286.40" arrivalSpeed="14.25" duration="107.00" routeLength="1495.58" waitingTime="0.00" waitingCount="0" stopTime="0.00" timeLoss="9.23" rerouteNo="0" devices="tripinfo_19" vType="DEFAULT_VEHTYPE" speedFactor="1.11" vaporized=""/>
    <tripinfo id="28" depart="142.00" departLane="bottom3D0_0" departPos="5.10" departSpeed="0.00" departDelay="0.00" arrival="195.00" arrivalLane="D0right0_0" arrivalPos="286.40" arrivalSpeed="13.66" duration="53.00" routeLength="576.73" waitingTime="1.00" waitingCount="1" stopTime="0.00" timeLoss="10.42" rerouteNo="0" devices="tripinfo_28" vType="DEFAULT_VEHTYPE" speedFactor="1.01" vaporized=""/>
    <tripinfo id="32" depart="156.00" departLane="bottom3D0_0" departPos="5.10" departSpeed="0.00" departDelay="0.00" arrival="202.00" arrivalLane="D0right0_0" arrivalPos="286.40" arrivalSpeed="14.73" duration="46.00" routeLength="576.73" waitingTime="0.00" waitingCount="0" stopTime="0.00" timeLoss="6.68" rerouteNo="0" devices="tripinfo_32" vType="DEFAULT_VEHTYPE" speedFactor="1.09" vaporized=""/>
    <tripinfo id="1" depart="7.00" departLane="bottom0A0_0" departPos="5.10" departSpeed="0.00" departDelay="0.00" arrival="211.00" arrivalLane="A0bottom0_0" arrivalPos="286.40" arrivalSpeed="12.09" duration="204.00" routeLength="1748.75" waitingTime="28.00" waitingCount="3" stopTime="0.00" timeLoss="57.07" rerouteNo="0" devices="tripinfo_1" vType="DEFAULT_VEHTYPE" speedFactor="0.87" vaporized=""/>
    <tripinfo id="39" depart="180.00" departLane="top0A3_0" departPos="5.10" departSpeed="0.00" departDelay="0.00" arrival="234.00" arrivalLane="A3left3_0" arrivalPos="286.40" arrivalSpeed="12.94" duration="54.00" routeLength="576.73" waitingTime="1.00" waitingCount="1" stopTime="0.00" timeLoss="9.58" rerouteNo="0" devices="tripinfo_39" vType="DEFAULT_VEHTYPE" speedFactor="0.96" vaporized=""/>
    <tripinfo id="14" depart="65.00" departLane="right1D1_0" departPos="5.10" departSpeed="0.00" departDelay="0.00" arrival="248.00" arrivalLane="B3top1_0" arrivalPos="286.40" arrivalSpeed="14.26" duration="183.00" routeLength="1780.11" waitingTime="32.00" waitingCount="3" stopTime="0.00" timeLoss="62.02" rerouteNo="0" devices="tripinfo_14" vType="DEFAULT_VEHTYPE" speedFactor="1.06" vaporized=""/>
    <tripinfo id="25" depart="127.00" departLane="left0A0_0" departPos="5.10" departSpeed="0.00" departDelay="0.00" arrival="253.00" arrivalLane="C0bottom2_0" arrivalPos="286.40" arrivalSpeed="15.26" duration="126.00" routeLength="1177.07" waitingTime="24.00" waitingCount="3" stopTime="0.00" timeLoss="48.97" rerouteNo="0" devices="tripinfo_25" vType="DEFAULT_VEHTYPE" speedFactor="1.11" vaporized=""/>
    <tripinfo id="35" depart="163.00" departLane="top2C3_0" departPos="5.10" departSpeed="0.00" departDelay="0.00" arrival="258.00" arrivalLane="B3top1_0" arrivalPos="286.40" arrivalSpeed="11.40" duration="95.00" routeLength="858.56" waitingTime="5.00" waitingCount="2" stopTime="0.00" timeLoss="19.65" rerouteNo="0" devices="tripinfo_35" vType="DEFAULT_VEHTYPE" speedFactor="0.84" vaporized=""/>
    <tripinfo id="33" depart="160.00" departLane="bottom2C0_0" departPos="5.10" departSpeed="0.00" departDelay="0.00" arrival="264.00" arrivalLane="A0bottom0_0" arrivalPos="286.40" arrivalSpeed="12.44" duration="104.00" routeLength="1197.66" waitingTime="0.00" waitingCount="0" stopTime="0.00" timeLoss="12.28" rerouteNo="0" devices="tripinfo_33" vType="DEFAULT_VEHTYPE" speedFactor="0.95" vaporized=""/>
    <tripinfo id="9" depart="48.00" departLane="bottom3D0_0" departPos="5.10" departSpeed="0.00" departDelay="0.00" arrival="271.00" arrivalLane="B0bottom1_0" arrivalPos="286.40" arrivalSpeed="12.40" duration="223.00" routeLength="1197.66" waitingTime="114.00" waitingCount="2" stopTime="0.00" timeLoss="130.78" rerouteNo="0" devices="tripinfo_9" vType="DEFAULT_VEHTYPE" speedFactor="0.95" vaporized=""/>
    <tripinfo id="24" depart="116.00" departLane="top1B3_0" departPos="5.10" departSpeed="0.00" departDelay="0.00" arrival="280.00" arrivalLane="D1right1_0" arrivalPos="286.40" arrivalSpeed="14.48" duration="164.00" routeLength="1795.52" waitingTime="19.00" waitingCount="1" stopTime="0.00" timeLoss="40.34" rerouteNo="0" devices="tripinfo_24" vType="DEFAULT_VEHTYPE" speedFactor="1.06" vaporized=""/>
    <tripinfo id="31" depart="154.00" departLane="left3A3_0" departPos="5.10" departSpeed="0.00" departDelay="0.00" arrival="300.00" arrivalLane="B3top1_0" arrivalPos="286.40" arrivalSpeed="12.68" duration="146.00" routeLength="897.72" waitingTime="64.00" waitingCount="2" stopTime="0.00" timeLoss="79.86" rerouteNo="0" devices="tripinfo_31" vType="DEFAULT_VEHTYPE" speedFactor="0.99" vaporized=""/>
    <tripinfo id="37" depart="164.00" departLane="bottom2C0_0" departPos="5.10" departSpeed="0.00" departDelay="0.00" arrival="309.00" arrivalLane="A0bottom0_0" arrivalPos="286.40" arrivalSpeed="13.02" duration="145.00" routeLength="1197.66" waitingTime="39.00" waitingCount="1" stopTime="0.00" timeLoss="57.58" rerouteNo="0" devices="tripinfo_37" vType="DEFAULT_VEHTYPE" speedFactor="1.00" vaporized=""/>
    <tripinfo id="2" depart="13.00" departLane="top2C3_0" departPos="5.10" departSpeed="0.00" departDelay="0.00" arrival="311.00" arrivalLane="A2left2_0" arrivalPos="286.40" arrivalSpeed="12.26" duration="298.00" routeLength="1479.94" waitingTime="152.00" waitingCount="4" stopTime="0.00" timeLoss="181.57" rerouteNo="0" devices="tripinfo_2" vType="DEFAULT_VEHTYPE" speedFactor="0.93" vaporized=""/>
    <tripinfo id="15" depart="68.00" departLane="top3D3_0" departPos="5.10" departSpeed="0.00" departDelay="0.00" arrival="317.00" arrivalLane="C0bottom2_0" arrivalPos="286.40" arrivalSpeed="14.61" duration="249.00" routeLength="1782.72" waitingTime="107.00" waitingCount="3" stopTime="0.00" timeLoss="132.71" rerouteNo="0" devices="tripinfo_15" vType="DEFAULT_VEHTYPE" speedFactor="1.12" vaporized=""/>
    <tripinfo id="8" depart="42.00" departLane="top2C3_0" departPos="5.10" departSpeed="0.00" departDelay="0.00" arrival="321.00" arrivalLane="D0bottom3_0" arrivalPos="286.40" arrivalSpeed="11.94" duration="279.00" routeLength="1782.59" waitingTime="106.00" waitingCount="4" stopTime="0.00" timeLoss="141.05" rerouteNo="0" devices="tripinfo_8" vType="DEFAULT_VEHTYPE" speedFactor="0.94" vaporized=""/>
    <tripinfo id="63" depart="267.00" departLane="left0A0_0" departPos="5.10" departSpeed="0.00" departDelay="0.00" arrival="321.00" arrivalLane="A0bottom0_0" arrivalPos="286.40" arrivalSpeed="13.31" duration="54.00" routeLength="576.73" waitingTime="1.00" waitingCount="1" stopTime="0.00" timeLoss="10.90" rerouteNo="0" devices="tripinfo_63" vType="DEFAULT_VEHTYPE" speedFactor="1.00" vaporized=""/>
    <tripinfo id="20" depart="90.00" departLane="right2D2_0" departPos="5.10" departSpeed="0.00" departDelay="0.00" arrival="322.00" arrivalLane="D0right0_0" arrivalPos="286.40" arrivalSpeed="11.70" duration="232.00" routeLength="1197.66" waitingTime="113.00" waitingCount="3" stopTime="0.00" timeLoss="135.66" rerouteNo="0" devices="tripinfo_20" vType="DEFAULT_VEHTYPE" speedFactor="0.91" vaporized=""/>
    <tripinfo id="27" depart="137.00" departLane="right2D2_0" departPos="5.10" departSpeed="0.00" departDelay="0.00" arrival="325.00" arrivalLane="D0right0_0" arrivalPos="286.40" arrivalSpeed="11.90" duration="188.00" routeLength="1197.66" waitingTime="65.00" waitingCount="3" stopTime="0.00" timeLoss="89.95" rerouteNo="0" devices="tripinfo_27" vType="DEFAULT_VEHTYPE" speedFactor="0.89" vaporized=""/>
    <tripinfo id="0" depart="2.00" departLane="bottom2C0_0" departPos="5.10" departSpeed="0.00" departDelay="0.00" arrival="329.00" arrivalLane="A1left1_0" arrivalPos="286.40" arrivalSpeed="13.77" duration="327.00" routeLength="1495.35" waitingTime="195.00" waitingCount="3" stopTime="0.00" timeLoss="219.85" rerouteNo="0" devices="tripinfo_0" vType="DEFAULT_VEHTYPE" speedFactor="1.01" vaporized=""/>
    <tripinfo id="41" depart="183.00" departLane="left2A2_0" departPos="5.10" departSpeed="0.00" departDelay="0.00" arrival="329.00" arrivalLane="B3top1_0" arrivalPos="286.40" arrivalSpeed="13.86" duration="146.00" routeLength="1195.18" waitingTime="38.00" waitingCount="3" stopTime="0.00" timeLoss="60.36" rerouteNo="0" devices="tripinfo_41" vType="DEFAULT_VEHTYPE" speedFactor="1.02" vaporized=""/>
    <tripinfo id="52" depart="212.00" departLane="left2A2_0" departPos="5.10" departSpeed="0.00" departDelay="0.00" arrival="332.00" arrivalLane="B3top1_0" arrivalPos="286.40" arrivalSpeed="12.98" duration="120.00" routeLength="1195.18" waitingTime="9.00" waitingCount="1" stopTime="0.00" timeLoss="30.87" rerouteNo="0" devices="tripinfo_52" vType="DEFAULT_VEHTYPE" speedFactor="0.97" vaporized=""/>
    <tripinfo id="43" depart="188.00" departLane="left1A1_0" departPos="5.10" departSpeed="0.00" departDelay="0.00" arrival="334.00" arrivalLane="B3top1_1" arrivalPos="286.40" arrivalSpeed="13.80" duration="146.00" routeLength="1495.35" waitingTime="15.00" waitingCount="2" stopTime="0.00" timeLoss="36.90" rerouteNo="0" devices="tripinfo_43" vType="DEFAULT_VEHTYPE" speedFactor="1.00" vaporized=""/>
    <tripinfo id="59" depart="246.00" departLane="bottom3D0_0" departPos="5.10" departSpeed="0.00" departDelay="0.00" arrival="338.00" arrivalLane="C0bottom2_0" arrivalPos="286.40" arrivalSpeed="12.20" duration="92.00" routeLength="894.86" waitingTime="8.00" waitingCount="1" stopTime="0.00" timeLoss="19.24" rerouteNo="0" devices="tripinfo_59" vType="DEFAULT_VEHTYPE" speedFactor="0.91" vaporized=""/>
    <tripinfo id="21" depart="91.00" departLane="bottom3D0_0" departPos="5.10" departSpeed="0.00" departDelay="0.00" arrival="347.00" arrivalLane="A3top0_0" arrivalPos="286.40" arrivalSpeed="15.47" duration="256.00" routeLength="2380.22" waitingTime="67.00" waitingCount="4" stopTime="0.00" timeLoss="102.29" rerouteNo="0" devices="tripinfo_21" vType="DEFAULT_VEHTYPE" speedFactor="1.13" vaporized=""/>
    <tripinfo id="49" depart="204.00" departLane="bottom2C0_0" departPos="5.10" departSpeed="0.00" departDelay="0.00" arrival="349.00" arrivalLane="D1right1_0" arrivalPos="286.40" arrivalSpeed="13.64" duration="145.00" routeLength="1179.77" waitingTime="42.00" waitingCount="2" stopTime="0.00" timeLoss="60.49" rerouteNo="0" devices="tripinfo_49" vType="DEFAULT_VEHTYPE" speedFactor="1.02" vaporized=""/>
    <tripinfo id="45" depart="193.00" departLane="right2D2_0" departPos="5.10" departSpeed="0.00" departDelay="0.00" arrival="350.00" arrivalLane="A3top0_0" arrivalPos="286.40" arrivalSpeed="14.49" duration="157.00" routeLength="1780.11" waitingTime="6.00" waitingCount="3" stopTime="0.00" timeLoss="33.35" rerouteNo="0" devices="tripinfo_45" vType="DEFAULT_VEHTYPE" speedFactor="1.04" vaporized=""/>
    <tripinfo id="51" depart="209.00" departLane="bottom2C0_0" departPos="5.10" departSpeed="0.00" departDelay="0.00" arrival="351.00" arrivalLane="D1right1_0" arrivalPos="286.40" arrivalSpeed="13.12" duration="142.00" routeLength="1179.77" waitingTime="38.00" waitingCount="2" stopTime="0.00" timeLoss="57.22" rerouteNo="0" devices="tripinfo_51" vType="DEFAULT_VEHTYPE" speedFactor="1.01" vaporized=""/>
    <tripinfo id="61" depart="257.00" departLane="bottom2C0_0" departPos="5.10" departSpeed="0.00" departDelay="0.00" arrival="359.00" arrivalLane="D0right0_1" arrivalPos="286.40" arrivalSpeed="14.81" duration="102.00" routeLength="879.60" waitingTime="27.00" waitingCount="2" stopTime="0.00" timeLoss="44.59" rerouteNo="0" devices="tripinfo_61" vType="DEFAULT_VEHTYPE" speedFactor="1.12" vaporized=""/>
    <tripinfo id="23" depart="101.00" departLane="top1B3_0" departPos="5.10" departSpeed="0.00" departDelay="0.00" arrival="360.00" arrivalLane="D0right0_0" arrivalPos="286.40" arrivalSpeed="12.53" duration="259.00" routeLength="2095.69" waitingTime="78.00" waitingCount="2" stopTime="0.00" timeLoss="99.14" rerouteNo="0" devices="tripinfo_23" vType="DEFAULT_VEHTYPE" speedFactor="0.95" vaporized=""/>
    <tripinfo id="53" depart="225.00" departLane="left2A2_0" departPos="5.10" departSpeed="0.00" departDelay="0.00" arrival="360.00" arrivalLane="D2right2_0" arrivalPos="286.40" arrivalSpeed="13.48" duration="135.00" routeLength="1495.58" waitingTime="13.00" waitingCount="1" stopTime="0.00" timeLoss="30.35" rerouteNo="0" devices="tripinfo_53" vType="DEFAULT_VEHTYPE" speedFactor="1.03" vaporized=""/>
    <tripinfo id="65" depart="278.00" departLane="bottom1B0_0" departPos="5.10" departSpeed="0.00" departDelay="0.00" arrival="360.00" arrivalLane="C0bottom2_0" arrivalPos="286.40" arrivalSpeed="13.02" duration="82.00" routeLength="858.56" waitingTime="2.00" waitingCount="2" stopTime="0.00" timeLoss="17.99" rerouteNo="0" devices="tripinfo_65" vType="DEFAULT_VEHTYPE" speedFactor="0.99" vaporized=""/>
    <tripinfo id="16" depart="75.00" departLane="left0A0_0" departPos="5.10" departSpeed="0.00" departDelay="0.00" arrival="372.00" arrivalLane="A1left1_0" arrivalPos="286.40" arrivalSpeed="12.45" duration="297.00" routeLength="894.86" waitingTime="212.00" waitingCount="1" stopTime="0.00" timeLoss="224.70" rerouteNo="0" devices="tripinfo_16" vType="DEFAULT_VEHTYPE" speedFactor="0.92" vaporized=""/>
    <tripinfo id="26" depart="132.00" departLane="top0A3_0" departPos="5.10" departSpeed="0.00" departDelay="0.00" arrival="380.00" arrivalLane="A2left2_0" arrivalPos="286.40" arrivalSpeed="11.86" duration="248.00" routeLength="876.90" waitingTime="162.00" waitingCount="2" stopTime="0.00" timeLoss="175.93" rerouteNo="0" devices="tripinfo_26" vType="DEFAULT_VEHTYPE" speedFactor="0.88" vaporized=""/>
    <tripinfo id="64" depart="271.00" departLane="bottom0A0_0" departPos="5.10" departSpeed="0.00" departDelay="0.00" arrival="381.00" arrivalLane="A1left1_0" arrivalPos="286.40" arrivalSpeed="13.93" duration="110.00" routeLength="897.72" waitingTime="35.00" waitingCount="1" stopTime="0.00" timeLoss="47.13" rerouteNo="0" devices="tripinfo_64" vType="DEFAULT_VEHTYPE" speedFactor="1.05" vaporized=""/>
    <tripinfo id="5" depart="25.00" departLane="right0D0_0" departPos="5.10" departSpeed="0.00" departDelay="0.00" arrival="417.00" arrivalLane="B3top1_0" arrivalPos="286.40" arrivalSpeed="14.76" duration="392.00" routeLength="2080.28" waitingTime="217.00" waitingCount="4" stopTime="0.00" timeLoss="252.56" rerouteNo="0" devices="tripinfo_5" vType="DEFAULT_VEHTYPE" speedFactor="1.08" vaporized=""/>
    <tripinfo id="72" depart="305.00" departLane="bottom3D0_0" departPos="5.10" departSpeed="0.00" departDelay="0.00" arrival="419.00" arrivalLane="D2right2_0" arrivalPos="286.40" arrivalSpeed="12.68" duration="114.00" routeLength="1177.07" waitingTime="8.00" waitingCount="2" stopTime="0.00" timeLoss="26.53" rerouteNo="0" devices="tripinfo_72" vType="DEFAULT_VEHTYPE" speedFactor="0.98" vaporized=""/>
    <tripinfo id="42" depart="185.00" departLane="top0A3_0" departPos="5.10" departSpeed="0.00" departDelay="0.00" arrival="433.00" arrivalLane="A3top0_0" arrivalPos="286.40" arrivalSpeed="10.63" duration="248.00" routeLength="1745.91" waitingTime="61.00" waitingCount="5" stopTime="0.00" timeLoss="95.98" rerouteNo="0" devices="tripinfo_42" vType="DEFAULT_VEHTYPE" speedFactor="0.84" vaporized=""/>
    <tripinfo id="58" depart="244.00" departLane="right3D3_0" departPos="5.10" departSpeed="0.00" departDelay="0.00" arrival="439.00" arrivalLane="D3right3_1" arrivalPos="286.40" arrivalSpeed="15.13" duration="195.00" routeLength="1745.91" waitingTime="45.00" waitingCount="4" stopTime="0.00" timeLoss="77.77" rerouteNo="0" devices="tripinfo_58" vType="DEFAULT_VEHTYPE" speedFactor="1.09" vaporized=""/>
    <tripinfo id="77" depart="327.00" departLane="bottom0A0_0" departPos="5.10" departSpeed="0.00" departDelay="0.00" arrival="440.00" arrivalLane="C0bottom2_0" arrivalPos="286.40" arrivalSpeed="15.67" duration="113.00" routeLength="1161.43" waitingTime="18.00" waitingCount="3" stopTime="0.00" timeLoss="40.85" rerouteNo="0" devices="tripinfo_77" vType="DEFAULT_VEHTYPE" speedFactor="1.18" vaporized=""/>
    <tripinfo id="44" depart="189.00" departLane="left3A3_0" departPos="5.10" departSpeed="0.00" departDelay="0.00" arrival="441.00" arrivalLane="D3right3_0" arrivalPos="286.40" arrivalSpeed="11.79" duration="252.00" routeLength="1495.58" waitingTime="105.00" waitingCount="4" stopTime="0.00" timeLoss="133.75" rerouteNo="0" devices="tripinfo_44" vType="DEFAULT_VEHTYPE" speedFactor="0.91" vaporized=""/>
    <tripinfo id="62" depart="259.00" departLane="left3A3_0" departPos="5.10" departSpeed="0.00" departDelay="0.00" arrival="442.00" arrivalLane="D3right3_1" arrivalPos="286.40" arrivalSpeed="13.10" duration="183.00" routeLength="1495.58" waitingTime="37.00" waitingCount="4" stopTime="0.00" timeLoss="78.72" rerouteNo="0" devices="tripinfo_62" vType="DEFAULT_VEHTYPE" speedFactor="1.03" vaporized=""/>
    <tripinfo id="54" depart="228.00" departLane="left3A3_0" departPos="5.10" departSpeed="0.00" departDelay="0.00" arrival="443.00" arrivalLane="D3top3_0" arrivalPos="286.40" arrivalSpeed="12.06" duration="215.00" routeLength="1498.06" waitingTime="59.00" waitingCount="4" stopTime="0.00" timeLoss="93.34" rerouteNo="0" devices="tripinfo_54" vType="DEFAULT_VEHTYPE" speedFactor="0.89" vaporized=""/>
    <tripinfo id="48" depart="199.00" departLane="left3A3_0" departPos="5.10" departSpeed="0.00" departDelay="0.00" arrival="451.00" arrivalLane="C0bottom2_1" arrivalPos="286.40" arrivalSpeed="13.29" duration="252.00" routeLength="2080.28" waitingTime="65.00" waitingCount="5" stopTime="0.00" timeLoss="104.23" rerouteNo="0" devices="tripinfo_48" vType="DEFAULT_VEHTYPE" speedFactor="1.02" vaporized=""/>
    <tripinfo id="34" depart="162.00" departLane="top1B3_0" departPos="5.10" departSpeed="0.00" departDelay="0.00" arrival="452.00" arrivalLane="C0bottom2_0" arrivalPos="286.40" arrivalSpeed="12.42" duration="290.00" routeLength="1782.59" waitingTime="124.00" waitingCount="3" stopTime="0.00" timeLoss="146.71" rerouteNo="0" devices="tripinfo_34" vType="DEFAULT_VEHTYPE" speedFactor="0.91" vaporized=""/>
    <tripinfo id="38" depart="179.00" departLane="bottom0A0_0" departPos="5.10" departSpeed="0.00" departDelay="0.00" arrival="459.00" arrivalLane="D3right3_0" arrivalPos="286.40" arrivalSpeed="13.63" duration="280.00" routeLength="2380.45" waitingTime="45.00" waitingCount="7" stopTime="0.00" timeLoss="105.53" rerouteNo="0" devices="tripinfo_38" vType="DEFAULT_VEHTYPE" speedFactor="0.99" vaporized=""/>
    <tripinfo id="60" depart="247.00" departLane="bottom0A0_0" departPos="5.10" departSpeed="0.00" departDelay="0.00" arrival="459.00" arrivalLane="D0bottom3_0" arrivalPos="286.40" arrivalSpeed="11.82" duration="212.00" routeLength="1461.60" waitingTime="74.00" waitingCount="3" stopTime="0.00" timeLoss="95.54" rerouteNo="0" devices="tripinfo_60" vType="DEFAULT_VEHTYPE" speedFactor="0.91" vaporized=""/>
    <tripinfo id="87" depart="370.00" departLane="bottom2C0_0" departPos="5.10" departSpeed="0.00" departDelay="0.00" arrival="460.00" arrivalLane="D1right1_0" arrivalPos="286.40" arrivalSpeed="14.38" duration="90.00" routeLength="1179.77" waitingTime="0.00" waitingCount="0" stopTime="0.00" timeLoss="8.08" rerouteNo="0" devices="tripinfo_87" vType="DEFAULT_VEHTYPE" speedFactor="1.04" vaporized=""/>
    <tripinfo id="98" depart="417.00" departLane="left3A3_0" departPos="5.10" departSpeed="0.00" departDelay="0.00" arrival="504.00" arrivalLane="A1left1_0" arrivalPos="286.40" arrivalSpeed="16.12" duration="87.00" routeLength="1161.43" waitingTime="1.00" waitingCount="1" stopTime="0.00" timeLoss="16.75" rerouteNo="0" devices="tripinfo_98" vType="DEFAULT_VEHTYPE" speedFactor="1.22" vaporized=""/>
    <tripinfo id="75" depart="316.00" departLane="bottom0A0_0" departPos="5.10" departSpeed="0.00" departDelay="0.00" arrival="510.00" arrivalLane="A0left0_0" arrivalPos="286.40" arrivalSpeed="13.06" duration="194.00" routeLength="597.55" waitingTime="138.00" waitingCount="1" stopTime="0.00" timeLoss="149.02" rerouteNo="0" devices="tripinfo_75" vType="DEFAULT_VEHTYPE" speedFactor="0.98" vaporized=""/>
    <tripinfo id="11" depart="58.00" departLane="bottom0A0_0" departPos="5.10" departSpeed="0.00" departDelay="0.00" arrival="519.00" arrivalLane="D2right2_0" arrivalPos="286.40" arrivalSpeed="13.91" duration="461.00" routeLength="2080.28" waitingTime="264.00" waitingCount="5" stopTime="0.00" timeLoss="312.14" rerouteNo="0" devices="tripinfo_11" vType="DEFAULT_VEHTYPE" speedFactor="1.01" vaporized=""/>
    <tripinfo id="70" depart="288.00" departLane="bottom2C0_0" departPos="5.10" departSpeed="0.00" departDelay="0.00" arrival="519.00" arrivalLane="D2right2_1" arrivalPos="286.40" arrivalSpeed="14.37" duration="231.00" routeLength="1479.94" waitingTime="99.00" waitingCount="4" stopTime="0.00" timeLoss="134.35" rerouteNo="0" devices="tripinfo_70" vType="DEFAULT_VEHTYPE" speedFactor="1.11" vaporized=""/>
    <tripinfo id="73" depart="307.00" departLane="right2D2_0" departPos="5.10" departSpeed="0.00" departDelay="0.00" arrival="522.00" arrivalLane="A3left3_0" arrivalPos="286.40" arrivalSpeed="11.48" duration="215.00" routeLength="1782.72" waitingTime="45.00" waitingCount="3" stopTime="0.00" timeLoss="71.87" rerouteNo="0" devices="tripinfo_73" vType="DEFAULT_VEHTYPE" speedFactor="0.90" vaporized=""/>
    <tripinfo id="29" depart="145.00" departLane="top0A3_0" departPos="5.10" departSpeed="0.00" departDelay="0.00" arrival="527.00" arrivalLane="B0bottom1_0" arrivalPos="286.40" arrivalSpeed="14.51" duration="382.00" routeLength="1782.59" waitingTime="227.00" waitingCount="5" stopTime="0.00" timeLoss="266.14" rerouteNo="0" devices="tripinfo_29" vType="DEFAULT_VEHTYPE" speedFactor="1.12" vaporized=""/>
    <tripinfo id="107" depart="455.00" departLane="top2C3_0" departPos="5.10" departSpeed="0.00" departDelay="0.00" arrival="531.00" arrivalLane="D3top3_0" arrivalPos="286.40" arrivalSpeed="14.11" duration="76.00" routeLength="894.86" waitingTime="1.00" waitingCount="1" stopTime="0.00" timeLoss="12.03" rerouteNo="0" devices="tripinfo_107" vType="DEFAULT_VEHTYPE" speedFactor="1.02" vaporized=""/>
    <tripinfo id="112" depart="471.00" departLane="right2D2_0" departPos="5.10" departSpeed="0.00" departDelay="0.00" arrival="540.00" arrivalLane="D3right3_0" arrivalPos="286.40" arrivalSpeed="16.00" duration="69.00" routeLength="858.56" waitingTime="1.00" waitingCount="1" stopTime="0.00" timeLoss="15.46" rerouteNo="0" devices="tripinfo_112" vType="DEFAULT_VEHTYPE" speedFactor="1.19" vaporized=""/>
    <tripinfo id="50" depart="207.00" departLane="left3A3_0" departPos="5.10" departSpeed="0.00" departDelay="0.00" arrival="542.00" arrivalLane="D0bottom3_0" arrivalPos="286.40" arrivalSpeed="11.38" duration="335.00" routeLength="2380.45" waitingTime="84.00" waitingCount="7" stopTime="0.00" timeLoss="140.93" rerouteNo="0" devices="tripinfo_50" vType="DEFAULT_VEHTYPE" speedFactor="0.89" vaporized=""/>
    <tripinfo id="102" depart="439.00" departLane="bottom2C0_0" departPos="5.10" departSpeed="0.00" departDelay="0.00" arrival="543.00" arrivalLane="B0bottom1_0" arrivalPos="286.40" arrivalSpeed="11.22" duration="104.00" routeLength="894.86" waitingTime="17.00" waitingCount="1" stopTime="0.00" timeLoss="28.32" rerouteNo="0" devices="tripinfo_102" vType="DEFAULT_VEHTYPE" speedFactor="0.87" vaporized=""/>
    <tripinfo id="17" depart="77.00" departLane="top0A3_0" departPos="5.10" departSpeed="0.00" departDelay="0.00" arrival="545.00" arrivalLane="D0bottom3_0" arrivalPos="286.40" arrivalSpeed="11.10" duration="468.00" routeLength="2380.22" waitingTime="224.00" waitingCount="5" stopTime="0.00" timeLoss="271.45" rerouteNo="0" devices="tripinfo_17" vType="DEFAULT_VEHTYPE" speedFactor="0.88" vaporized=""/>
    <tripinfo id="111" depart="469.00" departLane="left2A2_0" departPos="5.10" departSpeed="0.00" departDelay="0.00" arrival="547.00" arrivalLane="A1left1_0" arrivalPos="286.40" arrivalSpeed="12.61" duration="78.00" routeLength="858.56" waitingTime="1.00" waitingCount="1" stopTime="0.00" timeLoss="14.27" rerouteNo="0" devices="tripinfo_111" vType="DEFAULT_VEHTYPE" speedFactor="0.99" vaporized=""/>
    <tripinfo id="46" depart="194.00" departLane="top0A3_0" departPos="5.10" departSpeed="0.00" departDelay="0.00" arrival="549.00" arrivalLane="A0bottom0_0" arrivalPos="286.40" arrivalSpeed="13.36" duration="355.00" routeLength="1495.58" waitingTime="213.00" waitingCount="5" stopTime="0.00" timeLoss="249.62" rerouteNo="0" devices="tripinfo_46" vType="DEFAULT_VEHTYPE" speedFactor="1.02" vaporized=""/>
    <tripinfo id="116" depart="497.00" departLane="bottom3D0_0" departPos="5.10" departSpeed="0.00" departDelay="0.00" arrival="549.00" arrivalLane="D0right0_0" arrivalPos="286.40" arrivalSpeed="14.63" duration="52.00" routeLength="576.73" waitingTime="1.00" waitingCount="1" stopTime="0.00" timeLoss="11.58" rerouteNo="0" devices="tripinfo_116" vType="DEFAULT_VEHTYPE" speedFactor="1.06" vaporized=""/>
    <tripinfo id="18" depart="87.00" departLane="right2D2_0" departPos="5.10" departSpeed="0.00" departDelay="0.00" arrival="551.00" arrivalLane="A1left1_0" arrivalPos="286.40" arrivalSpeed="12.04" duration="464.00" routeLength="1782.59" waitingTime="298.00" waitingCount="2" stopTime="0.00" timeLoss="321.12" rerouteNo="0" devices="tripinfo_18" vType="DEFAULT_VEHTYPE" speedFactor="0.90" vaporized=""/>
    <tripinfo id="78" depart="330.00" departLane="top2C3_0" departPos="5.10" departSpeed="0.00" departDelay="0.00" arrival="556.00" arrivalLane="D0bottom3_0" arrivalPos="286.40" arrivalSpeed="11.76" duration="226.00" routeLength="1782.59" waitingTime="52.00" waitingCount="5" stopTime="0.00" timeLoss="86.16" rerouteNo="0" devices="tripinfo_78" vType="DEFAULT_VEHTYPE" speedFactor="0.93" vaporized=""/>
    <tripinfo id="67" depart="281.00" departLane="top1B3_0" departPos="5.10" departSpeed="0.00" departDelay="0.00" arrival="558.00" arrivalLane="B0bottom1_0" arrivalPos="286.40" arrivalSpeed="14.14" duration="277.00" routeLength="1495.58" waitingTime="141.00" waitingCount="4" stopTime="0.00" timeLoss="175.72" rerouteNo="0" devices="tripinfo_67" vType="DEFAULT_VEHTYPE" speedFactor="1.07" vaporized=""/>