<?xml version="1.0" encoding="UTF-8"?>

<!-- generated on 2023-08-30 13:34:51 by Eclipse SUMO libsumo Version 1.18.0
<configuration xmlns:xsi="http://www.w3.org/2001/XMLSchema-instance" xsi:noNamespaceSchemaLocation="http://sumo.dlr.de/xsd/libsumoConfiguration.xsd">

    <input>
        <net-file value="/home/stefan/RESCO/./environments/grid4x4/grid4x4.net.xml"/>
        <route-files value="/home/stefan/RESCO/./environments/grid4x4/grid4x4_63.rou.xml"/>
    </input>

    <output>
        <tripinfo-output value="/home/stefan/results/RAINBOW-tr0-grid4x4-0-drq_norm-wait_norm/tripinfo_63.xml"/>
        <tripinfo-output.write-unfinished value="true"/>
    </output>

    <processing>
        <time-to-teleport value="-1"/>
    </processing>

    <report>
        <no-warnings value="True"/>
        <no-step-log value="True"/>
    </report>

    <random_number>
        <random value="true"/>
    </random_number>

</configuration>
-->

<tripinfos xmlns:xsi="http://www.w3.org/2001/XMLSchema-instance" xsi:noNamespaceSchemaLocation="http://sumo.dlr.de/xsd/tripinfo_file.xsd">
    <tripinfo id="12" depart="65.00" departLane="top0A3_0" departPos="5.10" departSpeed="0.00" departDelay="0.00" arrival="120.00" arrivalLane="A3left3_0" arrivalPos="286.40" arrivalSpeed="13.07" duration="55.00" routeLength="576.73" waitingTime="1.00" waitingCount="1" stopTime="0.00" timeLoss="11.79" rerouteNo="0" devices="tripinfo_12" vType="DEFAULT_VEHTYPE" speedFactor="0.98" vaporized=""/>
    <tripinfo id="18" depart="97.00" departLane="right3D3_0" departPos="5.10" departSpeed="0.00" departDelay="0.00" arrival="151.00" arrivalLane="D3top3_0" arrivalPos="286.40" arrivalSpeed="12.87" duration="54.00" routeLength="576.73" waitingTime="1.00" waitingCount="1" stopTime="0.00" timeLoss="9.74" rerouteNo="0" devices="tripinfo_18" vType="DEFAULT_VEHTYPE" speedFactor="0.96" vaporized=""/>
    <tripinfo id="15" depart="78.00" departLane="bottom1B0_0" departPos="5.10" departSpeed="0.00" departDelay="0.00" arrival="159.00" arrivalLane="C0bottom2_0" arrivalPos="286.40" arrivalSpeed="13.56" duration="81.00" routeLength="858.56" waitingTime="2.00" waitingCount="2" stopTime="0.00" timeLoss="21.44" rerouteNo="0" devices="tripinfo_15" vType="DEFAULT_VEHTYPE" speedFactor="1.06" vaporized=""/>
    <tripinfo id="20" depart="107.00" departLane="top2C3_0" departPos="5.10" departSpeed="0.00" departDelay="0.00" arrival="177.00" arrivalLane="D3top3_0" arrivalPos="286.40" arrivalSpeed="13.95" duration="70.00" routeLength="894.86" waitingTime="0.00" waitingCount="0" stopTime="0.00" timeLoss="7.01" rerouteNo="0" devices="tripinfo_20" vType="DEFAULT_VEHTYPE" speedFactor="1.05" vaporized=""/>
    <tripinfo id="5" depart="29.00" departLane="top1B3_0" departPos="5.10" departSpeed="0.00" departDelay="0.00" arrival="192.00" arrivalLane="C3top2_0" arrivalPos="286.40" arrivalSpeed="12.36" duration="163.00" routeLength="894.86" waitingTime="77.00" waitingCount="1" stopTime="0.00" timeLoss="90.52" rerouteNo="0" devices="tripinfo_5" vType="DEFAULT_VEHTYPE" speedFactor="0.91" vaporized=""/>
    <tripinfo id="36" depart="184.00" departLane="top0A3_0" departPos="5.10" departSpeed="0.00" departDelay="0.00" arrival="234.00" arrivalLane="A3left3_0" arrivalPos="286.40" arrivalSpeed="12.82" duration="50.00" routeLength="576.73" waitingTime="0.00" waitingCount="0" stopTime="0.00" timeLoss="7.81" rerouteNo="0" devices="tripinfo_36" vType="DEFAULT_VEHTYPE" speedFactor="1.01" vaporized=""/>
    <tripinfo id="23" depart="122.00" departLane="right3D3_0" departPos="5.10" departSpeed="0.00" departDelay="0.00" arrival="271.00" arrivalLane="D0right0_0" arrivalPos="286.40" arrivalSpeed="14.13" duration="149.00" routeLength="1497.83" waitingTime="28.00" waitingCount="1" stopTime="0.00" timeLoss="44.82" rerouteNo="0" devices="tripinfo_23" vType="DEFAULT_VEHTYPE" speedFactor="1.05" vaporized=""/>
    <tripinfo id="32" depart="166.00" departLane="bottom1B0_0" departPos="5.10" departSpeed="0.00" departDelay="0.00" arrival="272.00" arrivalLane="A0left0_0" arrivalPos="286.40" arrivalSpeed="13.65" duration="106.00" routeLength="895.01" waitingTime="31.00" waitingCount="1" stopTime="0.00" timeLoss="41.04" rerouteNo="0" devices="tripinfo_32" vType="DEFAULT_VEHTYPE" speedFactor="1.00" vaporized=""/>
    <tripinfo id="4" depart="27.00" departLane="bottom0A0_0" departPos="5.10" departSpeed="0.00" departDelay="0.00" arrival="277.00" arrivalLane="D0bottom3_0" arrivalPos="286.40" arrivalSpeed="13.18" duration="250.00" routeLength="1461.60" waitingTime="117.00" waitingCount="3" stopTime="0.00" timeLoss="140.49" rerouteNo="0" devices="tripinfo_4" vType="DEFAULT_VEHTYPE" speedFactor="0.97" vaporized=""/>
    <tripinfo id="6" depart="30.00" departLane="left0A0_0" departPos="5.10" departSpeed="0.00" departDelay="0.00" arrival="282.00" arrivalLane="D0bottom3_0" arrivalPos="286.40" arrivalSpeed="14.30" duration="252.00" routeLength="1477.24" waitingTime="119.00" waitingCount="3" stopTime="0.00" timeLoss="151.27" rerouteNo="0" devices="tripinfo_6" vType="DEFAULT_VEHTYPE" speedFactor="1.06" vaporized=""/>
    <tripinfo id="27" depart="138.00" departLane="bottom0A0_0" departPos="5.10" departSpeed="0.00" departDelay="0.00" arrival="291.00" arrivalLane="A0left0_0" arrivalPos="286.40" arrivalSpeed="13.11" duration="153.00" routeLength="597.55" waitingTime="97.00" waitingCount="1" stopTime="0.00" timeLoss="106.38" rerouteNo="0" devices="tripinfo_27" vType="DEFAULT_VEHTYPE" speedFactor="0.95" vaporized=""/>
    <tripinfo id="53" depart="242.00" departLane="bottom3D0_0" departPos="5.10" departSpeed="0.00" departDelay="0.00" arrival="295.00" arrivalLane="D0right0_0" arrivalPos="286.40" arrivalSpeed="14.15" duration="53.00" routeLength="576.73" waitingTime="1.00" waitingCount="1" stopTime="0.00" timeLoss="12.09" rerouteNo="0" devices="tripinfo_53" vType="DEFAULT_VEHTYPE" speedFactor="1.04" vaporized=""/>
    <tripinfo id="19" depart="104.00" departLane="left1A1_0" departPos="5.10" departSpeed="0.00" departDelay="0.00" arrival="310.00" arrivalLane="A3top0_0" arrivalPos="286.40" arrivalSpeed="14.03" duration="206.00" routeLength="1195.18" waitingTime="106.00" waitingCount="2" stopTime="0.00" timeLoss="123.34" rerouteNo="0" devices="tripinfo_19" vType="DEFAULT_VEHTYPE" speedFactor="1.06" vaporized=""/>
    <tripinfo id="22" depart="115.00" departLane="top3D3_0" departPos="5.10" departSpeed="0.00" departDelay="0.00" arrival="334.00" arrivalLane="B3top1_0" arrivalPos="286.40" arrivalSpeed="14.49" duration="219.00" routeLength="1161.43" waitingTime="116.00" waitingCount="3" stopTime="0.00" timeLoss="141.20" rerouteNo="0" devices="tripinfo_22" vType="DEFAULT_VEHTYPE" speedFactor="1.09" vaporized=""/>
    <tripinfo id="61" depart="254.00" departLane="top1B3_0" departPos="5.10" departSpeed="0.00" departDelay="0.00" arrival="335.00" arrivalLane="A3left3_0" arrivalPos="286.40" arrivalSpeed="11.32" duration="81.00" routeLength="879.60" waitingTime="0.00" waitingCount="0" stopTime="0.00" timeLoss="9.54" rerouteNo="0" devices="tripinfo_61" vType="DEFAULT_VEHTYPE" speedFactor="0.90" vaporized=""/>
    <tripinfo id="31" depart="158.00" departLane="top1B3_0" departPos="5.10" departSpeed="0.00" departDelay="0.00" arrival="337.00" arrivalLane="C3top2_0" arrivalPos="286.40" arrivalSpeed="14.80" duration="179.00" routeLength="894.86" waitingTime="108.00" waitingCount="1" stopTime="0.00" timeLoss="118.62" rerouteNo="0" devices="tripinfo_31" vType="DEFAULT_VEHTYPE" speedFactor="1.08" vaporized=""/>
    <tripinfo id="33" depart="173.00" departLane="right3D3_0" departPos="5.10" departSpeed="0.00" departDelay="0.00" arrival="339.00" arrivalLane="B3top1_0" arrivalPos="286.40" arrivalSpeed="13.68" duration="166.00" routeLength="1177.07" waitingTime="55.00" waitingCount="2" stopTime="0.00" timeLoss="79.26" rerouteNo="0" devices="tripinfo_33" vType="DEFAULT_VEHTYPE" speedFactor="0.99" vaporized=""/>
    <tripinfo id="65" depart="268.00" departLane="right1D1_0" departPos="5.10" departSpeed="0.00" departDelay="0.00" arrival="350.00" arrivalLane="D0right0_0" arrivalPos="286.40" arrivalSpeed="13.51" duration="82.00" routeLength="894.86" waitingTime="2.00" waitingCount="1" stopTime="0.00" timeLoss="14.90" rerouteNo="0" devices="tripinfo_65" vType="DEFAULT_VEHTYPE" speedFactor="0.98" vaporized=""/>
    <tripinfo id="64" depart="267.00" departLane="right0D0_0" departPos="5.10" departSpeed="0.00" departDelay="0.00" arrival="351.00" arrivalLane="D1right1_0" arrivalPos="286.40" arrivalSpeed="13.79" duration="84.00" routeLength="858.56" waitingTime="2.00" waitingCount="2" stopTime="0.00" timeLoss="21.49" rerouteNo="0" devices="tripinfo_64" vType="DEFAULT_VEHTYPE" speedFactor="1.02" vaporized=""/>
    <tripinfo id="11" depart="56.00" departLane="right1D1_0" departPos="5.10" departSpeed="0.00" departDelay="0.00" arrival="357.00" arrivalLane="C0bottom2_1" arrivalPos="286.40" arrivalSpeed="13.66" duration="301.00" routeLength="1195.18" waitingTime="196.00" waitingCount="2" stopTime="0.00" timeLoss="220.09" rerouteNo="0" devices="tripinfo_11" vType="DEFAULT_VEHTYPE" speedFactor="1.07" vaporized=""/>
    <tripinfo id="62" depart="256.00" departLane="right1D1_0" departPos="5.10" departSpeed="0.00" departDelay="0.00" arrival="359.00" arrivalLane="D0bottom3_0" arrivalPos="286.40" arrivalSpeed="13.49" duration="103.00" routeLength="895.01" waitingTime="27.00" waitingCount="1" stopTime="0.00" timeLoss="38.16" rerouteNo="0" devices="tripinfo_62" vType="DEFAULT_VEHTYPE" speedFactor="1.01" vaporized=""/>
    <tripinfo id="34" depart="178.00" departLane="right1D1_0" departPos="5.10" departSpeed="0.00" departDelay="0.00" arrival="362.00" arrivalLane="C0bottom2_1" arrivalPos="286.40" arrivalSpeed="13.07" duration="184.00" routeLength="1195.18" waitingTime="74.00" waitingCount="2" stopTime="0.00" timeLoss="92.41" rerouteNo="0" devices="tripinfo_34" vType="DEFAULT_VEHTYPE" speedFactor="0.95" vaporized=""/>
    <tripinfo id="46" depart="220.00" departLane="bottom0A0_0" departPos="5.10" departSpeed="0.00" departDelay="0.00" arrival="365.00" arrivalLane="C0bottom2_0" arrivalPos="286.40" arrivalSpeed="9.81" duration="145.00" routeLength="1161.43" waitingTime="3.00" waitingCount="3" stopTime="0.00" timeLoss="25.17" rerouteNo="0" devices="tripinfo_46" vType="DEFAULT_VEHTYPE" speedFactor="0.71" vaporized=""/>
    <tripinfo id="71" depart="289.00" departLane="bottom0A0_0" departPos="5.10" departSpeed="0.00" departDelay="0.00" arrival="386.00" arrivalLane="C0bottom2_0" arrivalPos="286.40" arrivalSpeed="14.54" duration="97.00" routeLength="1161.43" waitingTime="2.00" waitingCount="2" stopTime="0.00" timeLoss="20.16" rerouteNo="0" devices="tripinfo_71" vType="DEFAULT_VEHTYPE" speedFactor="1.11" vaporized=""/>
    <tripinfo id="0" depart="1.00" departLane="top2C3_0" departPos="5.10" departSpeed="0.00" departDelay="0.00" arrival="397.00" arrivalLane="A3left3_0" arrivalPos="286.40" arrivalSpeed="15.05" duration="396.00" routeLength="1179.77" waitingTime="293.00" waitingCount="3" stopTime="0.00" timeLoss="319.62" rerouteNo="0" devices="tripinfo_0" vType="DEFAULT_VEHTYPE" speedFactor="1.12" vaporized=""/>
    <tripinfo id="77" depart="312.00" departLane="bottom2C0_0" departPos="5.10" departSpeed="0.00" departDelay="0.00" arrival="399.00" arrivalLane="D0bottom3_0" arrivalPos="286.40" arrivalSpeed="10.70" duration="87.00" routeLength="858.56" waitingTime="1.00" waitingCount="1" stopTime="0.00" timeLoss="12.72" rerouteNo="0" devices="tripinfo_77" vType="DEFAULT_VEHTYPE" speedFactor="0.85" vaporized=""/>
    <tripinfo id="1" depart="8.00" departLane="right3D3_0" departPos="5.10" departSpeed="0.00" departDelay="0.00" arrival="402.00" arrivalLane="A3left3_0" arrivalPos="286.40" arrivalSpeed="12.41" duration="394.00" routeLength="1495.58" waitingTime="248.00" waitingCount="3" stopTime="0.00" timeLoss="279.64" rerouteNo="0" devices="tripinfo_1" vType="DEFAULT_VEHTYPE" speedFactor="0.94" vaporized=""/>
    <tripinfo id="76" depart="311.00" departLane="top1B3_0" departPos="5.10" departSpeed="0.00" departDelay="0.00" arrival="404.00" arrivalLane="A3left3_1" arrivalPos="286.40" arrivalSpeed="12.60" duration="93.00" routeLength="879.60" waitingTime="11.00" waitingCount="2" stopTime="0.00" timeLoss="27.51" rerouteNo="0" devices="tripinfo_76" vType="DEFAULT_VEHTYPE" speedFactor="0.99" vaporized=""/>
    <tripinfo id="87" depart="364.00" departLane="bottom2C0_0" departPos="5.10" departSpeed="0.00" departDelay="0.00" arrival="440.00" arrivalLane="D0bottom3_0" arrivalPos="286.40" arrivalSpeed="14.56" duration="76.00" routeLength="858.56" waitingTime="2.00" waitingCount="2" stopTime="0.00" timeLoss="18.99" rerouteNo="0" devices="tripinfo_87" vType="DEFAULT_VEHTYPE" speedFactor="1.11" vaporized=""/>
    <tripinfo id="84" depart="357.00" departLane="right3D3_0" departPos="5.10" departSpeed="0.00" departDelay="0.00" arrival="442.00" arrivalLane="C3top2_0" arrivalPos="286.40" arrivalSpeed="11.29" duration="85.00" routeLength="876.90" waitingTime="1.00" waitingCount="1" stopTime="0.00" timeLoss="10.82" rerouteNo="0" devices="tripinfo_84" vType="DEFAULT_VEHTYPE" speedFactor="0.86" vaporized=""/>
    <tripinfo id="75" depart="303.00" departLane="top0A3_0" departPos="5.10" departSpeed="0.00" departDelay="0.00" arrival="452.00" arrivalLane="A0bottom0_0" arrivalPos="286.40" arrivalSpeed="12.00" duration="149.00" routeLength="1495.58" waitingTime="7.00" waitingCount="1" stopTime="0.00" timeLoss="25.67" rerouteNo="0" devices="tripinfo_75" vType="DEFAULT_VEHTYPE" speedFactor="0.88" vaporized=""/>
    <tripinfo id="16" depart="82.00" departLane="right0D0_0" departPos="5.10" departSpeed="0.00" departDelay="0.00" arrival="471.00" arrivalLane="A0left0_0" arrivalPos="286.40" arrivalSpeed="13.55" duration="389.00" routeLength="1495.58" waitingTime="262.00" waitingCount="2" stopTime="0.00" timeLoss="281.70" rerouteNo="0" devices="tripinfo_16" vType="DEFAULT_VEHTYPE" speedFactor="1.01" vaporized=""/>
    <tripinfo id="30" depart="149.00" departLane="left0A0_0" departPos="5.10" departSpeed="0.00" departDelay="0.00" arrival="501.00" arrivalLane="C0bottom2_0" arrivalPos="286.40" arrivalSpeed="14.66" duration="352.00" routeLength="1177.07" waitingTime="258.00" waitingCount="1" stopTime="0.00" timeLoss="272.81" rerouteNo="0" devices="tripinfo_30" vType="DEFAULT_VEHTYPE" speedFactor="1.09" vaporized=""/>
    <tripinfo id="99" depart="429.00" departLane="top2C3_0" departPos="5.10" departSpeed="0.00" departDelay="0.00" arrival="504.00" arrivalLane="B3top1_0" arrivalPos="286.40" arrivalSpeed="14.51" duration="75.00" routeLength="858.56" waitingTime="2.00" waitingCount="2" stopTime="0.00" timeLoss="18.24" rerouteNo="0" devices="tripinfo_99" vType="DEFAULT_VEHTYPE" speedFactor="1.12" vaporized=""/>
    <tripinfo id="63" depart="260.00" departLane="right1D1_0" departPos="5.10" departSpeed="0.00" departDelay="0.00" arrival="509.00" arrivalLane="C0bottom2_0" arrivalPos="286.40" arrivalSpeed="12.97" duration="249.00" routeLength="1195.18" waitingTime="144.00" waitingCount="2" stopTime="0.00" timeLoss="159.13" rerouteNo="0" devices="tripinfo_63" vType="DEFAULT_VEHTYPE" speedFactor="0.96" vaporized=""/>
    <tripinfo id="40" depart="198.00" departLane="left0A0_0" departPos="5.10" departSpeed="0.00" departDelay="0.00" arrival="518.00" arrivalLane="A2left2_0" arrivalPos="286.40" arrivalSpeed="14.13" duration="320.00" routeLength="1197.66" waitingTime="214.00" waitingCount="3" stopTime="0.00" timeLoss="237.46" rerouteNo="0" devices="tripinfo_40" vType="DEFAULT_VEHTYPE" speedFactor="1.06" vaporized=""/>
    <tripinfo id="43" depart="211.00" departLane="bottom2C0_0" departPos="5.10" departSpeed="0.00" departDelay="0.00" arrival="518.00" arrivalLane="C0bottom2_0" arrivalPos="286.40" arrivalSpeed="14.59" duration="307.00" routeLength="1748.75" waitingTime="158.00" waitingCount="4" stopTime="0.00" timeLoss="189.25" rerouteNo="0" devices="tripinfo_43" vType="DEFAULT_VEHTYPE" speedFactor="1.09" vaporized=""/>
    <tripinfo id="37" depart="185.00" departLane="left1A1_0" departPos="5.10" departSpeed="0.00" departDelay="0.00" arrival="519.00" arrivalLane="A3left3_1" arrivalPos="286.40" arrivalSpeed="14.86" duration="334.00" routeLength="1197.66" waitingTime="223.00" waitingCount="2" stopTime="0.00" timeLoss="255.34" rerouteNo="0" devices="tripinfo_37" vType="DEFAULT_VEHTYPE" speedFactor="1.11" vaporized=""/>
    <tripinfo id="35" depart="179.00" departLane="left1A1_0" departPos="5.10" departSpeed="0.00" departDelay="0.00" arrival="520.00" arrivalLane="A3left3_0" arrivalPos="286.40" arrivalSpeed="12.94" duration="341.00" routeLength="1197.66" waitingTime="229.00" waitingCount="3" stopTime="0.00" timeLoss="250.69" rerouteNo="0" devices="tripinfo_35" vType="DEFAULT_VEHTYPE" speedFactor="0.97" vaporized=""/>
    <tripinfo id="95" depart="409.00" departLane="bottom1B0_0" departPos="5.10" departSpeed="0.00" departDelay="0.00" arrival="524.00" arrivalLane="D0bottom3_0" arrivalPos="286.40" arrivalSpeed="12.13" duration="115.00" routeLength="1161.43" waitingTime="2.00" waitingCount="2" stopTime="0.00" timeLoss="21.65" rerouteNo="0" devices="tripinfo_95" vType="DEFAULT_VEHTYPE" speedFactor="0.92" vaporized=""/>
    <tripinfo id="48" depart="233.00" departLane="right0D0_0" departPos="5.10" departSpeed="0.00" departDelay="0.00" arrival="526.00" arrivalLane="A3top0_0" arrivalPos="286.40" arrivalSpeed="16.36" duration="293.00" routeLength="2380.45" waitingTime="115.00" waitingCount="2" stopTime="0.00" timeLoss="150.21" rerouteNo="0" devices="tripinfo_48" vType="DEFAULT_VEHTYPE" speedFactor="1.21" vaporized=""/>
    <tripinfo id="102" depart="448.00" departLane="right3D3_0" departPos="5.10" departSpeed="0.00" departDelay="0.00" arrival="535.00" arrivalLane="D2right2_0" arrivalPos="286.40" arrivalSpeed="11.53" duration="87.00" routeLength="894.86" waitingTime="0.00" waitingCount="0" stopTime="0.00" timeLoss="7.93" rerouteNo="0" devices="tripinfo_102" vType="DEFAULT_VEHTYPE" speedFactor="0.83" vaporized=""/>
    <tripinfo id="117" depart="495.00" departLane="right3D3_0" departPos="5.10" departSpeed="0.00" departDelay="0.00" arrival="543.00" arrivalLane="D3top3_0" arrivalPos="286.40" arrivalSpeed="14.17" duration="48.00" routeLength="576.73" waitingTime="0.00" waitingCount="0" stopTime="0.00" timeLoss="7.22" rerouteNo="0" devices="tripinfo_117" vType="DEFAULT_VEHTYPE" speedFactor="1.05" vaporized=""/>
    <tripinfo id="25" depart="136.00" departLane="top2C3_0" departPos="5.10" departSpeed="0.00" departDelay="0.00" arrival="552.00" arrivalLane="D2right2_0" arrivalPos="286.40" arrivalSpeed="10.93" duration="416.00" routeLength="1195.18" waitingTime="293.00" waitingCount="3" stopTime="0.00" timeLoss="316.88" rerouteNo="0" devices="tripinfo_25" vType="DEFAULT_VEHTYPE" speedFactor="0.87" vaporized=""/>
    <tripinfo id="114" depart="490.00" departLane="right0D0_0" departPos="5.10" departSpeed="0.00" departDelay="0.00" arrival="559.00" arrivalLane="C0bottom2_0" arrivalPos="286.40" arrivalSpeed="14.08" duration="69.00" routeLength="897.72" waitingTime="0.00" waitingCount="0" stopTime="0.00" timeLoss="6.07" rerouteNo="0" devices="tripinfo_114" vType="DEFAULT_VEHTYPE" speedFactor="1.04" vaporized=""/>
    <tripinfo id="29" depart="145.00" departLane="bottom1B0_0" departPos="5.10" departSpeed="0.00" departDelay="0.00" arrival="568.00" arrivalLane="B3top1_0" arrivalPos="286.40" arrivalSpeed="14.13" duration="423.00" routeLength="1495.58" waitingTime="289.00" waitingCount="4" stopTime="0.00" timeLoss="317.65" rerouteNo="0" devices="tripinfo_29" vType="DEFAULT_VEHTYPE" speedFactor="1.02" vaporized=""/>
    <tripinfo id="109" depart="469.00" departLane="left3A3_0" departPos="5.10" departSpeed="0.00" departDelay="0.00" arrival="570.00" arrivalLane="A1left1_0" arrivalPos="286.40" arrivalSpeed="13.78" duration="101.00" routeLength="1161.43" waitingTime="1.00" waitingCount="1" stopTime="0.00" timeLoss="17.27" rerouteNo="0" devices="tripinfo_109" vType="DEFAULT_VEHTYPE" speedFactor="1.01" vaporized=""/>
    <tripinfo id="80" depart="329.00" departLane="right2D2_0" departPos="5.10" departSpeed="0.00" departDelay="0.00" arrival="588.00" arrivalLane="C3top2_0" arrivalPos="286.40" arrivalSpeed="14.48" duration="259.00" routeLength="1179.77" waitingTime="158.00" waitingCount="2" stopTime="0.00" timeLoss="177.49" rerouteNo="0" devices="tripinfo_80" vType="DEFAULT_VEHTYPE" speedFactor="1.05" vaporized=""/>
    <tripinfo id="110" depart="470.00" departLane="right0D0_0" departPos="5.10" departSpeed="0.00" departDelay="0.00" arrival="594.00" arrivalLane="D2right2_0" arrivalPos="286.40" arrivalSpeed="13.08" duration="124.00" routeLength="1161.43" waitingTime="21.00" waitingCount="1" stopTime="0.00" timeLoss="38.25" rerouteNo="0" devices="tripinfo_110" vType="DEFAULT_VEHTYPE" speedFactor="0.99" vaporized=""/>
    <tripinfo id="124" depart="522.00" departLane="top0A3_0" departPos="5.10" departSpeed="0.00" departDelay="0.00" arrival="603.00" arrivalLane="A2left2_0" arrivalPos="286.40" arrivalSpeed="11.63" duration="81.00" routeLength="876.90" waitingTime="0.00" waitingCount="0" stopTime="0.00" timeLoss="7.67" rerouteNo="0" devices="tripinfo_124" vType="DEFAULT_VEHTYPE" speedFactor="0.88" vaporized=""/>
    <tripinfo id="26" depart="138.00" departLane="bottom2C0_0" departPos="5.10" departSpeed="0.00" departDelay="0.00" arrival="612.00" arrivalLane="A0bottom0_0" arrivalPos="286.40" arrivalSpeed="14.34" duration="474.00" routeLength="1197.66" waitingTime="378.00" waitingCount="1" stopTime="0.00" timeLoss="391.04" rerouteNo="0" devices="tripinfo_26" vType="DEFAULT_VEHTYPE" speedFactor="1.05" vaporized=""/>
    <tripinfo id="28" depart="145.00" departLane="bottom2C0_0" departPos="5.10" departSpeed="0.00" departDelay="0.00" arrival="615.00" arrivalLane="A0left0_0" arrivalPos="286.40" arrivalSpeed="14.00" duration="470.00" routeLength="1195.18" waitingTime="370.00" waitingCount="1" stopTime="0.00" timeLoss="385.19" rerouteNo="0" devices="tripinfo_28" vType="DEFAULT_VEHTYPE" speedFactor="1.02" vaporized=""/>
    <tripinfo id="101" depart="439.00" departLane="bottom2C0_0" departPos="5.10" departSpeed="0.00" departDelay="0.00" arrival="616.00" arrivalLane="A0left0_1" arrivalPos="286.40" arrivalSpeed="15.25" duration="177.00" routeLength="1195.18" waitingTime="81.00" waitingCount="1" stopTime="0.00" timeLoss="98.33" rerouteNo="0" devices="tripinfo_101" vType="DEFAULT_VEHTYPE" speedFactor="1.11" vaporized=""/>
    <tripinfo id="55" depart="244.00" departLane="right0D0_0" departPos="5.10" departSpeed="0.00" departDelay="0.00" arrival="638.00" arrivalLane="A1left1_0" arrivalPos="286.40" arrivalSpeed="14.15" duration="394.00" routeLength="1782.72" waitingTime="229.00" waitingCount="5" stopTime="0.00" timeLoss="268.45" rerouteNo="0" devices="tripinfo_55" vType="DEFAULT_VEHTYPE" speedFactor="1.03" vaporized=""/>
    <tripinfo id="56" depart="248.00" departLane="left0A0_0" departPos="5.10" departSpeed="0.00" departDelay="0.00" arrival="641.00" arrivalLane="D2right2_0" arrivalPos="286.40" arrivalSpeed="12.32" duration="393.00" routeLength="2080.05" waitingTime="186.00" waitingCount="6" stopTime="0.00" timeLoss="223.79" rerouteNo="0" devices="tripinfo_56" vType="DEFAULT_VEHTYPE" speedFactor="0.89" vaporized=""/>
    <tripinfo id="141" depart="598.00" departLane="top0A3_0" departPos="5.10" departSpeed="0.00" departDelay="0.00" arrival="649.00" arrivalLane="A3left3_0" arrivalPos="286.40" arrivalSpeed="13.50" duration="51.00" routeLength="576.73" waitingTime="0.00" waitingCount="0" stopTime="0.00" timeLoss="6.96" rerouteNo="0" devices="tripinfo_141" vType="DEFAULT_VEHTYPE" speedFactor="0.98" vaporized=""/>
    <tripinfo id="138" depart="590.00" departLane="bottom2C0_0" departPos="5.10" departSpeed="0.00" departDelay="0.00" arrival="672.00" arrivalLane="D0bottom3_0" arrivalPos="286.40" arrivalSpeed="13.78" duration="82.00" routeLength="858.56" waitingTime="2.00" waitingCount="2" stopTime="0.00" timeLoss="18.54" rerouteNo="0" devices="tripinfo_138" vType="DEFAULT_VEHTYPE" speedFactor="1.00" vaporized=""/>
    <tripinfo id="135" depart="571.00" departLane="top0A3_0" departPos="5.10" departSpeed="0.00" departDelay="0.00" arrival="674.00" arrivalLane="A1left1_0" arrivalPos="286.40" arrivalSpeed="13.23" duration="103.00" routeLength="1177.07" waitingTime="4.00" waitingCount="1" stopTime="0.00" timeLoss="19.76" rerouteNo="0" devices="tripinfo_135" vType="DEFAULT_VEHTYPE" speedFactor="1.03" vaporized=""/>
    <tripinfo id="44" depart="213.00" departLane="right2D2_0" departPos="5.10" departSpeed="0.00" departDelay="0.00" arrival="678.00" arrivalLane="D1right1_0" arrivalPos="286.40" arrivalSpeed="14.23" duration="465.00" routeLength="894.86" waitingTime="385.00" waitingCount="2" stopTime="0.00" timeLoss="402.14" rerouteNo="0" devices="tripinfo_44" vType="DEFAULT_VEHTYPE" speedFactor="1.04" vaporized=""/>
    <tripinfo id="51" depart="236.00" departLane="right2D2_0" departPos="5.10" departSpeed="0.00" departDelay="0.00" arrival="678.00" arrivalLane="D1right1_1" arrivalPos="286.40" arrivalSpeed="15.32" duration="442.00" routeLength="894.86" waitingTime="365.00" waitingCount="2" stopTime="0.00" timeLoss="385.73" rerouteNo="0" devices="tripinfo_51" vType="DEFAULT_VEHTYPE" speedFactor="1.16" vaporized=""/>
    <tripinfo id="106" depart="459.00" departLane="right3D3_0" departPos="5.10" departSpeed="0.00" departDelay="0.00" arrival="684.00" arrivalLane="D1right1_0" arrivalPos="286.40" arrivalSpeed="13.10" duration="225.00" routeLength="1197.66" waitingTime="123.00" waitingCount="1" stopTime="0.00" timeLoss="135.56" rerouteNo="0" devices="tripinfo_106" vType="DEFAULT_VEHTYPE" speedFactor="0.98" vaporized=""/>
    <tripinfo id="50" depart="234.00" departLane="top1B3_0" departPos="5.10" departSpeed="0.00" departDelay="0.00" arrival="698.00" arrivalLane="D3top3_0" arrivalPos="286.40" arrivalSpeed="13.86" duration="464.00" routeLength="1197.66" waitingTime="361.00" waitingCount="1" stopTime="0.00" timeLoss="380.46" rerouteNo="0" devices="tripinfo_50" vType="DEFAULT_VEHTYPE" speedFactor="1.05" vaporized=""/>
    <tripinfo id="14" depart="76.00" departLane="left3A3_0" departPos="5.10" departSpeed="0.00" departDelay="0.00" arrival="699.00" arrivalLane="D1right1_0" arrivalPos="286.40" arrivalSpeed="13.96" duration="623.00" routeLength="2082.76" waitingTime="433.00" waitingCount="6" stopTime="0.00" timeLoss="476.71" rerouteNo="0" devices="tripinfo_14" vType="DEFAULT_VEHTYPE" speedFactor="1.04" vaporized=""/>
    <tripinfo id="52" depart="242.00" departLane="right3D3_0" departPos="5.10" departSpeed="0.00" departDelay="0.00" arrival="700.00" arrivalLane="D3right3_0" arrivalPos="286.40" arrivalSpeed="12.93" duration="458.00" routeLength="1745.91" waitingTime="300.00" waitingCount="2" stopTime="0.00" timeLoss="324.67" rerouteNo="0" devices="tripinfo_52" vType="DEFAULT_VEHTYPE" speedFactor="0.96" vaporized=""/>
    <tripinfo id="21" depart="108.00" departLane="left1A1_0" departPos="5.10" departSpeed="0.00" departDelay="0.00" arrival="702.00" arrivalLane="D3right3_0" arrivalPos="286.40" arrivalSpeed="13.20" duration="594.00" routeLength="2080.05" waitingTime="401.00" waitingCount="4" stopTime="0.00" timeLoss="436.57" rerouteNo="0" devices="tripinfo_21" vType="DEFAULT_VEHTYPE" speedFactor="0.96" vaporized=""/>
    <tripinfo id="81" depart="337.00" departLane="bottom2C0_0" departPos="5.10" departSpeed="0.00" departDelay="0.00" arrival="708.00" arrivalLane="C0bottom2_0" arrivalPos="286.40" arrivalSpeed="14.07" duration="371.00" routeLength="1748.75" waitingTime="216.00" waitingCount="4" stopTime="0.00" timeLoss="251.17" rerouteNo="0" devices="tripinfo_81" vType="DEFAULT_VEHTYPE" speedFactor="1.07" vaporized=""/>
    <tripinfo id="144" depart="605.00" departLane="right1D1_0" departPos="5.10" departSpeed="0.00" departDelay="0.00" arrival="723.00" arrivalLane="D3right3_0" arrivalPos="286.40" arrivalSpeed="12.63" duration="118.00" routeLength="1161.43" waitingTime="2.00" waitingCount="2" stopTime="0.00" timeLoss="24.15" rerouteNo="0" devices="tripinfo_144" vType="DEFAULT_VEHTYPE" speedFactor="0.91" vaporized=""/>
    <tripinfo id="159" depart="657.00" departLane="bottom1B0_0" departPos="5.10" departSpeed="0.00" departDelay="0.00" arrival="739.00" arrivalLane="C0bottom2_0" arrivalPos="286.40" arrivalSpeed="12.13" duration="82.00" routeLength="858.56" waitingTime="1.00" waitingCount="1" stopTime="0.00" timeLoss="14.81" rerouteNo="0" devices="tripinfo_159" vType="DEFAULT_VEHTYPE" speedFactor="0.94" vaporized=""/>
    <tripinfo id="157" depart="653.00" departLane="bottom0A0_0" departPos="5.10" departSpeed="0.00" departDelay="0.00" arrival="740.00" arrivalLane="B0bottom1_0" arrivalPos="286.40" arrivalSpeed="10.77" duration="87.00" routeLength="858.56" waitingTime="0.00" waitingCount="0" stopTime="0.00" timeLoss="11.58" rerouteNo="0" devices="tripinfo_157" vType="DEFAULT_VEHTYPE" speedFactor="0.83" vaporized=""/>
    <tripinfo id="69" depart="281.00" departLane="left2A2_0" departPos="5.10" departSpeed="0.00" departDelay="0.00" arrival="742.00" arrivalLane="D1right1_1" arrivalPos="286.40" arrivalSpeed="12.33" duration="461.00" routeLength="1782.72" waitingTime="283.00" waitingCount="5" stopTime="0.00" timeLoss="326.67" rerouteNo="0" devices="tripinfo_69" vType="DEFAULT_VEHTYPE" speedFactor="0.97" vaporized=""/>
    <tripinfo id="131" depart="556.00" departLane="right0D0_0" departPos="5.10" departSpeed="0.00" departDelay="0.00" arrival="743.00" arrivalLane="D3top3_0" arrivalPos="286.40" arrivalSpeed="11.39" duration="187.00" routeLength="1479.94" waitingTime="37.00" waitingCount="3" stopTime="0.00" timeLoss="61.36" rerouteNo="0" devices="tripinfo_131" vType="DEFAULT_VEHTYPE" speedFactor="0.86" vaporized=""/>