<?xml version="1.0" encoding="UTF-8"?>

<!-- generated on 2023-08-30 13:59:09 by Eclipse SUMO libsumo Version 1.18.0
<configuration xmlns:xsi="http://www.w3.org/2001/XMLSchema-instance" xsi:noNamespaceSchemaLocation="http://sumo.dlr.de/xsd/libsumoConfiguration.xsd">

    <input>
        <net-file value="/home/stefan/RESCO/./environments/grid4x4/grid4x4.net.xml"/>
        <route-files value="/home/stefan/RESCO/./environments/grid4x4/grid4x4_96.rou.xml"/>
    </input>

    <output>
        <tripinfo-output value="/home/stefan/results/RAINBOW-tr0-grid4x4-0-drq_norm-wait_norm/tripinfo_96.xml"/>
        <tripinfo-output.write-unfinished value="true"/>
    </output>

    <processing>
        <time-to-teleport value="-1"/>
    </processing>

    <report>
        <no-warnings value="True"/>
        <no-step-log value="True"/>
    </report>

    <random_number>
        <random value="true"/>
    </random_number>

</configuration>
-->

<tripinfos xmlns:xsi="http://www.w3.org/2001/XMLSchema-instance" xsi:noNamespaceSchemaLocation="http://sumo.dlr.de/xsd/tripinfo_file.xsd">
    <tripinfo id="24" depart="123.00" departLane="left3A3_0" departPos="5.10" departSpeed="0.00" departDelay="0.00" arrival="177.00" arrivalLane="A3top0_0" arrivalPos="286.40" arrivalSpeed="11.50" duration="54.00" routeLength="597.55" waitingTime="0.00" waitingCount="0" stopTime="0.00" timeLoss="5.52" rerouteNo="0" devices="tripinfo_24" vType="DEFAULT_VEHTYPE" speedFactor="0.90" vaporized=""/>
    <tripinfo id="21" depart="120.00" departLane="top1B3_0" departPos="5.10" departSpeed="0.00" departDelay="0.00" arrival="210.00" arrivalLane="A3top0_0" arrivalPos="286.40" arrivalSpeed="11.35" duration="90.00" routeLength="858.56" waitingTime="1.00" waitingCount="1" stopTime="0.00" timeLoss="15.03" rerouteNo="0" devices="tripinfo_21" vType="DEFAULT_VEHTYPE" speedFactor="0.85" vaporized=""/>
    <tripinfo id="34" depart="170.00" departLane="left3A3_0" departPos="5.10" departSpeed="0.00" departDelay="0.00" arrival="216.00" arrivalLane="A3top0_0" arrivalPos="286.40" arrivalSpeed="14.68" duration="46.00" routeLength="597.55" waitingTime="0.00" waitingCount="0" stopTime="0.00" timeLoss="6.06" rerouteNo="0" devices="tripinfo_34" vType="DEFAULT_VEHTYPE" speedFactor="1.10" vaporized=""/>
    <tripinfo id="46" depart="247.00" departLane="left3A3_0" departPos="5.10" departSpeed="0.00" departDelay="0.00" arrival="323.00" arrivalLane="A2left2_0" arrivalPos="286.40" arrivalSpeed="14.10" duration="76.00" routeLength="858.56" waitingTime="1.00" waitingCount="1" stopTime="0.00" timeLoss="15.45" rerouteNo="0" devices="tripinfo_46" vType="DEFAULT_VEHTYPE" speedFactor="1.04" vaporized=""/>
    <tripinfo id="52" depart="285.00" departLane="left0A0_0" departPos="5.10" departSpeed="0.00" departDelay="0.00" arrival="338.00" arrivalLane="A0bottom0_0" arrivalPos="286.40" arrivalSpeed="13.51" duration="53.00" routeLength="576.73" waitingTime="1.00" waitingCount="1" stopTime="0.00" timeLoss="11.16" rerouteNo="0" devices="tripinfo_52" vType="DEFAULT_VEHTYPE" speedFactor="1.00" vaporized=""/>
    <tripinfo id="71" depart="384.00" departLane="right3D3_0" departPos="5.10" departSpeed="0.00" departDelay="0.00" arrival="562.00" arrivalLane="D1right1_0" arrivalPos="286.40" arrivalSpeed="11.63" duration="178.00" routeLength="1197.66" waitingTime="68.00" waitingCount="1" stopTime="0.00" timeLoss="82.95" rerouteNo="0" devices="tripinfo_71" vType="DEFAULT_VEHTYPE" speedFactor="0.93" vaporized=""/>
    <tripinfo id="88" depart="491.00" departLane="top3D3_0" departPos="5.10" departSpeed="0.00" departDelay="0.00" arrival="565.00" arrivalLane="C3top2_0" arrivalPos="286.40" arrivalSpeed="15.54" duration="74.00" routeLength="858.56" waitingTime="2.00" waitingCount="2" stopTime="0.00" timeLoss="19.81" rerouteNo="0" devices="tripinfo_88" vType="DEFAULT_VEHTYPE" speedFactor="1.18" vaporized=""/>
    <tripinfo id="96" depart="517.00" departLane="right3D3_0" departPos="5.10" departSpeed="0.00" departDelay="0.00" arrival="583.00" arrivalLane="C3top2_0" arrivalPos="286.40" arrivalSpeed="16.73" duration="66.00" routeLength="876.90" waitingTime="1.00" waitingCount="1" stopTime="0.00" timeLoss="13.66" rerouteNo="0" devices="tripinfo_96" vType="DEFAULT_VEHTYPE" speedFactor="1.23" vaporized=""/>
    <tripinfo id="86" depart="489.00" departLane="left3A3_0" departPos="5.10" departSpeed="0.00" departDelay="0.00" arrival="602.00" arrivalLane="A1left1_0" arrivalPos="286.40" arrivalSpeed="11.97" duration="113.00" routeLength="1161.43" waitingTime="2.00" waitingCount="2" stopTime="0.00" timeLoss="18.51" rerouteNo="0" devices="tripinfo_86" vType="DEFAULT_VEHTYPE" speedFactor="0.90" vaporized=""/>
    <tripinfo id="112" depart="596.00" departLane="left0A0_0" departPos="5.10" departSpeed="0.00" departDelay="0.00" arrival="650.00" arrivalLane="A0bottom0_0" arrivalPos="286.40" arrivalSpeed="12.79" duration="54.00" routeLength="576.73" waitingTime="1.00" waitingCount="1" stopTime="0.00" timeLoss="12.48" rerouteNo="0" devices="tripinfo_112" vType="DEFAULT_VEHTYPE" speedFactor="1.01" vaporized=""/>
    <tripinfo id="123" depart="619.00" departLane="left3A3_0" departPos="5.10" departSpeed="0.00" departDelay="0.00" arrival="703.00" arrivalLane="A2left2_0" arrivalPos="286.40" arrivalSpeed="12.57" duration="84.00" routeLength="858.56" waitingTime="1.00" waitingCount="1" stopTime="0.00" timeLoss="15.01" rerouteNo="0" devices="tripinfo_123" vType="DEFAULT_VEHTYPE" speedFactor="0.93" vaporized=""/>
    <tripinfo id="153" depart="720.00" departLane="left3A3_0" departPos="5.10" departSpeed="0.00" departDelay="0.00" arrival="764.00" arrivalLane="A3top0_0" arrivalPos="286.40" arrivalSpeed="15.46" duration="44.00" routeLength="597.55" waitingTime="0.00" waitingCount="0" stopTime="0.00" timeLoss="4.98" rerouteNo="0" devices="tripinfo_153" vType="DEFAULT_VEHTYPE" speedFactor="1.12" vaporized=""/>
    <tripinfo id="151" depart="718.00" departLane="left1A1_0" departPos="5.10" departSpeed="0.00" departDelay="0.00" arrival="784.00" arrivalLane="A0left0_0" arrivalPos="286.40" arrivalSpeed="14.66" duration="66.00" routeLength="858.56" waitingTime="0.00" waitingCount="0" stopTime="0.00" timeLoss="10.58" rerouteNo="0" devices="tripinfo_151" vType="DEFAULT_VEHTYPE" speedFactor="1.14" vaporized=""/>
    <tripinfo id="141" depart="697.00" departLane="bottom1B0_0" departPos="5.10" departSpeed="0.00" departDelay="0.00" arrival="798.00" arrivalLane="D0bottom3_0" arrivalPos="286.40" arrivalSpeed="14.94" duration="101.00" routeLength="1161.43" waitingTime="2.00" waitingCount="2" stopTime="0.00" timeLoss="22.39" rerouteNo="0" devices="tripinfo_141" vType="DEFAULT_VEHTYPE" speedFactor="1.08" vaporized=""/>
    <tripinfo id="78" depart="450.00" departLane="right3D3_0" departPos="5.10" departSpeed="0.00" departDelay="0.00" arrival="828.00" arrivalLane="D2right2_0" arrivalPos="286.40" arrivalSpeed="13.85" duration="378.00" routeLength="894.86" waitingTime="304.00" waitingCount="1" stopTime="0.00" timeLoss="315.16" rerouteNo="0" devices="tripinfo_78" vType="DEFAULT_VEHTYPE" speedFactor="1.04" vaporized=""/>
    <tripinfo id="152" depart="719.00" departLane="right3D3_0" departPos="5.10" departSpeed="0.00" departDelay="0.00" arrival="830.00" arrivalLane="D2right2_1" arrivalPos="286.40" arrivalSpeed="14.52" duration="111.00" routeLength="894.86" waitingTime="38.00" waitingCount="1" stopTime="0.00" timeLoss="51.05" rerouteNo="0" devices="tripinfo_152" vType="DEFAULT_VEHTYPE" speedFactor="1.10" vaporized=""/>
    <tripinfo id="182" depart="851.00" departLane="right2D2_0" departPos="5.10" departSpeed="0.00" departDelay="0.00" arrival="937.00" arrivalLane="D3right3_0" arrivalPos="286.40" arrivalSpeed="12.02" duration="86.00" routeLength="858.56" waitingTime="2.00" waitingCount="2" stopTime="0.00" timeLoss="19.21" rerouteNo="0" devices="tripinfo_182" vType="DEFAULT_VEHTYPE" speedFactor="0.94" vaporized=""/>
    <tripinfo id="154" depart="727.00" departLane="bottom1B0_0" departPos="5.10" departSpeed="0.00" departDelay="0.00" arrival="940.00" arrivalLane="A0bottom0_0" arrivalPos="286.40" arrivalSpeed="13.64" duration="213.00" routeLength="894.86" waitingTime="134.00" waitingCount="1" stopTime="0.00" timeLoss="145.54" rerouteNo="0" devices="tripinfo_154" vType="DEFAULT_VEHTYPE" speedFactor="0.98" vaporized=""/>
    <tripinfo id="195" depart="903.00" departLane="bottom0A0_0" departPos="5.10" departSpeed="0.00" departDelay="0.00" arrival="990.00" arrivalLane="B0bottom1_0" arrivalPos="286.40" arrivalSpeed="12.14" duration="87.00" routeLength="858.56" waitingTime="2.00" waitingCount="2" stopTime="0.00" timeLoss="18.14" rerouteNo="0" devices="tripinfo_195" vType="DEFAULT_VEHTYPE" speedFactor="0.92" vaporized=""/>
    <tripinfo id="40" depart="222.00" departLane="left0A0_0" departPos="5.10" departSpeed="0.00" departDelay="0.00" arrival="993.00" arrivalLane="B0bottom1_0" arrivalPos="286.40" arrivalSpeed="13.25" duration="771.00" routeLength="876.90" waitingTime="687.00" waitingCount="2" stopTime="0.00" timeLoss="709.01" rerouteNo="0" devices="tripinfo_40" vType="DEFAULT_VEHTYPE" speedFactor="1.03" vaporized=""/>
    <tripinfo id="79" depart="451.00" departLane="top2C3_0" departPos="5.10" departSpeed="0.00" departDelay="0.00" arrival="997.00" arrivalLane="D3top3_0" arrivalPos="286.40" arrivalSpeed="14.39" duration="546.00" routeLength="894.86" waitingTime="471.00" waitingCount="2" stopTime="0.00" timeLoss="487.41" rerouteNo="0" devices="tripinfo_79" vType="DEFAULT_VEHTYPE" speedFactor="1.12" vaporized=""/>
    <tripinfo id="68" depart="373.00" departLane="left0A0_0" departPos="5.10" departSpeed="0.00" departDelay="0.00" arrival="1036.00" arrivalLane="C0bottom2_1" arrivalPos="286.40" arrivalSpeed="15.07" duration="663.00" routeLength="1177.07" waitingTime="560.00" waitingCount="2" stopTime="0.00" timeLoss="587.80" rerouteNo="0" devices="tripinfo_68" vType="DEFAULT_VEHTYPE" speedFactor="1.15" vaporized=""/>
    <tripinfo id="104" depart="569.00" departLane="bottom0A0_0" departPos="5.10" departSpeed="0.00" departDelay="0.00" arrival="1036.00" arrivalLane="C0bottom2_0" arrivalPos="286.40" arrivalSpeed="12.80" duration="467.00" routeLength="1161.43" waitingTime="359.00" waitingCount="2" stopTime="0.00" timeLoss="380.79" rerouteNo="0" devices="tripinfo_104" vType="DEFAULT_VEHTYPE" speedFactor="0.99" vaporized=""/>
    <tripinfo id="225" depart="981.00" departLane="right3D3_0" departPos="5.10" departSpeed="0.00" departDelay="0.00" arrival="1051.00" arrivalLane="D2right2_0" arrivalPos="286.40" arrivalSpeed="13.35" duration="70.00" routeLength="894.86" waitingTime="0.00" waitingCount="0" stopTime="0.00" timeLoss="6.89" rerouteNo="0" devices="tripinfo_225" vType="DEFAULT_VEHTYPE" speedFactor="1.03" vaporized=""/>
    <tripinfo id="25" depart="123.00" departLane="bottom0A0_0" departPos="5.10" departSpeed="0.00" departDelay="0.00" arrival="1062.00" arrivalLane="D0bottom3_0" arrivalPos="286.40" arrivalSpeed="12.40" duration="939.00" routeLength="1461.60" waitingTime="805.00" waitingCount="3" stopTime="0.00" timeLoss="829.74" rerouteNo="0" devices="tripinfo_25" vType="DEFAULT_VEHTYPE" speedFactor="0.98" vaporized=""/>
    <tripinfo id="230" depart="987.00" departLane="top3D3_0" departPos="5.10" departSpeed="0.00" departDelay="2.00" arrival="1088.00" arrivalLane="B3top1_0" arrivalPos="286.40" arrivalSpeed="14.99" duration="101.00" routeLength="1161.43" waitingTime="2.00" waitingCount="2" stopTime="0.00" timeLoss="28.03" rerouteNo="0" devices="tripinfo_230" vType="DEFAULT_VEHTYPE" speedFactor="1.17" vaporized=""/>
    <tripinfo id="248" depart="1024.00" departLane="top1B3_0" departPos="5.10" departSpeed="0.00" departDelay="0.00" arrival="1112.00" arrivalLane="A3top0_0" arrivalPos="286.40" arrivalSpeed="11.25" duration="88.00" routeLength="858.56" waitingTime="1.00" waitingCount="1" stopTime="0.00" timeLoss="15.23" rerouteNo="0" devices="tripinfo_248" vType="DEFAULT_VEHTYPE" speedFactor="0.87" vaporized=""/>
    <tripinfo id="266" depart="1056.00" departLane="right2D2_0" departPos="5.10" departSpeed="0.00" departDelay="0.00" arrival="1143.00" arrivalLane="D3right3_0" arrivalPos="286.40" arrivalSpeed="12.37" duration="87.00" routeLength="858.56" waitingTime="2.00" waitingCount="2" stopTime="0.00" timeLoss="18.09" rerouteNo="0" devices="tripinfo_266" vType="DEFAULT_VEHTYPE" speedFactor="0.92" vaporized=""/>
    <tripinfo id="283" depart="1082.00" departLane="top3D3_0" departPos="5.10" departSpeed="0.00" departDelay="0.00" arrival="1145.00" arrivalLane="C3top2_0" arrivalPos="286.40" arrivalSpeed="18.51" duration="63.00" routeLength="858.56" waitingTime="1.00" waitingCount="1" stopTime="0.00" timeLoss="16.39" rerouteNo="0" devices="tripinfo_283" vType="DEFAULT_VEHTYPE" speedFactor="1.36" vaporized=""/>
    <tripinfo id="306" depart="1132.00" departLane="left1A1_0" departPos="5.10" departSpeed="0.00" departDelay="0.00" arrival="1207.00" arrivalLane="A0bottom0_0" arrivalPos="286.40" arrivalSpeed="13.10" duration="75.00" routeLength="879.60" waitingTime="0.00" waitingCount="0" stopTime="0.00" timeLoss="8.09" rerouteNo="0" devices="tripinfo_306" vType="DEFAULT_VEHTYPE" speedFactor="0.97" vaporized=""/>
    <tripinfo id="303" depart="1123.00" departLane="left3A3_0" departPos="5.10" departSpeed="0.00" departDelay="0.00" arrival="1214.00" arrivalLane="A2left2_0" arrivalPos="286.40" arrivalSpeed="11.57" duration="91.00" routeLength="858.56" waitingTime="2.00" waitingCount="2" stopTime="0.00" timeLoss="15.83" rerouteNo="0" devices="tripinfo_303" vType="DEFAULT_VEHTYPE" speedFactor="0.84" vaporized=""/>
    <tripinfo id="307" depart="1137.00" departLane="bottom1B0_0" departPos="5.10" departSpeed="0.00" departDelay="0.00" arrival="1226.00" arrivalLane="C0bottom2_0" arrivalPos="286.40" arrivalSpeed="10.99" duration="89.00" routeLength="858.56" waitingTime="1.00" waitingCount="1" stopTime="0.00" timeLoss="14.05" rerouteNo="0" devices="tripinfo_307" vType="DEFAULT_VEHTYPE" speedFactor="0.84" vaporized=""/>
    <tripinfo id="177" depart="812.00" departLane="left1A1_0" departPos="5.10" departSpeed="0.00" departDelay="0.00" arrival="1240.00" arrivalLane="A2left2_0" arrivalPos="286.40" arrivalSpeed="13.45" duration="428.00" routeLength="894.86" waitingTime="354.00" waitingCount="1" stopTime="0.00" timeLoss="366.22" rerouteNo="0" devices="tripinfo_177" vType="DEFAULT_VEHTYPE" speedFactor="1.06" vaporized=""/>
    <tripinfo id="262" depart="1046.00" departLane="right3D3_0" departPos="5.10" departSpeed="0.00" departDelay="0.00" arrival="1245.00" arrivalLane="C3top2_0" arrivalPos="286.40" arrivalSpeed="11.88" duration="199.00" routeLength="876.90" waitingTime="112.00" waitingCount="1" stopTime="0.00" timeLoss="126.30" rerouteNo="0" devices="tripinfo_262" vType="DEFAULT_VEHTYPE" speedFactor="0.88" vaporized=""/>
    <tripinfo id="289" depart="1100.00" departLane="right3D3_0" departPos="5.10" departSpeed="0.00" departDelay="0.00" arrival="1247.00" arrivalLane="C3top2_0" arrivalPos="286.40" arrivalSpeed="13.35" duration="147.00" routeLength="876.90" waitingTime="67.00" waitingCount="1" stopTime="0.00" timeLoss="84.06" rerouteNo="0" devices="tripinfo_289" vType="DEFAULT_VEHTYPE" speedFactor="1.01" vaporized=""/>
    <tripinfo id="316" depart="1160.00" departLane="bottom2C0_0" departPos="5.10" departSpeed="0.00" departDelay="2.00" arrival="1251.00" arrivalLane="D0bottom3_0" arrivalPos="286.40" arrivalSpeed="11.83" duration="91.00" routeLength="858.56" waitingTime="2.00" waitingCount="2" stopTime="0.00" timeLoss="17.62" rerouteNo="0" devices="tripinfo_316" vType="DEFAULT_VEHTYPE" speedFactor="0.86" vaporized=""/>
    <tripinfo id="223" depart="974.00" departLane="right3D3_0" departPos="5.10" departSpeed="0.00" departDelay="0.00" arrival="1258.00" arrivalLane="B3top1_0" arrivalPos="286.40" arrivalSpeed="15.44" duration="284.00" routeLength="1177.07" waitingTime="186.00" waitingCount="2" stopTime="0.00" timeLoss="209.09" rerouteNo="0" devices="tripinfo_223" vType="DEFAULT_VEHTYPE" speedFactor="1.15" vaporized=""/>
    <tripinfo id="290" depart="1103.00" departLane="right3D3_0" departPos="5.10" departSpeed="0.00" departDelay="2.00" arrival="1269.00" arrivalLane="B3top1_0" arrivalPos="286.40" arrivalSpeed="15.52" duration="166.00" routeLength="1177.07" waitingTime="67.00" waitingCount="2" stopTime="0.00" timeLoss="91.46" rerouteNo="0" devices="tripinfo_290" vType="DEFAULT_VEHTYPE" speedFactor="1.15" vaporized=""/>
    <tripinfo id="335" depart="1205.00" departLane="left1A1_0" departPos="5.10" departSpeed="0.00" departDelay="0.00" arrival="1281.00" arrivalLane="A0left0_0" arrivalPos="286.40" arrivalSpeed="12.30" duration="76.00" routeLength="858.56" waitingTime="0.00" waitingCount="0" stopTime="0.00" timeLoss="9.08" rerouteNo="0" devices="tripinfo_335" vType="DEFAULT_VEHTYPE" speedFactor="0.95" vaporized=""/>
    <tripinfo id="350" depart="1222.00" departLane="left1A1_0" departPos="5.10" departSpeed="0.00" departDelay="0.00" arrival="1288.00" arrivalLane="A0left0_0" arrivalPos="286.40" arrivalSpeed="15.43" duration="66.00" routeLength="858.56" waitingTime="0.00" waitingCount="0" stopTime="0.00" timeLoss="9.05" rerouteNo="0" devices="tripinfo_350" vType="DEFAULT_VEHTYPE" speedFactor="1.12" vaporized=""/>
    <tripinfo id="357" depart="1241.00" departLane="top0A3_0" departPos="5.10" departSpeed="0.00" departDelay="3.00" arrival="1296.00" arrivalLane="A3left3_0" arrivalPos="286.40" arrivalSpeed="12.92" duration="55.00" routeLength="576.73" waitingTime="1.00" waitingCount="1" stopTime="0.00" timeLoss="10.65" rerouteNo="0" devices="tripinfo_357" vType="DEFAULT_VEHTYPE" speedFactor="0.96" vaporized=""/>
    <tripinfo id="365" depart="1254.00" departLane="left3A3_0" departPos="5.10" departSpeed="0.00" departDelay="0.00" arrival="1298.00" arrivalLane="A3top0_0" arrivalPos="286.40" arrivalSpeed="15.09" duration="44.00" routeLength="597.55" waitingTime="0.00" waitingCount="0" stopTime="0.00" timeLoss="5.03" rerouteNo="0" devices="tripinfo_365" vType="DEFAULT_VEHTYPE" speedFactor="1.13" vaporized=""/>
    <tripinfo id="371" depart="1267.00" departLane="bottom3D0_0" departPos="5.10" departSpeed="0.00" departDelay="2.00" arrival="1320.00" arrivalLane="D0right0_0" arrivalPos="286.40" arrivalSpeed="12.98" duration="53.00" routeLength="576.73" waitingTime="1.00" waitingCount="1" stopTime="0.00" timeLoss="11.40" rerouteNo="0" devices="tripinfo_371" vType="DEFAULT_VEHTYPE" speedFactor="1.02" vaporized=""/>
    <tripinfo id="353" depart="1234.00" departLane="right3D3_0" departPos="5.10" departSpeed="0.00" departDelay="0.00" arrival="1325.00" arrivalLane="D1right1_0" arrivalPos="286.40" arrivalSpeed="13.94" duration="91.00" routeLength="1197.66" waitingTime="0.00" waitingCount="0" stopTime="0.00" timeLoss="7.68" rerouteNo="0" devices="tripinfo_353" vType="DEFAULT_VEHTYPE" speedFactor="1.06" vaporized=""/>
    <tripinfo id="376" depart="1277.00" departLane="left1A1_0" departPos="5.10" departSpeed="0.00" departDelay="0.00" arrival="1344.00" arrivalLane="A0left0_0" arrivalPos="286.40" arrivalSpeed="14.60" duration="67.00" routeLength="858.56" waitingTime="0.00" waitingCount="0" stopTime="0.00" timeLoss="8.93" rerouteNo="0" devices="tripinfo_376" vType="DEFAULT_VEHTYPE" speedFactor="1.10" vaporized=""/>
    <tripinfo id="381" depart="1282.00" departLane="right1D1_0" departPos="5.10" departSpeed="0.00" departDelay="0.00" arrival="1360.00" arrivalLane="D2right2_0" arrivalPos="286.40" arrivalSpeed="13.55" duration="78.00" routeLength="858.56" waitingTime="2.00" waitingCount="2" stopTime="0.00" timeLoss="17.40" rerouteNo="0" devices="tripinfo_381" vType="DEFAULT_VEHTYPE" speedFactor="1.05" vaporized=""/>
    <tripinfo id="385" depart="1297.00" departLane="left1A1_0" departPos="5.10" departSpeed="0.00" departDelay="0.00" arrival="1363.00" arrivalLane="A0bottom0_0" arrivalPos="286.40" arrivalSpeed="14.62" duration="66.00" routeLength="879.60" waitingTime="0.00" waitingCount="0" stopTime="0.00" timeLoss="7.64" rerouteNo="0" devices="tripinfo_385" vType="DEFAULT_VEHTYPE" speedFactor="1.11" vaporized=""/>
    <tripinfo id="392" depart="1308.00" departLane="right1D1_0" departPos="5.10" departSpeed="0.00" departDelay="1.00" arrival="1400.00" arrivalLane="D2right2_0" arrivalPos="286.40" arrivalSpeed="11.10" duration="92.00" routeLength="858.56" waitingTime="2.00" waitingCount="2" stopTime="0.00" timeLoss="19.59" rerouteNo="0" devices="tripinfo_392" vType="DEFAULT_VEHTYPE" speedFactor="0.87" vaporized=""/>
    <tripinfo id="421" depart="1368.00" departLane="top1B3_0" departPos="5.10" departSpeed="0.00" departDelay="0.00" arrival="1439.00" arrivalLane="A3top0_0" arrivalPos="286.40" arrivalSpeed="14.24" duration="71.00" routeLength="858.56" waitingTime="1.00" waitingCount="1" stopTime="0.00" timeLoss="12.85" rerouteNo="0" devices="tripinfo_421" vType="DEFAULT_VEHTYPE" speedFactor="1.08" vaporized=""/>
    <tripinfo id="431" depart="1388.00" departLane="right1D1_0" departPos="5.10" departSpeed="0.00" departDelay="0.00" arrival="1472.00" arrivalLane="D2right2_0" arrivalPos="286.40" arrivalSpeed="13.26" duration="84.00" routeLength="858.56" waitingTime="2.00" waitingCount="2" stopTime="0.00" timeLoss="19.64" rerouteNo="0" devices="tripinfo_431" vType="DEFAULT_VEHTYPE" speedFactor="0.98" vaporized=""/>
    <tripinfo id="408" depart="1341.00" departLane="right3D3_0" departPos="5.10" departSpeed="0.00" departDelay="0.00" arrival="1488.00" arrivalLane="D1right1_0" arrivalPos="286.40" arrivalSpeed="14.81" duration="147.00" routeLength="1197.66" waitingTime="56.00" waitingCount="1" stopTime="0.00" timeLoss="68.07" rerouteNo="0" devices="tripinfo_408" vType="DEFAULT_VEHTYPE" speedFactor="1.11" vaporized=""/>
    <tripinfo id="436" depart="1396.00" departLane="right3D3_0" departPos="5.10" departSpeed="0.00" departDelay="0.00" arrival="1493.00" arrivalLane="B3top1_0" arrivalPos="286.40" arrivalSpeed="13.43" duration="97.00" routeLength="1177.07" waitingTime="1.00" waitingCount="1" stopTime="0.00" timeLoss="12.70" rerouteNo="0" devices="tripinfo_436" vType="DEFAULT_VEHTYPE" speedFactor="1.01" vaporized=""/>
    <tripinfo id="469" depart="1461.00" departLane="bottom1B0_0" departPos="5.10" departSpeed="0.00" departDelay="0.00" arrival="1526.00" arrivalLane="C0bottom2_0" arrivalPos="286.40" arrivalSpeed="15.57" duration="65.00" routeLength="858.56" waitingTime="0.00" waitingCount="0" stopTime="0.00" timeLoss="10.12" rerouteNo="0" devices="tripinfo_469" vType="DEFAULT_VEHTYPE" speedFactor="1.16" vaporized=""/>
    <tripinfo id="476" depart="1472.00" departLane="bottom2C0_0" departPos="5.10" departSpeed="0.00" departDelay="0.00" arrival="1550.00" arrivalLane="D0bottom3_0" arrivalPos="286.40" arrivalSpeed="13.76" duration="78.00" routeLength="858.56" waitingTime="2.00" waitingCount="2" stopTime="0.00" timeLoss="19.43" rerouteNo="0" devices="tripinfo_476" vType="DEFAULT_VEHTYPE" speedFactor="1.08" vaporized=""/>
    <tripinfo id="475" depart="1469.00" departLane="top3D3_0" departPos="5.10" departSpeed="0.00" departDelay="0.00" arrival="1559.00" arrivalLane="C3top2_0" arrivalPos="286.40" arrivalSpeed="11.36" duration="90.00" routeLength="858.56" waitingTime="1.00" waitingCount="1" stopTime="0.00" timeLoss="14.41" rerouteNo="0" devices="tripinfo_475" vType="DEFAULT_VEHTYPE" speedFactor="0.84" vaporized=""/>
    <tripinfo id="486" depart="1494.00" departLane="bottom0A0_0" departPos="5.10" departSpeed="0.00" departDelay="0.00" arrival="1567.00" arrivalLane="B0bottom1_0" arrivalPos="286.40" arrivalSpeed="15.26" duration="73.00" routeLength="858.56" waitingTime="2.00" waitingCount="2" stopTime="0.00" timeLoss="19.09" rerouteNo="0" devices="tripinfo_486" vType="DEFAULT_VEHTYPE" speedFactor="1.18" vaporized=""/>
    <tripinfo id="478" depart="1477.00" departLane="top2C3_0" departPos="5.10" departSpeed="0.00" departDelay="1.00" arrival="1583.00" arrivalLane="B3top1_0" arrivalPos="286.40" arrivalSpeed="9.76" duration="106.00" routeLength="858.56" waitingTime="2.00" waitingCount="2" stopTime="0.00" timeLoss="17.94" rerouteNo="0" devices="tripinfo_478" vType="DEFAULT_VEHTYPE" speedFactor="0.72" vaporized=""/>
    <tripinfo id="519" depart="1545.00" departLane="left0A0_0" departPos="5.10" departSpeed="0.00" departDelay="0.00" arrival="1606.00" arrivalLane="A0bottom0_0" arrivalPos="286.40" arrivalSpeed="11.40" duration="61.00" routeLength="576.73" waitingTime="1.00" waitingCount="1" stopTime="0.00" timeLoss="10.75" rerouteNo="0" devices="tripinfo_519" vType="DEFAULT_VEHTYPE" speedFactor="0.85" vaporized=""/>
    <tripinfo id="508" depart="1529.00" departLane="right2D2_0" departPos="5.10" departSpeed="0.00" departDelay="2.00" arrival="1619.00" arrivalLane="D3right3_0" arrivalPos="286.40" arrivalSpeed="12.02" duration="90.00" routeLength="858.56" waitingTime="2.00" waitingCount="2" stopTime="0.00" timeLoss="18.59" rerouteNo="0" devices="tripinfo_508" vType="DEFAULT_VEHTYPE" speedFactor="0.89" vaporized=""/>
    <tripinfo id="523" depart="1549.00" departLane="bottom0A0_0" departPos="5.10" departSpeed="0.00" departDelay="0.00" arrival="1636.00" arrivalLane="B0bottom1_0" arrivalPos="286.40" arrivalSpeed="12.71" duration="87.00" routeLength="858.56" waitingTime="2.00" waitingCount="2" stopTime="0.00" timeLoss="19.17" rerouteNo="0" devices="tripinfo_523" vType="DEFAULT_VEHTYPE" speedFactor="0.94" vaporized=""/>
    <tripinfo id="525" depart="1550.00" departLane="bottom1B0_0" departPos="5.10" departSpeed="0.00" departDelay="0.00" arrival="1651.00" arrivalLane="D0bottom3_0" arrivalPos="286.40" arrivalSpeed="13.05" duration="101.00" routeLength="1161.43" waitingTime="1.00" waitingCount="1" stopTime="0.00" timeLoss="15.35" rerouteNo="0" devices="tripinfo_525" vType="DEFAULT_VEHTYPE" speedFactor="0.99" vaporized=""/>
    <tripinfo id="543" depart="1573.00" departLane="bottom0A0_0" departPos="5.10" departSpeed="0.00" departDelay="0.00" arrival="1665.00" arrivalLane="B0bottom1_0" arrivalPos="286.40" arrivalSpeed="10.93" duration="92.00" routeLength="858.56" waitingTime="2.00" waitingCount="2" stopTime="0.00" timeLoss="17.15" rerouteNo="0" devices="tripinfo_543" vType="DEFAULT_VEHTYPE" speedFactor="0.85" vaporized=""/>
    <tripinfo id="596" depart="1643.00" departLane="left3A3_0" departPos="5.10" departSpeed="0.00" departDelay="0.00" arrival="1700.00" arrivalLane="A3top0_0" arrivalPos="286.40" arrivalSpeed="11.35" duration="57.00" routeLength="597.55" waitingTime="0.00" waitingCount="0" stopTime="0.00" timeLoss="5.24" rerouteNo="0" devices="tripinfo_596" vType="DEFAULT_VEHTYPE" speedFactor="0.84" vaporized=""/>
    <tripinfo id="603" depart="1656.00" departLane="left3A3_0" departPos="5.10" departSpeed="0.00" departDelay="0.00" arrival="1704.00" arrivalLane="A3top0_0" arrivalPos="286.40" arrivalSpeed="14.34" duration="48.00" routeLength="597.55" waitingTime="0.00" waitingCount="0" stopTime="0.00" timeLoss="5.83" rerouteNo="0" devices="tripinfo_603" vType="DEFAULT_VEHTYPE" speedFactor="1.03" vaporized=""/>
    <tripinfo id="582" depart="1628.00" departLane="top2C3_0" departPos="5.10" departSpeed="0.00" departDelay="0.00" arrival="1710.00" arrivalLane="B3top1_0" arrivalPos="286.40" arrivalSpeed="12.38" duration="82.00" routeLength="858.56" waitingTime="2.00" waitingCount="2" stopTime="0.00" timeLoss="17.33" rerouteNo="0" devices="tripinfo_582" vType="DEFAULT_VEHTYPE" speedFactor="0.98" vaporized=""/>
    <tripinfo id="586" depart="1634.00" departLane="right3D3_0" departPos="5.10" departSpeed="0.00" departDelay="0.00" arrival="1711.00" arrivalLane="D2right2_0" arrivalPos="286.40" arrivalSpeed="12.88" duration="77.00" routeLength="894.86" waitingTime="0.00" waitingCount="0" stopTime="0.00" timeLoss="7.44" rerouteNo="0" devices="tripinfo_586" vType="DEFAULT_VEHTYPE" speedFactor="0.95" vaporized=""/>
    <tripinfo id="622" depart="1676.00" departLane="left0A0_0" departPos="5.10" departSpeed="0.00" departDelay="0.00" arrival="1733.00" arrivalLane="A0bottom0_0" arrivalPos="286.40" arrivalSpeed="11.60" duration="57.00" routeLength="576.73" waitingTime="1.00" waitingCount="1" stopTime="0.00" timeLoss="10.31" rerouteNo="0" devices="tripinfo_622" vType="DEFAULT_VEHTYPE" speedFactor="0.91" vaporized=""/>
    <tripinfo id="621" depart="1675.00" departLane="top0A3_0" departPos="5.10" departSpeed="0.00" departDelay="0.00" arrival="1738.00" arrivalLane="A3left3_0" arrivalPos="286.40" arrivalSpeed="11.15" duration="63.00" routeLength="576.73" waitingTime="1.00" waitingCount="1" stopTime="0.00" timeLoss="10.78" rerouteNo="0" devices="tripinfo_621" vType="DEFAULT_VEHTYPE" speedFactor="0.82" vaporized=""/>
    <tripinfo id="606" depart="1661.00" departLane="left3A3_0" departPos="5.10" departSpeed="0.00" departDelay="0.00" arrival="1741.00" arrivalLane="A2left2_0" arrivalPos="286.40" arrivalSpeed="14.04" duration="80.00" routeLength="858.56" waitingTime="2.00" waitingCount="2" stopTime="0.00" timeLoss="20.42" rerouteNo="0" devices="tripinfo_606" vType="DEFAULT_VEHTYPE" speedFactor="1.06" vaporized=""/>
    <tripinfo id="640" depart="1703.00" departLane="left0A0_0" departPos="5.10" departSpeed="0.00" departDelay="0.00" arrival="1752.00" arrivalLane="A0bottom0_0" arrivalPos="286.40" arrivalSpeed="16.23" duration="49.00" routeLength="576.73" waitingTime="1.00" waitingCount="1" stopTime="0.00" timeLoss="13.65" rerouteNo="0" devices="tripinfo_640" vType="DEFAULT_VEHTYPE" speedFactor="1.21" vaporized=""/>
    <tripinfo id="282" depart="1079.00" departLane="bottom1B0_0" departPos="5.10" departSpeed="0.00" departDelay="0.00" arrival="1770.00" arrivalLane="A0bottom0_0" arrivalPos="286.40" arrivalSpeed="13.37" duration="691.00" routeLength="894.86" waitingTime="608.00" waitingCount="2" stopTime="0.00" timeLoss="624.13" rerouteNo="0" devices="tripinfo_282" vType="DEFAULT_VEHTYPE" speedFactor="0.98" vaporized=""/>