<?xml version="1.0" encoding="UTF-8"?>

<!-- generated on 2023-08-30 13:40:19 by Eclipse SUMO libsumo Version 1.18.0
<configuration xmlns:xsi="http://www.w3.org/2001/XMLSchema-instance" xsi:noNamespaceSchemaLocation="http://sumo.dlr.de/xsd/libsumoConfiguration.xsd">

    <input>
        <net-file value="/home/stefan/RESCO/./environments/grid4x4/grid4x4.net.xml"/>
        <route-files value="/home/stefan/RESCO/./environments/grid4x4/grid4x4_71.rou.xml"/>
    </input>

    <output>
        <tripinfo-output value="/home/stefan/results/RAINBOW-tr0-grid4x4-0-drq_norm-wait_norm/tripinfo_71.xml"/>
        <tripinfo-output.write-unfinished value="true"/>
    </output>

    <processing>
        <time-to-teleport value="-1"/>
    </processing>

    <report>
        <no-warnings value="True"/>
        <no-step-log value="True"/>
    </report>

    <random_number>
        <random value="true"/>
    </random_number>

</configuration>
-->

<tripinfos xmlns:xsi="http://www.w3.org/2001/XMLSchema-instance" xsi:noNamespaceSchemaLocation="http://sumo.dlr.de/xsd/tripinfo_file.xsd">
    <tripinfo id="0" depart="6.00" departLane="top1B3_0" departPos="5.10" departSpeed="0.00" departDelay="0.00" arrival="72.00" arrivalLane="A3top0_0" arrivalPos="286.40" arrivalSpeed="15.91" duration="66.00" routeLength="858.56" waitingTime="0.00" waitingCount="0" stopTime="0.00" timeLoss="10.91" rerouteNo="0" devices="tripinfo_0" vType="DEFAULT_VEHTYPE" speedFactor="1.15" vaporized=""/>
    <tripinfo id="3" depart="20.00" departLane="right0D0_0" departPos="5.10" departSpeed="0.00" departDelay="0.00" arrival="119.00" arrivalLane="D2right2_0" arrivalPos="286.40" arrivalSpeed="13.95" duration="99.00" routeLength="1161.43" waitingTime="1.00" waitingCount="1" stopTime="0.00" timeLoss="15.35" rerouteNo="0" devices="tripinfo_3" vType="DEFAULT_VEHTYPE" speedFactor="1.02" vaporized=""/>
    <tripinfo id="19" depart="79.00" departLane="bottom2C0_0" departPos="5.10" departSpeed="0.00" departDelay="0.00" arrival="164.00" arrivalLane="D0bottom3_0" arrivalPos="286.40" arrivalSpeed="10.85" duration="85.00" routeLength="858.56" waitingTime="0.00" waitingCount="0" stopTime="0.00" timeLoss="10.62" rerouteNo="0" devices="tripinfo_19" vType="DEFAULT_VEHTYPE" speedFactor="0.85" vaporized=""/>
    <tripinfo id="26" depart="116.00" departLane="bottom3D0_0" departPos="5.10" departSpeed="0.00" departDelay="0.00" arrival="172.00" arrivalLane="D0right0_0" arrivalPos="286.40" arrivalSpeed="12.66" duration="56.00" routeLength="576.73" waitingTime="1.00" waitingCount="1" stopTime="0.00" timeLoss="10.04" rerouteNo="0" devices="tripinfo_26" vType="DEFAULT_VEHTYPE" speedFactor="0.91" vaporized=""/>
    <tripinfo id="14" depart="69.00" departLane="top2C3_0" departPos="5.10" departSpeed="0.00" departDelay="0.00" arrival="180.00" arrivalLane="D3top3_0" arrivalPos="286.40" arrivalSpeed="13.44" duration="111.00" routeLength="894.86" waitingTime="32.00" waitingCount="1" stopTime="0.00" timeLoss="44.48" rerouteNo="0" devices="tripinfo_14" vType="DEFAULT_VEHTYPE" speedFactor="0.98" vaporized=""/>
    <tripinfo id="13" depart="68.00" departLane="bottom2C0_0" departPos="5.10" departSpeed="0.00" departDelay="0.00" arrival="270.00" arrivalLane="C0bottom2_0" arrivalPos="286.40" arrivalSpeed="13.47" duration="202.00" routeLength="1748.75" waitingTime="43.00" waitingCount="4" stopTime="0.00" timeLoss="71.95" rerouteNo="0" devices="tripinfo_13" vType="DEFAULT_VEHTYPE" speedFactor="0.99" vaporized=""/>
    <tripinfo id="36" depart="176.00" departLane="right1D1_0" departPos="5.10" departSpeed="0.00" departDelay="0.00" arrival="279.00" arrivalLane="D3right3_0" arrivalPos="286.40" arrivalSpeed="14.10" duration="103.00" routeLength="1161.43" waitingTime="2.00" waitingCount="2" stopTime="0.00" timeLoss="19.13" rerouteNo="0" devices="tripinfo_36" vType="DEFAULT_VEHTYPE" speedFactor="1.02" vaporized=""/>
    <tripinfo id="40" depart="201.00" departLane="bottom0A0_0" departPos="5.10" departSpeed="0.00" departDelay="2.00" arrival="285.00" arrivalLane="B0bottom1_0" arrivalPos="286.40" arrivalSpeed="12.35" duration="84.00" routeLength="858.56" waitingTime="1.00" waitingCount="1" stopTime="0.00" timeLoss="14.13" rerouteNo="0" devices="tripinfo_40" vType="DEFAULT_VEHTYPE" speedFactor="0.91" vaporized=""/>
    <tripinfo id="20" depart="83.00" departLane="bottom0A0_0" departPos="5.10" departSpeed="0.00" departDelay="0.00" arrival="315.00" arrivalLane="C0bottom2_0" arrivalPos="286.40" arrivalSpeed="11.36" duration="232.00" routeLength="1161.43" waitingTime="111.00" waitingCount="3" stopTime="0.00" timeLoss="132.00" rerouteNo="0" devices="tripinfo_20" vType="DEFAULT_VEHTYPE" speedFactor="0.85" vaporized=""/>
    <tripinfo id="47" depart="235.00" departLane="top1B3_0" departPos="5.10" departSpeed="0.00" departDelay="0.00" arrival="317.00" arrivalLane="A3left3_0" arrivalPos="286.40" arrivalSpeed="10.75" duration="82.00" routeLength="879.60" waitingTime="0.00" waitingCount="0" stopTime="0.00" timeLoss="7.52" rerouteNo="0" devices="tripinfo_47" vType="DEFAULT_VEHTYPE" speedFactor="0.86" vaporized=""/>
    <tripinfo id="51" depart="266.00" departLane="left1A1_0" departPos="5.10" departSpeed="0.00" departDelay="0.00" arrival="346.00" arrivalLane="A0bottom0_0" arrivalPos="286.40" arrivalSpeed="11.84" duration="80.00" routeLength="879.60" waitingTime="1.00" waitingCount="1" stopTime="0.00" timeLoss="11.22" rerouteNo="0" devices="tripinfo_51" vType="DEFAULT_VEHTYPE" speedFactor="0.93" vaporized=""/>
    <tripinfo id="12" depart="68.00" departLane="top0A3_0" departPos="5.10" departSpeed="0.00" departDelay="0.00" arrival="368.00" arrivalLane="A1left1_0" arrivalPos="286.40" arrivalSpeed="12.97" duration="300.00" routeLength="1177.07" waitingTime="196.00" waitingCount="1" stopTime="0.00" timeLoss="211.13" rerouteNo="0" devices="tripinfo_12" vType="DEFAULT_VEHTYPE" speedFactor="0.96" vaporized=""/>
    <tripinfo id="5" depart="48.00" departLane="right3D3_0" departPos="5.10" departSpeed="0.00" departDelay="0.00" arrival="379.00" arrivalLane="D3right3_0" arrivalPos="286.40" arrivalSpeed="14.04" duration="331.00" routeLength="1745.91" waitingTime="176.00" waitingCount="4" stopTime="0.00" timeLoss="206.65" rerouteNo="0" devices="tripinfo_5" vType="DEFAULT_VEHTYPE" speedFactor="1.03" vaporized=""/>
    <tripinfo id="6" depart="49.00" departLane="top2C3_0" departPos="5.10" departSpeed="0.00" departDelay="0.00" arrival="387.00" arrivalLane="C3top2_0" arrivalPos="286.40" arrivalSpeed="15.10" duration="338.00" routeLength="1748.75" waitingTime="192.00" waitingCount="4" stopTime="0.00" timeLoss="222.43" rerouteNo="0" devices="tripinfo_6" vType="DEFAULT_VEHTYPE" speedFactor="1.11" vaporized=""/>
    <tripinfo id="59" depart="320.00" departLane="top1B3_0" departPos="5.10" departSpeed="0.00" departDelay="0.00" arrival="396.00" arrivalLane="A3top0_0" arrivalPos="286.40" arrivalSpeed="13.62" duration="76.00" routeLength="858.56" waitingTime="1.00" waitingCount="1" stopTime="0.00" timeLoss="14.92" rerouteNo="0" devices="tripinfo_59" vType="DEFAULT_VEHTYPE" speedFactor="1.04" vaporized=""/>
    <tripinfo id="29" depart="148.00" departLane="left2A2_0" departPos="5.10" departSpeed="0.00" departDelay="0.00" arrival="401.00" arrivalLane="A3top0_0" arrivalPos="286.40" arrivalSpeed="12.45" duration="253.00" routeLength="895.01" waitingTime="165.00" waitingCount="2" stopTime="0.00" timeLoss="183.06" rerouteNo="0" devices="tripinfo_29" vType="DEFAULT_VEHTYPE" speedFactor="0.93" vaporized=""/>
    <tripinfo id="62" depart="336.00" departLane="bottom2C0_0" departPos="5.10" departSpeed="0.00" departDelay="0.00" arrival="406.00" arrivalLane="D0right0_0" arrivalPos="286.40" arrivalSpeed="13.53" duration="70.00" routeLength="879.60" waitingTime="0.00" waitingCount="0" stopTime="0.00" timeLoss="7.14" rerouteNo="0" devices="tripinfo_62" vType="DEFAULT_VEHTYPE" speedFactor="1.02" vaporized=""/>
    <tripinfo id="68" depart="363.00" departLane="left0A0_0" departPos="5.10" departSpeed="0.00" departDelay="0.00" arrival="425.00" arrivalLane="A0bottom0_0" arrivalPos="286.40" arrivalSpeed="9.60" duration="62.00" routeLength="576.73" waitingTime="0.00" waitingCount="0" stopTime="0.00" timeLoss="6.84" rerouteNo="0" devices="tripinfo_68" vType="DEFAULT_VEHTYPE" speedFactor="0.77" vaporized=""/>
    <tripinfo id="41" depart="204.00" departLane="bottom0A0_0" departPos="5.10" departSpeed="0.00" departDelay="4.00" arrival="456.00" arrivalLane="A2left2_0" arrivalPos="286.40" arrivalSpeed="16.42" duration="252.00" routeLength="1197.89" waitingTime="149.00" waitingCount="2" stopTime="0.00" timeLoss="179.41" rerouteNo="0" devices="tripinfo_41" vType="DEFAULT_VEHTYPE" speedFactor="1.20" vaporized=""/>
    <tripinfo id="30" depart="150.00" departLane="top1B3_0" departPos="5.10" departSpeed="0.00" departDelay="0.00" arrival="464.00" arrivalLane="C0bottom2_0" arrivalPos="286.40" arrivalSpeed="13.01" duration="314.00" routeLength="1782.59" waitingTime="154.00" waitingCount="2" stopTime="0.00" timeLoss="178.14" rerouteNo="0" devices="tripinfo_30" vType="DEFAULT_VEHTYPE" speedFactor="0.96" vaporized=""/>
    <tripinfo id="37" depart="182.00" departLane="top3D3_0" departPos="5.10" departSpeed="0.00" departDelay="0.00" arrival="475.00" arrivalLane="B3top1_0" arrivalPos="286.40" arrivalSpeed="12.09" duration="293.00" routeLength="1161.43" waitingTime="174.00" waitingCount="3" stopTime="0.00" timeLoss="195.83" rerouteNo="0" devices="tripinfo_37" vType="DEFAULT_VEHTYPE" speedFactor="0.88" vaporized=""/>
    <tripinfo id="2" depart="11.00" departLane="left1A1_0" departPos="5.10" departSpeed="0.00" departDelay="0.00" arrival="489.00" arrivalLane="A3left3_0" arrivalPos="286.40" arrivalSpeed="14.45" duration="478.00" routeLength="1197.66" waitingTime="377.00" waitingCount="2" stopTime="0.00" timeLoss="396.57" rerouteNo="0" devices="tripinfo_2" vType="DEFAULT_VEHTYPE" speedFactor="1.07" vaporized=""/>
    <tripinfo id="79" depart="392.00" departLane="left3A3_0" departPos="5.10" departSpeed="0.00" departDelay="0.00" arrival="489.00" arrivalLane="A1left1_0" arrivalPos="286.40" arrivalSpeed="13.68" duration="97.00" routeLength="1161.43" waitingTime="1.00" waitingCount="1" stopTime="0.00" timeLoss="17.06" rerouteNo="0" devices="tripinfo_79" vType="DEFAULT_VEHTYPE" speedFactor="1.07" vaporized=""/>
    <tripinfo id="32" depart="154.00" departLane="right2D2_0" departPos="5.10" departSpeed="0.00" departDelay="0.00" arrival="494.00" arrivalLane="C3top2_0" arrivalPos="286.40" arrivalSpeed="12.64" duration="340.00" routeLength="1179.77" waitingTime="233.00" waitingCount="2" stopTime="0.00" timeLoss="252.67" rerouteNo="0" devices="tripinfo_32" vType="DEFAULT_VEHTYPE" speedFactor="0.98" vaporized=""/>
    <tripinfo id="11" depart="65.00" departLane="bottom0A0_0" departPos="5.10" departSpeed="0.00" departDelay="0.00" arrival="495.00" arrivalLane="A3left3_0" arrivalPos="286.40" arrivalSpeed="13.39" duration="430.00" routeLength="1498.06" waitingTime="294.00" waitingCount="3" stopTime="0.00" timeLoss="318.25" rerouteNo="0" devices="tripinfo_11" vType="DEFAULT_VEHTYPE" speedFactor="0.97" vaporized=""/>
    <tripinfo id="24" depart="103.00" departLane="left1A1_0" departPos="5.10" departSpeed="0.00" departDelay="0.00" arrival="496.00" arrivalLane="D0right0_0" arrivalPos="286.40" arrivalSpeed="11.91" duration="393.00" routeLength="1782.72" waitingTime="226.00" waitingCount="3" stopTime="0.00" timeLoss="251.38" rerouteNo="0" devices="tripinfo_24" vType="DEFAULT_VEHTYPE" speedFactor="0.92" vaporized=""/>
    <tripinfo id="58" depart="309.00" departLane="bottom1B0_0" departPos="5.10" departSpeed="0.00" departDelay="0.00" arrival="497.00" arrivalLane="D0right0_0" arrivalPos="286.40" arrivalSpeed="12.67" duration="188.00" routeLength="1179.77" waitingTime="77.00" waitingCount="2" stopTime="0.00" timeLoss="95.59" rerouteNo="0" devices="tripinfo_58" vType="DEFAULT_VEHTYPE" speedFactor="0.93" vaporized=""/>
    <tripinfo id="86" depart="412.00" departLane="left3A3_0" departPos="5.10" departSpeed="0.00" departDelay="0.00" arrival="506.00" arrivalLane="A2left2_0" arrivalPos="286.40" arrivalSpeed="9.79" duration="94.00" routeLength="858.56" waitingTime="1.00" waitingCount="1" stopTime="0.00" timeLoss="12.02" rerouteNo="0" devices="tripinfo_86" vType="DEFAULT_VEHTYPE" speedFactor="0.78" vaporized=""/>
    <tripinfo id="91" depart="431.00" departLane="top3D3_0" departPos="5.10" departSpeed="0.00" departDelay="0.00" arrival="516.00" arrivalLane="C3top2_0" arrivalPos="286.40" arrivalSpeed="11.91" duration="85.00" routeLength="858.56" waitingTime="2.00" waitingCount="2" stopTime="0.00" timeLoss="17.13" rerouteNo="0" devices="tripinfo_91" vType="DEFAULT_VEHTYPE" speedFactor="0.93" vaporized=""/>
    <tripinfo id="96" depart="442.00" departLane="top0A3_0" departPos="5.10" departSpeed="0.00" departDelay="0.00" arrival="529.00" arrivalLane="A2left2_0" arrivalPos="286.40" arrivalSpeed="12.15" duration="87.00" routeLength="876.90" waitingTime="1.00" waitingCount="1" stopTime="0.00" timeLoss="13.81" rerouteNo="0" devices="tripinfo_96" vType="DEFAULT_VEHTYPE" speedFactor="0.88" vaporized=""/>
    <tripinfo id="54" depart="285.00" departLane="right3D3_0" departPos="5.10" departSpeed="0.00" departDelay="0.00" arrival="562.00" arrivalLane="A3top0_0" arrivalPos="286.40" arrivalSpeed="12.42" duration="277.00" routeLength="1477.24" waitingTime="133.00" waitingCount="3" stopTime="0.00" timeLoss="161.64" rerouteNo="0" devices="tripinfo_54" vType="DEFAULT_VEHTYPE" speedFactor="0.93" vaporized=""/>
    <tripinfo id="111" depart="485.00" departLane="left3A3_0" departPos="5.10" departSpeed="0.00" departDelay="0.00" arrival="562.00" arrivalLane="A2left2_0" arrivalPos="286.40" arrivalSpeed="13.72" duration="77.00" routeLength="858.56" waitingTime="0.00" waitingCount="0" stopTime="0.00" timeLoss="13.06" rerouteNo="0" devices="tripinfo_111" vType="DEFAULT_VEHTYPE" speedFactor="1.00" vaporized=""/>
    <tripinfo id="67" depart="363.00" departLane="top2C3_0" departPos="5.10" departSpeed="0.00" departDelay="0.00" arrival="571.00" arrivalLane="C3top2_0" arrivalPos="286.40" arrivalSpeed="11.93" duration="208.00" routeLength="1748.75" waitingTime="44.00" waitingCount="4" stopTime="0.00" timeLoss="71.62" rerouteNo="0" devices="tripinfo_67" vType="DEFAULT_VEHTYPE" speedFactor="0.94" vaporized=""/>
    <tripinfo id="95" depart="439.00" departLane="top3D3_0" departPos="5.10" departSpeed="0.00" departDelay="0.00" arrival="571.00" arrivalLane="D3right3_0" arrivalPos="286.40" arrivalSpeed="12.73" duration="132.00" routeLength="597.55" waitingTime="75.00" waitingCount="1" stopTime="0.00" timeLoss="85.10" rerouteNo="0" devices="tripinfo_95" vType="DEFAULT_VEHTYPE" speedFactor="0.94" vaporized=""/>
    <tripinfo id="124" depart="531.00" departLane="left0A0_0" departPos="5.10" departSpeed="0.00" departDelay="0.00" arrival="576.00" arrivalLane="A0bottom0_0" arrivalPos="286.40" arrivalSpeed="14.44" duration="45.00" routeLength="576.73" waitingTime="0.00" waitingCount="0" stopTime="0.00" timeLoss="7.18" rerouteNo="0" devices="tripinfo_124" vType="DEFAULT_VEHTYPE" speedFactor="1.12" vaporized=""/>
    <tripinfo id="63" depart="342.00" departLane="bottom2C0_0" departPos="5.10" departSpeed="0.00" departDelay="0.00" arrival="580.00" arrivalLane="A1left1_0" arrivalPos="286.40" arrivalSpeed="12.30" duration="238.00" routeLength="1495.35" waitingTime="109.00" waitingCount="1" stopTime="0.00" timeLoss="125.90" rerouteNo="0" devices="tripinfo_63" vType="DEFAULT_VEHTYPE" speedFactor="0.97" vaporized=""/>
    <tripinfo id="39" depart="198.00" departLane="bottom0A0_0" departPos="5.10" departSpeed="0.00" departDelay="0.00" arrival="582.00" arrivalLane="D1right1_0" arrivalPos="286.40" arrivalSpeed="12.80" duration="384.00" routeLength="1780.11" waitingTime="225.00" waitingCount="3" stopTime="0.00" timeLoss="254.66" rerouteNo="0" devices="tripinfo_39" vType="DEFAULT_VEHTYPE" speedFactor="1.00" vaporized=""/>
    <tripinfo id="85" depart="411.00" departLane="top2C3_0" departPos="5.10" departSpeed="0.00" departDelay="0.00" arrival="601.00" arrivalLane="A3left3_1" arrivalPos="286.40" arrivalSpeed="14.27" duration="190.00" routeLength="1179.77" waitingTime="83.00" waitingCount="2" stopTime="0.00" timeLoss="107.28" rerouteNo="0" devices="tripinfo_85" vType="DEFAULT_VEHTYPE" speedFactor="1.05" vaporized=""/>
    <tripinfo id="10" depart="60.00" departLane="top3D3_0" departPos="5.10" departSpeed="0.00" departDelay="0.00" arrival="604.00" arrivalLane="A3left3_0" arrivalPos="286.40" arrivalSpeed="10.85" duration="544.00" routeLength="1479.94" waitingTime="390.00" waitingCount="4" stopTime="0.00" timeLoss="418.39" rerouteNo="0" devices="tripinfo_10" vType="DEFAULT_VEHTYPE" speedFactor="0.86" vaporized=""/>
    <tripinfo id="38" depart="197.00" departLane="bottom1B0_0" departPos="5.10" departSpeed="0.00" departDelay="0.00" arrival="637.00" arrivalLane="A3top0_0" arrivalPos="286.40" arrivalSpeed="14.36" duration="440.00" routeLength="1782.59" waitingTime="294.00" waitingCount="3" stopTime="0.00" timeLoss="319.62" rerouteNo="0" devices="tripinfo_38" vType="DEFAULT_VEHTYPE" speedFactor="1.07" vaporized=""/>
    <tripinfo id="98" depart="450.00" departLane="bottom2C0_0" departPos="5.10" departSpeed="0.00" departDelay="0.00" arrival="638.00" arrivalLane="A3top0_1" arrivalPos="286.40" arrivalSpeed="15.52" duration="188.00" routeLength="2080.05" waitingTime="29.00" waitingCount="3" stopTime="0.00" timeLoss="57.53" rerouteNo="0" devices="tripinfo_98" vType="DEFAULT_VEHTYPE" speedFactor="1.16" vaporized=""/>
    <tripinfo id="93" depart="434.00" departLane="right1D1_0" departPos="5.10" departSpeed="0.00" departDelay="0.00" arrival="641.00" arrivalLane="D1right1_0" arrivalPos="286.40" arrivalSpeed="13.07" duration="207.00" routeLength="1748.75" waitingTime="38.00" waitingCount="5" stopTime="0.00" timeLoss="73.46" rerouteNo="0" devices="tripinfo_93" vType="DEFAULT_VEHTYPE" speedFactor="0.96" vaporized=""/>
    <tripinfo id="113" depart="487.00" departLane="top2C3_0" departPos="5.10" departSpeed="0.00" departDelay="0.00" arrival="689.00" arrivalLane="A3left3_0" arrivalPos="286.40" arrivalSpeed="8.62" duration="202.00" routeLength="1179.77" waitingTime="60.00" waitingCount="2" stopTime="0.00" timeLoss="79.90" rerouteNo="0" devices="tripinfo_113" vType="DEFAULT_VEHTYPE" speedFactor="0.70" vaporized=""/>
    <tripinfo id="42" depart="212.00" departLane="top1B3_0" departPos="5.10" departSpeed="0.00" departDelay="0.00" arrival="697.00" arrivalLane="A2left2_0" arrivalPos="286.40" arrivalSpeed="15.56" duration="485.00" routeLength="1179.77" waitingTime="391.00" waitingCount="2" stopTime="0.00" timeLoss="408.29" rerouteNo="0" devices="tripinfo_42" vType="DEFAULT_VEHTYPE" speedFactor="1.12" vaporized=""/>
    <tripinfo id="8" depart="52.00" departLane="right1D1_0" departPos="5.10" departSpeed="0.00" departDelay="0.00" arrival="710.00" arrivalLane="A1left1_0" arrivalPos="286.40" arrivalSpeed="12.76" duration="658.00" routeLength="1495.58" waitingTime="518.00" waitingCount="4" stopTime="0.00" timeLoss="548.35" rerouteNo="0" devices="tripinfo_8" vType="DEFAULT_VEHTYPE" speedFactor="0.99" vaporized=""/>
    <tripinfo id="70" depart="365.00" departLane="top0A3_0" departPos="5.10" departSpeed="0.00" departDelay="0.00" arrival="712.00" arrivalLane="B0bottom1_0" arrivalPos="286.40" arrivalSpeed="11.28" duration="347.00" routeLength="1782.59" waitingTime="181.00" waitingCount="1" stopTime="0.00" timeLoss="202.56" rerouteNo="0" devices="tripinfo_70" vType="DEFAULT_VEHTYPE" speedFactor="0.90" vaporized=""/>
    <tripinfo id="82" depart="406.00" departLane="right2D2_0" departPos="5.10" departSpeed="0.00" departDelay="0.00" arrival="750.00" arrivalLane="C3top2_0" arrivalPos="286.40" arrivalSpeed="12.57" duration="344.00" routeLength="1179.77" waitingTime="229.00" waitingCount="3" stopTime="0.00" timeLoss="250.49" rerouteNo="0" devices="tripinfo_82" vType="DEFAULT_VEHTYPE" speedFactor="0.92" vaporized=""/>
    <tripinfo id="122" depart="527.00" departLane="left1A1_0" departPos="5.10" departSpeed="0.00" departDelay="0.00" arrival="760.00" arrivalLane="A0bottom0_0" arrivalPos="286.40" arrivalSpeed="13.02" duration="233.00" routeLength="879.60" waitingTime="151.00" waitingCount="2" stopTime="0.00" timeLoss="167.68" rerouteNo="0" devices="tripinfo_122" vType="DEFAULT_VEHTYPE" speedFactor="0.99" vaporized=""/>
    <tripinfo id="87" depart="415.00" departLane="top2C3_0" departPos="5.10" departSpeed="0.00" departDelay="0.00" arrival="770.00" arrivalLane="D3right3_0" arrivalPos="286.40" arrivalSpeed="13.37" duration="355.00" routeLength="895.01" waitingTime="272.00" waitingCount="2" stopTime="0.00" timeLoss="287.23" rerouteNo="0" devices="tripinfo_87" vType="DEFAULT_VEHTYPE" speedFactor="0.97" vaporized=""/>
    <tripinfo id="153" depart="669.00" departLane="top2C3_0" departPos="5.10" departSpeed="0.00" departDelay="0.00" arrival="771.00" arrivalLane="D3right3_1" arrivalPos="286.40" arrivalSpeed="13.61" duration="102.00" routeLength="895.01" waitingTime="27.00" waitingCount="1" stopTime="0.00" timeLoss="37.66" rerouteNo="0" devices="tripinfo_153" vType="DEFAULT_VEHTYPE" speedFactor="1.02" vaporized=""/>
    <tripinfo id="123" depart="530.00" departLane="bottom0A0_0" departPos="5.10" departSpeed="0.00" departDelay="0.00" arrival="789.00" arrivalLane="A0left0_0" arrivalPos="286.40" arrivalSpeed="13.32" duration="259.00" routeLength="597.55" waitingTime="205.00" waitingCount="1" stopTime="0.00" timeLoss="214.73" rerouteNo="0" devices="tripinfo_123" vType="DEFAULT_VEHTYPE" speedFactor="0.98" vaporized=""/>
    <tripinfo id="1" depart="7.00" departLane="bottom1B0_0" departPos="5.10" departSpeed="0.00" departDelay="0.00" arrival="790.00" arrivalLane="A2left2_0" arrivalPos="286.40" arrivalSpeed="13.17" duration="783.00" routeLength="1495.35" waitingTime="646.00" waitingCount="2" stopTime="0.00" timeLoss="671.31" rerouteNo="0" devices="tripinfo_1" vType="DEFAULT_VEHTYPE" speedFactor="0.97" vaporized=""/>
    <tripinfo id="33" depart="172.00" departLane="bottom1B0_0" departPos="5.10" departSpeed="0.00" departDelay="0.00" arrival="793.00" arrivalLane="A2left2_0" arrivalPos="286.40" arrivalSpeed="11.98" duration="621.00" routeLength="1495.35" waitingTime="479.00" waitingCount="2" stopTime="0.00" timeLoss="504.39" rerouteNo="0" devices="tripinfo_33" vType="DEFAULT_VEHTYPE" speedFactor="0.93" vaporized=""/>
    <tripinfo id="52" depart="270.00" departLane="left0A0_0" departPos="5.10" departSpeed="0.00" departDelay="0.00" arrival="802.00" arrivalLane="D1right1_0" arrivalPos="286.40" arrivalSpeed="13.27" duration="532.00" routeLength="1782.59" waitingTime="373.00" waitingCount="4" stopTime="0.00" timeLoss="401.39" rerouteNo="0" devices="tripinfo_52" vType="DEFAULT_VEHTYPE" speedFactor="0.99" vaporized=""/>
    <tripinfo id="17" depart="71.00" departLane="top1B3_0" departPos="5.10" departSpeed="0.00" departDelay="0.00" arrival="803.00" arrivalLane="D1right1_1" arrivalPos="286.40" arrivalSpeed="13.49" duration="732.00" routeLength="1795.52" waitingTime="579.00" waitingCount="3" stopTime="0.00" timeLoss="607.05" rerouteNo="0" devices="tripinfo_17" vType="DEFAULT_VEHTYPE" speedFactor="1.04" vaporized=""/>
    <tripinfo id="15" depart="70.00" departLane="right1D1_0" departPos="5.10" departSpeed="0.00" departDelay="0.00" arrival="822.00" arrivalLane="A3top0_0" arrivalPos="286.40" arrivalSpeed="11.95" duration="752.00" routeLength="2080.28" waitingTime="546.00" waitingCount="4" stopTime="0.00" timeLoss="583.02" rerouteNo="0" devices="tripinfo_15" vType="DEFAULT_VEHTYPE" speedFactor="0.89" vaporized=""/>
    <tripinfo id="139" depart="578.00" departLane="right3D3_0" departPos="5.10" departSpeed="0.00" departDelay="0.00" arrival="822.00" arrivalLane="D2right2_0" arrivalPos="286.40" arrivalSpeed="12.40" duration="244.00" routeLength="894.86" waitingTime="158.00" waitingCount="1" stopTime="0.00" timeLoss="170.56" rerouteNo="0" devices="tripinfo_139" vType="DEFAULT_VEHTYPE" speedFactor="0.90" vaporized=""/>
    <tripinfo id="159" depart="711.00" departLane="right3D3_0" departPos="5.10" departSpeed="0.00" departDelay="0.00" arrival="823.00" arrivalLane="D2right2_1" arrivalPos="286.40" arrivalSpeed="12.97" duration="112.00" routeLength="894.86" waitingTime="30.00" waitingCount="1" stopTime="0.00" timeLoss="43.31" rerouteNo="0" devices="tripinfo_159" vType="DEFAULT_VEHTYPE" speedFactor="0.96" vaporized=""/>
    <tripinfo id="31" depart="153.00" departLane="bottom3D0_0" departPos="5.10" departSpeed="0.00" departDelay="0.00" arrival="832.00" arrivalLane="D0bottom3_0" arrivalPos="286.40" arrivalSpeed="12.29" duration="679.00" routeLength="1745.91" waitingTime="504.00" waitingCount="4" stopTime="0.00" timeLoss="535.77" rerouteNo="0" devices="tripinfo_31" vType="DEFAULT_VEHTYPE" speedFactor="0.89" vaporized=""/>
    <tripinfo id="116" depart="498.00" departLane="right1D1_0" departPos="5.10" departSpeed="0.00" departDelay="0.00" arrival="837.00" arrivalLane="D0bottom3_0" arrivalPos="286.40" arrivalSpeed="10.18" duration="339.00" routeLength="895.01" waitingTime="241.00" waitingCount="2" stopTime="0.00" timeLoss="257.37" rerouteNo="0" devices="tripinfo_116" vType="DEFAULT_VEHTYPE" speedFactor="0.80" vaporized=""/>
    <tripinfo id="64" depart="343.00" departLane="right1D1_0" departPos="5.10" departSpeed="0.00" departDelay="0.00" arrival="838.00" arrivalLane="D3top3_0" arrivalPos="286.40" arrivalSpeed="9.37" duration="495.00" routeLength="1179.77" waitingTime="362.00" waitingCount="2" stopTime="0.00" timeLoss="377.46" rerouteNo="0" devices="tripinfo_64" vType="DEFAULT_VEHTYPE" speedFactor="0.73" vaporized=""/>
    <tripinfo id="76" depart="389.00" departLane="left1A1_0" departPos="5.10" departSpeed="0.00" departDelay="0.00" arrival="843.00" arrivalLane="D0right0_0" arrivalPos="286.40" arrivalSpeed="11.03" duration="454.00" routeLength="1782.72" waitingTime="273.00" waitingCount="4" stopTime="0.00" timeLoss="303.00" rerouteNo="0" devices="tripinfo_76" vType="DEFAULT_VEHTYPE" speedFactor="0.86" vaporized=""/>
    <tripinfo id="165" depart="742.00" departLane="left3A3_0" departPos="5.10" departSpeed="0.00" departDelay="0.00" arrival="846.00" arrivalLane="A1left1_0" arrivalPos="286.40" arrivalSpeed="12.19" duration="104.00" routeLength="1161.43" waitingTime="1.00" waitingCount="1" stopTime="0.00" timeLoss="14.70" rerouteNo="0" devices="tripinfo_165" vType="DEFAULT_VEHTYPE" speedFactor="0.96" vaporized=""/>
    <tripinfo id="149" depart="645.00" departLane="bottom3D0_0" departPos="5.10" departSpeed="0.00" departDelay="0.00" arrival="857.00" arrivalLane="D1right1_0" arrivalPos="286.40" arrivalSpeed="13.86" duration="212.00" routeLength="876.90" waitingTime="135.00" waitingCount="2" stopTime="0.00" timeLoss="152.39" rerouteNo="0" devices="tripinfo_149" vType="DEFAULT_VEHTYPE" speedFactor="1.07" vaporized=""/>
    <tripinfo id="130" depart="539.00" departLane="bottom2C0_0" departPos="5.10" departSpeed="0.00" departDelay="0.00" arrival="863.00" arrivalLane="D2right2_0" arrivalPos="286.40" arrivalSpeed="11.10" duration="324.00" routeLength="1479.94" waitingTime="173.00" waitingCount="3" stopTime="0.00" timeLoss="199.70" rerouteNo="0" devices="tripinfo_130" vType="DEFAULT_VEHTYPE" speedFactor="0.87" vaporized=""/>
    <tripinfo id="177" depart="803.00" departLane="right1D1_0" departPos="5.10" departSpeed="0.00" departDelay="0.00" arrival="886.00" arrivalLane="D2right2_0" arrivalPos="286.40" arrivalSpeed="13.17" duration="83.00" routeLength="858.56" waitingTime="2.00" waitingCount="2" stopTime="0.00" timeLoss="18.45" rerouteNo="0" devices="tripinfo_177" vType="DEFAULT_VEHTYPE" speedFactor="0.98" vaporized=""/>
    <tripinfo id="21" depart="91.00" departLane="bottom2C0_0" departPos="5.10" departSpeed="0.00" departDelay="0.00" arrival="887.00" arrivalLane="B3top1_1" arrivalPos="286.40" arrivalSpeed="16.44" duration="796.00" routeLength="1782.59" waitingTime="665.00" waitingCount="3" stopTime="0.00" timeLoss="689.91" rerouteNo="0" devices="tripinfo_21" vType="DEFAULT_VEHTYPE" speedFactor="1.22" vaporized=""/>
    <tripinfo id="25" depart="116.00" departLane="right2D2_0" departPos="5.10" departSpeed="0.00" departDelay="0.00" arrival="888.00" arrivalLane="B3top1_0" arrivalPos="286.40" arrivalSpeed="13.73" duration="772.00" routeLength="1479.94" waitingTime="640.00" waitingCount="4" stopTime="0.00" timeLoss="670.46" rerouteNo="0" devices="tripinfo_25" vType="DEFAULT_VEHTYPE" speedFactor="1.06" vaporized=""/>
    <tripinfo id="50" depart="256.00" departLane="bottom2C0_0" departPos="5.10" departSpeed="0.00" departDelay="0.00" arrival="892.00" arrivalLane="B3top1_0" arrivalPos="286.40" arrivalSpeed="13.94" duration="636.00" routeLength="1782.59" waitingTime="486.00" waitingCount="3" stopTime="0.00" timeLoss="513.59" rerouteNo="0" devices="tripinfo_50" vType="DEFAULT_VEHTYPE" speedFactor="1.06" vaporized=""/>
    <tripinfo id="104" depart="467.00" departLane="bottom3D0_0" departPos="5.10" departSpeed="0.00" departDelay="0.00" arrival="901.00" arrivalLane="A0bottom0_0" arrivalPos="286.40" arrivalSpeed="12.11" duration="434.00" routeLength="1497.83" waitingTime="288.00" waitingCount="4" stopTime="0.00" timeLoss="316.09" rerouteNo="0" devices="tripinfo_104" vType="DEFAULT_VEHTYPE" speedFactor="0.93" vaporized=""/>
    <tripinfo id="185" depart="819.00" departLane="right1D1_0" departPos="5.10" departSpeed="0.00" departDelay="0.00" arrival="901.00" arrivalLane="D2right2_0" arrivalPos="286.40" arrivalSpeed="11.44" duration="82.00" routeLength="858.56" waitingTime="1.00" waitingCount="1" stopTime="0.00" timeLoss="13.12" rerouteNo="0" devices="tripinfo_185" vType="DEFAULT_VEHTYPE" speedFactor="0.91" vaporized=""/>