<?xml version="1.0" encoding="UTF-8"?>

<!-- generated on 2023-08-30 13:34:12 by Eclipse SUMO libsumo Version 1.18.0
<configuration xmlns:xsi="http://www.w3.org/2001/XMLSchema-instance" xsi:noNamespaceSchemaLocation="http://sumo.dlr.de/xsd/libsumoConfiguration.xsd">

    <input>
        <net-file value="/home/stefan/RESCO/./environments/grid4x4/grid4x4.net.xml"/>
        <route-files value="/home/stefan/RESCO/./environments/grid4x4/grid4x4_62.rou.xml"/>
    </input>

    <output>
        <tripinfo-output value="/home/stefan/results/RAINBOW-tr0-grid4x4-0-drq_norm-wait_norm/tripinfo_62.xml"/>
        <tripinfo-output.write-unfinished value="true"/>
    </output>

    <processing>
        <time-to-teleport value="-1"/>
    </processing>

    <report>
        <no-warnings value="True"/>
        <no-step-log value="True"/>
    </report>

    <random_number>
        <random value="true"/>
    </random_number>

</configuration>
-->

<tripinfos xmlns:xsi="http://www.w3.org/2001/XMLSchema-instance" xsi:noNamespaceSchemaLocation="http://sumo.dlr.de/xsd/tripinfo_file.xsd">
    <tripinfo id="4" depart="36.00" departLane="left3A3_0" departPos="5.10" departSpeed="0.00" departDelay="0.00" arrival="120.00" arrivalLane="A2left2_0" arrivalPos="286.40" arrivalSpeed="12.64" duration="84.00" routeLength="858.56" waitingTime="2.00" waitingCount="2" stopTime="0.00" timeLoss="20.10" rerouteNo="0" devices="tripinfo_4" vType="DEFAULT_VEHTYPE" speedFactor="0.99" vaporized=""/>
    <tripinfo id="12" depart="68.00" departLane="right0D0_0" departPos="5.10" departSpeed="0.00" departDelay="0.00" arrival="144.00" arrivalLane="D1right1_0" arrivalPos="286.40" arrivalSpeed="13.44" duration="76.00" routeLength="858.56" waitingTime="1.00" waitingCount="1" stopTime="0.00" timeLoss="13.97" rerouteNo="0" devices="tripinfo_12" vType="DEFAULT_VEHTYPE" speedFactor="1.02" vaporized=""/>
    <tripinfo id="20" depart="111.00" departLane="left3A3_0" departPos="5.10" departSpeed="0.00" departDelay="0.00" arrival="195.00" arrivalLane="A2left2_0" arrivalPos="286.40" arrivalSpeed="13.05" duration="84.00" routeLength="858.56" waitingTime="2.00" waitingCount="2" stopTime="0.00" timeLoss="17.79" rerouteNo="0" devices="tripinfo_20" vType="DEFAULT_VEHTYPE" speedFactor="0.96" vaporized=""/>
    <tripinfo id="26" depart="172.00" departLane="right1D1_0" departPos="5.10" departSpeed="0.00" departDelay="0.00" arrival="245.00" arrivalLane="D2right2_0" arrivalPos="286.40" arrivalSpeed="14.98" duration="73.00" routeLength="858.56" waitingTime="1.00" waitingCount="1" stopTime="0.00" timeLoss="14.53" rerouteNo="0" devices="tripinfo_26" vType="DEFAULT_VEHTYPE" speedFactor="1.10" vaporized=""/>
    <tripinfo id="14" depart="72.00" departLane="right3D3_0" departPos="5.10" departSpeed="0.00" departDelay="0.00" arrival="257.00" arrivalLane="B3top1_0" arrivalPos="286.40" arrivalSpeed="14.10" duration="185.00" routeLength="1177.07" waitingTime="85.00" waitingCount="2" stopTime="0.00" timeLoss="102.86" rerouteNo="0" devices="tripinfo_14" vType="DEFAULT_VEHTYPE" speedFactor="1.05" vaporized=""/>
    <tripinfo id="23" depart="152.00" departLane="bottom1B0_0" departPos="5.10" departSpeed="0.00" departDelay="0.00" arrival="286.00" arrivalLane="D0bottom3_0" arrivalPos="286.40" arrivalSpeed="14.87" duration="134.00" routeLength="1161.43" waitingTime="35.00" waitingCount="3" stopTime="0.00" timeLoss="59.75" rerouteNo="0" devices="tripinfo_23" vType="DEFAULT_VEHTYPE" speedFactor="1.15" vaporized=""/>
    <tripinfo id="24" depart="155.00" departLane="bottom1B0_0" departPos="5.10" departSpeed="0.00" departDelay="1.00" arrival="293.00" arrivalLane="A0bottom0_0" arrivalPos="286.40" arrivalSpeed="16.88" duration="138.00" routeLength="894.86" waitingTime="73.00" waitingCount="1" stopTime="0.00" timeLoss="86.42" rerouteNo="0" devices="tripinfo_24" vType="DEFAULT_VEHTYPE" speedFactor="1.29" vaporized=""/>
    <tripinfo id="17" depart="90.00" departLane="bottom1B0_0" departPos="5.10" departSpeed="0.00" departDelay="0.00" arrival="317.00" arrivalLane="D0right0_1" arrivalPos="286.40" arrivalSpeed="15.92" duration="227.00" routeLength="1179.77" waitingTime="124.00" waitingCount="3" stopTime="0.00" timeLoss="157.39" rerouteNo="0" devices="tripinfo_17" vType="DEFAULT_VEHTYPE" speedFactor="1.23" vaporized=""/>
    <tripinfo id="13" depart="70.00" departLane="bottom0A0_0" departPos="5.10" departSpeed="0.00" departDelay="0.00" arrival="319.00" arrivalLane="D0right0_0" arrivalPos="286.40" arrivalSpeed="13.66" duration="249.00" routeLength="1479.94" waitingTime="119.00" waitingCount="3" stopTime="0.00" timeLoss="143.38" rerouteNo="0" devices="tripinfo_13" vType="DEFAULT_VEHTYPE" speedFactor="1.02" vaporized=""/>
    <tripinfo id="38" depart="262.00" departLane="left0A0_0" departPos="5.10" departSpeed="0.00" departDelay="0.00" arrival="320.00" arrivalLane="A0bottom0_0" arrivalPos="286.40" arrivalSpeed="12.16" duration="58.00" routeLength="576.73" waitingTime="1.00" waitingCount="1" stopTime="0.00" timeLoss="11.30" rerouteNo="0" devices="tripinfo_38" vType="DEFAULT_VEHTYPE" speedFactor="0.91" vaporized=""/>
    <tripinfo id="21" depart="111.00" departLane="right0D0_0" departPos="5.10" departSpeed="0.00" departDelay="0.00" arrival="328.00" arrivalLane="A0bottom0_0" arrivalPos="286.40" arrivalSpeed="11.38" duration="217.00" routeLength="1498.06" waitingTime="82.00" waitingCount="1" stopTime="0.00" timeLoss="96.32" rerouteNo="0" devices="tripinfo_21" vType="DEFAULT_VEHTYPE" speedFactor="0.90" vaporized=""/>
    <tripinfo id="10" depart="58.00" departLane="bottom1B0_0" departPos="5.10" departSpeed="0.00" departDelay="0.00" arrival="410.00" arrivalLane="D2right2_0" arrivalPos="286.40" arrivalSpeed="13.00" duration="352.00" routeLength="1780.11" waitingTime="189.00" waitingCount="3" stopTime="0.00" timeLoss="214.81" rerouteNo="0" devices="tripinfo_10" vType="DEFAULT_VEHTYPE" speedFactor="0.94" vaporized=""/>
    <tripinfo id="15" depart="83.00" departLane="bottom3D0_0" departPos="5.10" departSpeed="0.00" departDelay="0.00" arrival="414.00" arrivalLane="D3right3_0" arrivalPos="286.40" arrivalSpeed="16.77" duration="331.00" routeLength="1477.24" waitingTime="219.00" waitingCount="2" stopTime="0.00" timeLoss="243.27" rerouteNo="0" devices="tripinfo_15" vType="DEFAULT_VEHTYPE" speedFactor="1.23" vaporized=""/>
    <tripinfo id="6" depart="44.00" departLane="top1B3_0" departPos="5.10" departSpeed="0.00" departDelay="0.00" arrival="417.00" arrivalLane="B0bottom1_0" arrivalPos="286.40" arrivalSpeed="14.51" duration="373.00" routeLength="1495.58" waitingTime="249.00" waitingCount="3" stopTime="0.00" timeLoss="276.13" rerouteNo="0" devices="tripinfo_6" vType="DEFAULT_VEHTYPE" speedFactor="1.12" vaporized=""/>
    <tripinfo id="31" depart="227.00" departLane="left1A1_0" departPos="5.10" departSpeed="0.00" departDelay="0.00" arrival="421.00" arrivalLane="A0bottom0_0" arrivalPos="286.40" arrivalSpeed="12.51" duration="194.00" routeLength="879.60" waitingTime="111.00" waitingCount="1" stopTime="0.00" timeLoss="123.81" rerouteNo="0" devices="tripinfo_31" vType="DEFAULT_VEHTYPE" speedFactor="0.91" vaporized=""/>
    <tripinfo id="37" depart="258.00" departLane="left1A1_0" departPos="5.10" departSpeed="0.00" departDelay="0.00" arrival="423.00" arrivalLane="B0bottom1_0" arrivalPos="286.40" arrivalSpeed="11.91" duration="165.00" routeLength="1179.77" waitingTime="55.00" waitingCount="2" stopTime="0.00" timeLoss="70.83" rerouteNo="0" devices="tripinfo_37" vType="DEFAULT_VEHTYPE" speedFactor="0.91" vaporized=""/>
    <tripinfo id="7" depart="50.00" departLane="right2D2_0" departPos="5.10" departSpeed="0.00" departDelay="0.00" arrival="429.00" arrivalLane="B3top1_0" arrivalPos="286.40" arrivalSpeed="12.82" duration="379.00" routeLength="1479.94" waitingTime="246.00" waitingCount="3" stopTime="0.00" timeLoss="271.82" rerouteNo="0" devices="tripinfo_7" vType="DEFAULT_VEHTYPE" speedFactor="1.00" vaporized=""/>
    <tripinfo id="8" depart="53.00" departLane="right0D0_0" departPos="5.10" departSpeed="0.00" departDelay="0.00" arrival="432.00" arrivalLane="B3top1_0" arrivalPos="286.40" arrivalSpeed="13.30" duration="379.00" routeLength="2080.28" waitingTime="186.00" waitingCount="5" stopTime="0.00" timeLoss="223.29" rerouteNo="0" devices="tripinfo_8" vType="DEFAULT_VEHTYPE" speedFactor="0.97" vaporized=""/>
    <tripinfo id="19" depart="105.00" departLane="top3D3_0" departPos="5.10" departSpeed="0.00" departDelay="0.00" arrival="437.00" arrivalLane="A3top0_0" arrivalPos="286.40" arrivalSpeed="15.32" duration="332.00" routeLength="1461.60" waitingTime="217.00" waitingCount="2" stopTime="0.00" timeLoss="239.22" rerouteNo="0" devices="tripinfo_19" vType="DEFAULT_VEHTYPE" speedFactor="1.16" vaporized=""/>
    <tripinfo id="27" depart="177.00" departLane="top1B3_0" departPos="5.10" departSpeed="0.00" departDelay="0.00" arrival="438.00" arrivalLane="A3left3_0" arrivalPos="286.40" arrivalSpeed="13.85" duration="261.00" routeLength="879.60" waitingTime="185.00" waitingCount="1" stopTime="0.00" timeLoss="199.16" rerouteNo="0" devices="tripinfo_27" vType="DEFAULT_VEHTYPE" speedFactor="1.03" vaporized=""/>
    <tripinfo id="56" depart="365.00" departLane="top2C3_0" departPos="5.10" departSpeed="0.00" departDelay="0.00" arrival="450.00" arrivalLane="B3top1_0" arrivalPos="286.40" arrivalSpeed="11.42" duration="85.00" routeLength="858.56" waitingTime="2.00" waitingCount="2" stopTime="0.00" timeLoss="15.22" rerouteNo="0" devices="tripinfo_56" vType="DEFAULT_VEHTYPE" speedFactor="0.91" vaporized=""/>
    <tripinfo id="11" depart="62.00" departLane="bottom0A0_0" departPos="5.10" departSpeed="0.00" departDelay="0.00" arrival="471.00" arrivalLane="D2right2_0" arrivalPos="286.40" arrivalSpeed="10.96" duration="409.00" routeLength="2080.28" waitingTime="199.00" waitingCount="2" stopTime="0.00" timeLoss="230.04" rerouteNo="0" devices="tripinfo_11" vType="DEFAULT_VEHTYPE" speedFactor="0.84" vaporized=""/>
    <tripinfo id="5" depart="37.00" departLane="left1A1_0" departPos="5.10" departSpeed="0.00" departDelay="0.00" arrival="472.00" arrivalLane="D0right0_0" arrivalPos="286.40" arrivalSpeed="13.83" duration="435.00" routeLength="1782.72" waitingTime="297.00" waitingCount="1" stopTime="0.00" timeLoss="311.61" rerouteNo="0" devices="tripinfo_5" vType="DEFAULT_VEHTYPE" speedFactor="1.05" vaporized=""/>
    <tripinfo id="0" depart="5.00" departLane="right2D2_0" departPos="5.10" departSpeed="0.00" departDelay="0.00" arrival="475.00" arrivalLane="A3top0_0" arrivalPos="286.40" arrivalSpeed="16.59" duration="470.00" routeLength="1780.11" waitingTime="331.00" waitingCount="4" stopTime="0.00" timeLoss="364.45" rerouteNo="0" devices="tripinfo_0" vType="DEFAULT_VEHTYPE" speedFactor="1.23" vaporized=""/>
    <tripinfo id="9" depart="55.00" departLane="left0A0_0" departPos="5.10" departSpeed="0.00" departDelay="0.00" arrival="475.00" arrivalLane="A2left2_0" arrivalPos="286.40" arrivalSpeed="10.43" duration="420.00" routeLength="1197.66" waitingTime="295.00" waitingCount="3" stopTime="0.00" timeLoss="314.41" rerouteNo="0" devices="tripinfo_9" vType="DEFAULT_VEHTYPE" speedFactor="0.83" vaporized=""/>
    <tripinfo id="42" depart="279.00" departLane="left1A1_0" departPos="5.10" departSpeed="0.00" departDelay="0.00" arrival="482.00" arrivalLane="A3top0_0" arrivalPos="286.40" arrivalSpeed="13.10" duration="203.00" routeLength="1195.18" waitingTime="94.00" waitingCount="2" stopTime="0.00" timeLoss="112.59" rerouteNo="0" devices="tripinfo_42" vType="DEFAULT_VEHTYPE" speedFactor="0.96" vaporized=""/>
    <tripinfo id="29" depart="203.00" departLane="top2C3_0" departPos="5.10" departSpeed="0.00" departDelay="0.00" arrival="483.00" arrivalLane="A2left2_0" arrivalPos="286.40" arrivalSpeed="11.55" duration="280.00" routeLength="1479.94" waitingTime="134.00" waitingCount="2" stopTime="0.00" timeLoss="152.64" rerouteNo="0" devices="tripinfo_29" vType="DEFAULT_VEHTYPE" speedFactor="0.85" vaporized=""/>
    <tripinfo id="54" depart="364.00" departLane="bottom0A0_0" departPos="5.10" departSpeed="0.00" departDelay="0.00" arrival="491.00" arrivalLane="C0bottom2_0" arrivalPos="286.40" arrivalSpeed="10.70" duration="127.00" routeLength="1161.43" waitingTime="8.00" waitingCount="2" stopTime="0.00" timeLoss="28.30" rerouteNo="0" devices="tripinfo_54" vType="DEFAULT_VEHTYPE" speedFactor="0.86" vaporized=""/>
    <tripinfo id="52" depart="347.00" departLane="bottom1B0_0" departPos="5.10" departSpeed="0.00" departDelay="0.00" arrival="537.00" arrivalLane="A0left0_0" arrivalPos="286.40" arrivalSpeed="11.58" duration="190.00" routeLength="895.01" waitingTime="106.00" waitingCount="1" stopTime="0.00" timeLoss="117.54" rerouteNo="0" devices="tripinfo_52" vType="DEFAULT_VEHTYPE" speedFactor="0.90" vaporized=""/>
    <tripinfo id="66" depart="419.00" departLane="right3D3_0" departPos="5.10" departSpeed="0.00" departDelay="0.00" arrival="590.00" arrivalLane="D2right2_0" arrivalPos="286.40" arrivalSpeed="12.68" duration="171.00" routeLength="894.86" waitingTime="90.00" waitingCount="2" stopTime="0.00" timeLoss="103.70" rerouteNo="0" devices="tripinfo_66" vType="DEFAULT_VEHTYPE" speedFactor="0.98" vaporized=""/>
    <tripinfo id="47" depart="305.00" departLane="bottom3D0_0" departPos="5.10" departSpeed="0.00" departDelay="0.00" arrival="596.00" arrivalLane="C0bottom2_0" arrivalPos="286.40" arrivalSpeed="10.56" duration="291.00" routeLength="894.86" waitingTime="191.00" waitingCount="2" stopTime="0.00" timeLoss="207.48" rerouteNo="0" devices="tripinfo_47" vType="DEFAULT_VEHTYPE" speedFactor="0.79" vaporized=""/>
    <tripinfo id="34" depart="243.00" departLane="top0A3_0" departPos="5.10" departSpeed="0.00" departDelay="0.00" arrival="598.00" arrivalLane="D2right2_0" arrivalPos="286.40" arrivalSpeed="14.48" duration="355.00" routeLength="1795.52" waitingTime="193.00" waitingCount="5" stopTime="0.00" timeLoss="231.77" rerouteNo="0" devices="tripinfo_34" vType="DEFAULT_VEHTYPE" speedFactor="1.06" vaporized=""/>
    <tripinfo id="25" depart="171.00" departLane="bottom3D0_0" departPos="5.10" departSpeed="0.00" departDelay="0.00" arrival="607.00" arrivalLane="B3top1_0" arrivalPos="286.40" arrivalSpeed="14.82" duration="436.00" routeLength="2080.05" waitingTime="263.00" waitingCount="4" stopTime="0.00" timeLoss="296.07" rerouteNo="0" devices="tripinfo_25" vType="DEFAULT_VEHTYPE" speedFactor="1.08" vaporized=""/>
    <tripinfo id="68" depart="437.00" departLane="bottom3D0_0" departPos="5.10" departSpeed="0.00" departDelay="0.00" arrival="630.00" arrivalLane="B0bottom1_0" arrivalPos="286.40" arrivalSpeed="12.27" duration="193.00" routeLength="1197.66" waitingTime="85.00" waitingCount="2" stopTime="0.00" timeLoss="101.85" rerouteNo="0" devices="tripinfo_68" vType="DEFAULT_VEHTYPE" speedFactor="0.96" vaporized=""/>
    <tripinfo id="57" depart="375.00" departLane="bottom1B0_0" departPos="5.10" departSpeed="0.00" departDelay="0.00" arrival="631.00" arrivalLane="B0bottom1_1" arrivalPos="286.40" arrivalSpeed="13.91" duration="256.00" routeLength="1748.75" waitingTime="94.00" waitingCount="5" stopTime="0.00" timeLoss="130.46" rerouteNo="0" devices="tripinfo_57" vType="DEFAULT_VEHTYPE" speedFactor="1.02" vaporized=""/>
    <tripinfo id="91" depart="558.00" departLane="top1B3_0" departPos="5.10" departSpeed="0.00" departDelay="0.00" arrival="636.00" arrivalLane="A3top0_0" arrivalPos="286.40" arrivalSpeed="13.41" duration="78.00" routeLength="858.56" waitingTime="1.00" waitingCount="1" stopTime="0.00" timeLoss="13.05" rerouteNo="0" devices="tripinfo_91" vType="DEFAULT_VEHTYPE" speedFactor="0.97" vaporized=""/>
    <tripinfo id="3" depart="29.00" departLane="right2D2_0" departPos="5.10" departSpeed="0.00" departDelay="0.00" arrival="658.00" arrivalLane="A0bottom0_0" arrivalPos="286.40" arrivalSpeed="14.49" duration="629.00" routeLength="2095.69" waitingTime="452.00" waitingCount="4" stopTime="0.00" timeLoss="483.93" rerouteNo="0" devices="tripinfo_3" vType="DEFAULT_VEHTYPE" speedFactor="1.04" vaporized=""/>
    <tripinfo id="71" depart="454.00" departLane="left1A1_0" departPos="5.10" departSpeed="0.00" departDelay="0.00" arrival="661.00" arrivalLane="A0bottom0_0" arrivalPos="286.40" arrivalSpeed="12.51" duration="207.00" routeLength="879.60" waitingTime="126.00" waitingCount="2" stopTime="0.00" timeLoss="142.40" rerouteNo="0" devices="tripinfo_71" vType="DEFAULT_VEHTYPE" speedFactor="0.99" vaporized=""/>
    <tripinfo id="60" depart="389.00" departLane="left3A3_0" departPos="5.10" departSpeed="0.00" departDelay="0.00" arrival="662.00" arrivalLane="A0bottom0_1" arrivalPos="286.40" arrivalSpeed="14.48" duration="273.00" routeLength="1479.94" waitingTime="143.00" waitingCount="4" stopTime="0.00" timeLoss="172.34" rerouteNo="0" devices="tripinfo_60" vType="DEFAULT_VEHTYPE" speedFactor="1.07" vaporized=""/>
    <tripinfo id="28" depart="184.00" departLane="left1A1_0" departPos="5.10" departSpeed="0.00" departDelay="0.00" arrival="681.00" arrivalLane="D1right1_1" arrivalPos="286.40" arrivalSpeed="13.19" duration="497.00" routeLength="1495.58" waitingTime="357.00" waitingCount="3" stopTime="0.00" timeLoss="392.38" rerouteNo="0" devices="tripinfo_28" vType="DEFAULT_VEHTYPE" speedFactor="1.03" vaporized=""/>
    <tripinfo id="30" depart="218.00" departLane="bottom1B0_0" departPos="5.10" departSpeed="0.00" departDelay="0.00" arrival="685.00" arrivalLane="D1right1_0" arrivalPos="286.40" arrivalSpeed="9.91" duration="467.00" routeLength="1479.94" waitingTime="303.00" waitingCount="4" stopTime="0.00" timeLoss="330.35" rerouteNo="0" devices="tripinfo_30" vType="DEFAULT_VEHTYPE" speedFactor="0.79" vaporized=""/>
    <tripinfo id="70" depart="450.00" departLane="right0D0_0" departPos="5.10" departSpeed="0.00" departDelay="0.00" arrival="687.00" arrivalLane="D2right2_0" arrivalPos="286.40" arrivalSpeed="13.08" duration="237.00" routeLength="1161.43" waitingTime="133.00" waitingCount="2" stopTime="0.00" timeLoss="151.29" rerouteNo="0" devices="tripinfo_70" vType="DEFAULT_VEHTYPE" speedFactor="1.00" vaporized=""/>
    <tripinfo id="46" depart="297.00" departLane="bottom0A0_0" departPos="5.10" departSpeed="0.00" departDelay="0.00" arrival="701.00" arrivalLane="A3left3_0" arrivalPos="286.40" arrivalSpeed="12.65" duration="404.00" routeLength="1498.06" waitingTime="259.00" waitingCount="3" stopTime="0.00" timeLoss="288.56" rerouteNo="0" devices="tripinfo_46" vType="DEFAULT_VEHTYPE" speedFactor="0.94" vaporized=""/>
    <tripinfo id="99" depart="594.00" departLane="top3D3_0" departPos="5.10" departSpeed="0.00" departDelay="0.00" arrival="704.00" arrivalLane="B3top1_0" arrivalPos="286.40" arrivalSpeed="12.82" duration="110.00" routeLength="1161.43" waitingTime="2.00" waitingCount="2" stopTime="0.00" timeLoss="20.29" rerouteNo="0" devices="tripinfo_99" vType="DEFAULT_VEHTYPE" speedFactor="0.95" vaporized=""/>
    <tripinfo id="80" depart="515.00" departLane="right0D0_0" departPos="5.10" departSpeed="0.00" departDelay="0.00" arrival="713.00" arrivalLane="D3right3_0" arrivalPos="286.40" arrivalSpeed="14.43" duration="198.00" routeLength="1461.60" waitingTime="72.00" waitingCount="3" stopTime="0.00" timeLoss="98.04" rerouteNo="0" devices="tripinfo_80" vType="DEFAULT_VEHTYPE" speedFactor="1.06" vaporized=""/>
    <tripinfo id="106" depart="615.00" departLane="right1D1_0" departPos="5.10" departSpeed="0.00" departDelay="0.00" arrival="719.00" arrivalLane="D3right3_0" arrivalPos="286.40" arrivalSpeed="14.78" duration="104.00" routeLength="1161.43" waitingTime="2.00" waitingCount="2" stopTime="0.00" timeLoss="24.59" rerouteNo="0" devices="tripinfo_106" vType="DEFAULT_VEHTYPE" speedFactor="1.07" vaporized=""/>
    <tripinfo id="112" depart="633.00" departLane="right0D0_0" departPos="5.10" departSpeed="0.00" departDelay="0.00" arrival="726.00" arrivalLane="B0bottom1_0" arrivalPos="286.40" arrivalSpeed="13.06" duration="93.00" routeLength="1197.89" waitingTime="0.00" waitingCount="0" stopTime="0.00" timeLoss="7.60" rerouteNo="0" devices="tripinfo_112" vType="DEFAULT_VEHTYPE" speedFactor="1.02" vaporized=""/>
    <tripinfo id="87" depart="540.00" departLane="top0A3_0" departPos="5.10" departSpeed="0.00" departDelay="0.00" arrival="727.00" arrivalLane="A0left0_0" arrivalPos="286.40" arrivalSpeed="11.43" duration="187.00" routeLength="1477.24" waitingTime="49.00" waitingCount="2" stopTime="0.00" timeLoss="68.53" rerouteNo="0" devices="tripinfo_87" vType="DEFAULT_VEHTYPE" speedFactor="0.90" vaporized=""/>
    <tripinfo id="61" depart="391.00" departLane="bottom1B0_0" departPos="5.10" departSpeed="0.00" departDelay="0.00" arrival="728.00" arrivalLane="B0bottom1_0" arrivalPos="286.40" arrivalSpeed="13.53" duration="337.00" routeLength="1748.75" waitingTime="177.00" waitingCount="5" stopTime="0.00" timeLoss="216.03" rerouteNo="0" devices="tripinfo_61" vType="DEFAULT_VEHTYPE" speedFactor="1.06" vaporized=""/>
    <tripinfo id="119" depart="642.00" departLane="right1D1_0" departPos="5.10" departSpeed="0.00" departDelay="0.00" arrival="732.00" arrivalLane="D2right2_0" arrivalPos="286.40" arrivalSpeed="11.63" duration="90.00" routeLength="858.56" waitingTime="1.00" waitingCount="1" stopTime="0.00" timeLoss="14.95" rerouteNo="0" devices="tripinfo_119" vType="DEFAULT_VEHTYPE" speedFactor="0.85" vaporized=""/>
    <tripinfo id="78" depart="497.00" departLane="top2C3_0" departPos="5.10" departSpeed="0.00" departDelay="0.00" arrival="737.00" arrivalLane="C3top2_0" arrivalPos="286.40" arrivalSpeed="14.23" duration="240.00" routeLength="1748.75" waitingTime="100.00" waitingCount="2" stopTime="0.00" timeLoss="122.66" rerouteNo="0" devices="tripinfo_78" vType="DEFAULT_VEHTYPE" speedFactor="1.09" vaporized=""/>
    <tripinfo id="63" depart="396.00" departLane="top3D3_0" departPos="5.10" departSpeed="0.00" departDelay="0.00" arrival="738.00" arrivalLane="B0bottom1_0" arrivalPos="286.40" arrivalSpeed="15.43" duration="342.00" routeLength="2082.76" waitingTime="176.00" waitingCount="3" stopTime="0.00" timeLoss="205.82" rerouteNo="0" devices="tripinfo_63" vType="DEFAULT_VEHTYPE" speedFactor="1.11" vaporized=""/>
    <tripinfo id="100" depart="594.00" departLane="right1D1_0" departPos="5.10" departSpeed="0.00" departDelay="0.00" arrival="747.00" arrivalLane="D0right0_0" arrivalPos="286.40" arrivalSpeed="15.23" duration="153.00" routeLength="894.86" waitingTime="84.00" waitingCount="1" stopTime="0.00" timeLoss="95.85" rerouteNo="0" devices="tripinfo_100" vType="DEFAULT_VEHTYPE" speedFactor="1.14" vaporized=""/>
    <tripinfo id="18" depart="92.00" departLane="top2C3_0" departPos="5.10" departSpeed="0.00" departDelay="0.00" arrival="772.00" arrivalLane="A0left0_0" arrivalPos="286.40" arrivalSpeed="12.89" duration="680.00" routeLength="2080.28" waitingTime="491.00" waitingCount="5" stopTime="0.00" timeLoss="527.78" rerouteNo="0" devices="tripinfo_18" vType="DEFAULT_VEHTYPE" speedFactor="0.99" vaporized=""/>
    <tripinfo id="40" depart="272.00" departLane="bottom1B0_0" departPos="5.10" departSpeed="0.00" departDelay="0.00" arrival="774.00" arrivalLane="D2right2_0" arrivalPos="286.40" arrivalSpeed="12.72" duration="502.00" routeLength="1780.11" waitingTime="346.00" waitingCount="3" stopTime="0.00" timeLoss="373.21" rerouteNo="0" devices="tripinfo_40" vType="DEFAULT_VEHTYPE" speedFactor="1.01" vaporized=""/>
    <tripinfo id="53" depart="359.00" departLane="top1B3_0" departPos="5.10" departSpeed="0.00" departDelay="0.00" arrival="775.00" arrivalLane="D0right0_0" arrivalPos="286.40" arrivalSpeed="10.03" duration="416.00" routeLength="2095.69" waitingTime="189.00" waitingCount="4" stopTime="0.00" timeLoss="221.86" rerouteNo="0" devices="tripinfo_53" vType="DEFAULT_VEHTYPE" speedFactor="0.78" vaporized=""/>
    <tripinfo id="115" depart="637.00" departLane="bottom1B0_0" departPos="5.10" departSpeed="0.00" departDelay="0.00" arrival="776.00" arrivalLane="D0right0_1" arrivalPos="286.40" arrivalSpeed="10.55" duration="139.00" routeLength="1179.77" waitingTime="18.00" waitingCount="1" stopTime="0.00" timeLoss="33.60" rerouteNo="0" devices="tripinfo_115" vType="DEFAULT_VEHTYPE" speedFactor="0.82" vaporized=""/>
    <tripinfo id="139" depart="719.00" departLane="bottom3D0_0" departPos="5.10" departSpeed="0.00" departDelay="0.00" arrival="777.00" arrivalLane="D0right0_0" arrivalPos="286.40" arrivalSpeed="14.68" duration="58.00" routeLength="576.73" waitingTime="2.00" waitingCount="1" stopTime="0.00" timeLoss="18.18" rerouteNo="0" devices="tripinfo_139" vType="DEFAULT_VEHTYPE" speedFactor="1.07" vaporized=""/>
    <tripinfo id="129" depart="690.00" departLane="bottom2C0_0" departPos="5.10" departSpeed="0.00" departDelay="0.00" arrival="780.00" arrivalLane="B0bottom1_0" arrivalPos="286.40" arrivalSpeed="14.83" duration="90.00" routeLength="894.86" waitingTime="17.00" waitingCount="1" stopTime="0.00" timeLoss="28.03" rerouteNo="0" devices="tripinfo_129" vType="DEFAULT_VEHTYPE" speedFactor="1.07" vaporized=""/>
    <tripinfo id="140" depart="723.00" departLane="right0D0_0" departPos="5.10" departSpeed="0.00" departDelay="0.00" arrival="780.00" arrivalLane="D0bottom3_1" arrivalPos="286.40" arrivalSpeed="15.16" duration="57.00" routeLength="597.55" waitingTime="6.00" waitingCount="1" stopTime="0.00" timeLoss="17.10" rerouteNo="0" devices="tripinfo_140" vType="DEFAULT_VEHTYPE" speedFactor="1.12" vaporized=""/>
    <tripinfo id="118" depart="643.00" departLane="left1A1_0" departPos="5.10" departSpeed="0.00" departDelay="1.00" arrival="781.00" arrivalLane="A0bottom0_0" arrivalPos="286.40" arrivalSpeed="11.91" duration="138.00" routeLength="879.60" waitingTime="52.00" waitingCount="2" stopTime="0.00" timeLoss="69.26" rerouteNo="0" devices="tripinfo_118" vType="DEFAULT_VEHTYPE" speedFactor="0.93" vaporized=""/>
    <tripinfo id="107" depart="619.00" departLane="bottom0A0_0" departPos="5.10" departSpeed="0.00" departDelay="0.00" arrival="783.00" arrivalLane="C0bottom2_0" arrivalPos="286.40" arrivalSpeed="11.67" duration="164.00" routeLength="1161.43" waitingTime="49.00" waitingCount="2" stopTime="0.00" timeLoss="67.57" rerouteNo="0" devices="tripinfo_107" vType="DEFAULT_VEHTYPE" speedFactor="0.89" vaporized=""/>
    <tripinfo id="43" depart="296.00" departLane="right0D0_0" departPos="5.10" departSpeed="0.00" departDelay="0.00" arrival="786.00" arrivalLane="D0bottom3_0" arrivalPos="286.40" arrivalSpeed="10.02" duration="490.00" routeLength="597.55" waitingTime="425.00" waitingCount="1" stopTime="0.00" timeLoss="433.84" rerouteNo="0" devices="tripinfo_43" vType="DEFAULT_VEHTYPE" speedFactor="0.77" vaporized=""/>
    <tripinfo id="2" depart="21.00" departLane="top0A3_0" departPos="5.10" departSpeed="0.00" departDelay="0.00" arrival="789.00" arrivalLane="D0bottom3_0" arrivalPos="286.40" arrivalSpeed="13.17" duration="768.00" routeLength="2380.22" waitingTime="557.00" waitingCount="5" stopTime="0.00" timeLoss="595.49" rerouteNo="0" devices="tripinfo_2" vType="DEFAULT_VEHTYPE" speedFactor="1.00" vaporized=""/>
    <tripinfo id="111" depart="632.00" departLane="right1D1_0" departPos="5.10" departSpeed="0.00" departDelay="0.00" arrival="794.00" arrivalLane="D1right1_0" arrivalPos="286.40" arrivalSpeed="12.68" duration="162.00" routeLength="1748.75" waitingTime="3.00" waitingCount="3" stopTime="0.00" timeLoss="28.45" rerouteNo="0" devices="tripinfo_111" vType="DEFAULT_VEHTYPE" speedFactor="0.96" vaporized=""/>
    <tripinfo id="123" depart="661.00" departLane="top0A3_0" departPos="5.10" departSpeed="0.00" departDelay="0.00" arrival="795.00" arrivalLane="A1left1_0" arrivalPos="286.40" arrivalSpeed="13.28" duration="134.00" routeLength="1177.07" waitingTime="25.00" waitingCount="2" stopTime="0.00" timeLoss="45.22" rerouteNo="0" devices="tripinfo_123" vType="DEFAULT_VEHTYPE" speedFactor="0.97" vaporized=""/>
    <tripinfo id="22" depart="133.00" departLane="bottom2C0_0" departPos="5.10" departSpeed="0.00" departDelay="0.00" arrival="799.00" arrivalLane="C3top2_0" arrivalPos="286.40" arrivalSpeed="13.01" duration="666.00" routeLength="1495.58" waitingTime="530.00" waitingCount="4" stopTime="0.00" timeLoss="558.32" rerouteNo="0" devices="tripinfo_22" vType="DEFAULT_VEHTYPE" speedFactor="1.01" vaporized=""/>
    <tripinfo id="39" depart="268.00" departLane="right2D2_0" departPos="5.10" departSpeed="0.00" departDelay="0.00" arrival="799.00" arrivalLane="B0bottom1_0" arrivalPos="286.40" arrivalSpeed="13.67" duration="531.00" routeLength="1795.52" waitingTime="371.00" waitingCount="2" stopTime="0.00" timeLoss="400.06" rerouteNo="0" devices="tripinfo_39" vType="DEFAULT_VEHTYPE" speedFactor="0.99" vaporized=""/>
    <tripinfo id="86" depart="539.00" departLane="bottom1B0_0" departPos="5.10" departSpeed="0.00" departDelay="0.00" arrival="799.00" arrivalLane="C3top2_1" arrivalPos="286.40" arrivalSpeed="15.25" duration="260.00" routeLength="1782.72" waitingTime="100.00" waitingCount="4" stopTime="0.00" timeLoss="144.99" rerouteNo="0" devices="tripinfo_86" vType="DEFAULT_VEHTYPE" speedFactor="1.13" vaporized=""/>
    <tripinfo id="92" depart="564.00" departLane="top0A3_0" departPos="5.10" departSpeed="0.00" departDelay="0.00" arrival="801.00" arrivalLane="B0bottom1_1" arrivalPos="286.40" arrivalSpeed="14.76" duration="237.00" routeLength="1782.59" waitingTime="83.00" waitingCount="4" stopTime="0.00" timeLoss="116.71" rerouteNo="0" devices="tripinfo_92" vType="DEFAULT_VEHTYPE" speedFactor="1.08" vaporized=""/>
    <tripinfo id="44" depart="296.00" departLane="top2C3_0" departPos="5.10" departSpeed="0.00" departDelay="0.00" arrival="804.00" arrivalLane="B0bottom1_0" arrivalPos="286.40" arrivalSpeed="10.97" duration="508.00" routeLength="1782.72" waitingTime="331.00" waitingCount="4" stopTime="0.00" timeLoss="361.07" rerouteNo="0" devices="tripinfo_44" vType="DEFAULT_VEHTYPE" speedFactor="0.88" vaporized=""/>