<?xml version="1.0" encoding="UTF-8"?>

<!-- generated on 2023-08-30 13:36:51 by Eclipse SUMO libsumo Version 1.18.0
<configuration xmlns:xsi="http://www.w3.org/2001/XMLSchema-instance" xsi:noNamespaceSchemaLocation="http://sumo.dlr.de/xsd/libsumoConfiguration.xsd">

    <input>
        <net-file value="/home/stefan/RESCO/./environments/grid4x4/grid4x4.net.xml"/>
        <route-files value="/home/stefan/RESCO/./environments/grid4x4/grid4x4_66.rou.xml"/>
    </input>

    <output>
        <tripinfo-output value="/home/stefan/results/RAINBOW-tr0-grid4x4-0-drq_norm-wait_norm/tripinfo_66.xml"/>
        <tripinfo-output.write-unfinished value="true"/>
    </output>

    <processing>
        <time-to-teleport value="-1"/>
    </processing>

    <report>
        <no-warnings value="True"/>
        <no-step-log value="True"/>
    </report>

    <random_number>
        <random value="true"/>
    </random_number>

</configuration>
-->

<tripinfos xmlns:xsi="http://www.w3.org/2001/XMLSchema-instance" xsi:noNamespaceSchemaLocation="http://sumo.dlr.de/xsd/tripinfo_file.xsd">
    <tripinfo id="4" depart="11.00" departLane="right0D0_0" departPos="5.10" departSpeed="0.00" departDelay="0.00" arrival="88.00" arrivalLane="D1right1_0" arrivalPos="286.40" arrivalSpeed="13.18" duration="77.00" routeLength="858.56" waitingTime="0.00" waitingCount="0" stopTime="0.00" timeLoss="11.00" rerouteNo="0" devices="tripinfo_4" vType="DEFAULT_VEHTYPE" speedFactor="0.95" vaporized=""/>
    <tripinfo id="5" depart="15.00" departLane="left0A0_0" departPos="5.10" departSpeed="0.00" departDelay="0.00" arrival="105.00" arrivalLane="C0bottom2_0" arrivalPos="286.40" arrivalSpeed="14.99" duration="90.00" routeLength="1177.07" waitingTime="1.00" waitingCount="1" stopTime="0.00" timeLoss="13.66" rerouteNo="0" devices="tripinfo_5" vType="DEFAULT_VEHTYPE" speedFactor="1.12" vaporized=""/>
    <tripinfo id="23" depart="92.00" departLane="right3D3_0" departPos="5.10" departSpeed="0.00" departDelay="0.00" arrival="142.00" arrivalLane="D3top3_0" arrivalPos="286.40" arrivalSpeed="13.60" duration="50.00" routeLength="576.73" waitingTime="0.00" waitingCount="0" stopTime="0.00" timeLoss="7.36" rerouteNo="0" devices="tripinfo_23" vType="DEFAULT_VEHTYPE" speedFactor="1.00" vaporized=""/>
    <tripinfo id="17" depart="62.00" departLane="bottom0A0_0" departPos="5.10" departSpeed="0.00" departDelay="0.00" arrival="172.00" arrivalLane="C0bottom2_0" arrivalPos="286.40" arrivalSpeed="13.42" duration="110.00" routeLength="1161.43" waitingTime="2.00" waitingCount="2" stopTime="0.00" timeLoss="21.61" rerouteNo="0" devices="tripinfo_17" vType="DEFAULT_VEHTYPE" speedFactor="0.97" vaporized=""/>
    <tripinfo id="19" depart="76.00" departLane="right3D3_0" departPos="5.10" departSpeed="0.00" departDelay="0.00" arrival="202.00" arrivalLane="D2right2_0" arrivalPos="286.40" arrivalSpeed="11.36" duration="126.00" routeLength="894.86" waitingTime="41.00" waitingCount="1" stopTime="0.00" timeLoss="53.23" rerouteNo="0" devices="tripinfo_19" vType="DEFAULT_VEHTYPE" speedFactor="0.90" vaporized=""/>
    <tripinfo id="27" depart="133.00" departLane="left2A2_0" departPos="5.10" departSpeed="0.00" departDelay="0.00" arrival="208.00" arrivalLane="A1left1_0" arrivalPos="286.40" arrivalSpeed="13.50" duration="75.00" routeLength="858.56" waitingTime="1.00" waitingCount="1" stopTime="0.00" timeLoss="13.67" rerouteNo="0" devices="tripinfo_27" vType="DEFAULT_VEHTYPE" speedFactor="1.03" vaporized=""/>
    <tripinfo id="31" depart="140.00" departLane="bottom2C0_0" departPos="5.10" departSpeed="0.00" departDelay="0.00" arrival="218.00" arrivalLane="D0bottom3_0" arrivalPos="286.40" arrivalSpeed="12.84" duration="78.00" routeLength="858.56" waitingTime="0.00" waitingCount="0" stopTime="0.00" timeLoss="13.73" rerouteNo="0" devices="tripinfo_31" vType="DEFAULT_VEHTYPE" speedFactor="0.99" vaporized=""/>
    <tripinfo id="32" depart="141.00" departLane="right1D1_0" departPos="5.10" departSpeed="0.00" departDelay="0.00" arrival="224.00" arrivalLane="D2right2_0" arrivalPos="286.40" arrivalSpeed="13.34" duration="83.00" routeLength="858.56" waitingTime="2.00" waitingCount="2" stopTime="0.00" timeLoss="17.98" rerouteNo="0" devices="tripinfo_32" vType="DEFAULT_VEHTYPE" speedFactor="0.97" vaporized=""/>
    <tripinfo id="34" depart="147.00" departLane="bottom0A0_0" departPos="5.10" departSpeed="0.00" departDelay="0.00" arrival="237.00" arrivalLane="A0left0_0" arrivalPos="286.40" arrivalSpeed="15.12" duration="90.00" routeLength="597.55" waitingTime="40.00" waitingCount="1" stopTime="0.00" timeLoss="51.08" rerouteNo="0" devices="tripinfo_34" vType="DEFAULT_VEHTYPE" speedFactor="1.14" vaporized=""/>
    <tripinfo id="41" depart="172.00" departLane="right0D0_0" departPos="5.10" departSpeed="0.00" departDelay="0.00" arrival="261.00" arrivalLane="D1right1_0" arrivalPos="286.40" arrivalSpeed="11.35" duration="89.00" routeLength="858.56" waitingTime="1.00" waitingCount="1" stopTime="0.00" timeLoss="14.63" rerouteNo="0" devices="tripinfo_41" vType="DEFAULT_VEHTYPE" speedFactor="0.86" vaporized=""/>
    <tripinfo id="37" depart="161.00" departLane="left0A0_0" departPos="5.10" departSpeed="0.00" departDelay="0.00" arrival="289.00" arrivalLane="A2left2_0" arrivalPos="286.40" arrivalSpeed="13.70" duration="128.00" routeLength="1197.66" waitingTime="30.00" waitingCount="1" stopTime="0.00" timeLoss="43.54" rerouteNo="0" devices="tripinfo_37" vType="DEFAULT_VEHTYPE" speedFactor="1.04" vaporized=""/>
    <tripinfo id="49" depart="216.00" departLane="top1B3_0" departPos="5.10" departSpeed="0.00" departDelay="0.00" arrival="290.00" arrivalLane="A3left3_0" arrivalPos="286.40" arrivalSpeed="12.58" duration="74.00" routeLength="879.60" waitingTime="0.00" waitingCount="0" stopTime="0.00" timeLoss="8.21" rerouteNo="0" devices="tripinfo_49" vType="DEFAULT_VEHTYPE" speedFactor="0.99" vaporized=""/>
    <tripinfo id="24" depart="99.00" departLane="left3A3_0" departPos="5.10" departSpeed="0.00" departDelay="0.00" arrival="298.00" arrivalLane="D2right2_0" arrivalPos="286.40" arrivalSpeed="14.34" duration="199.00" routeLength="1782.72" waitingTime="54.00" waitingCount="2" stopTime="0.00" timeLoss="74.59" rerouteNo="0" devices="tripinfo_24" vType="DEFAULT_VEHTYPE" speedFactor="1.04" vaporized=""/>
    <tripinfo id="8" depart="28.00" departLane="right3D3_0" departPos="5.10" departSpeed="0.00" departDelay="0.00" arrival="301.00" arrivalLane="A3top0_0" arrivalPos="286.40" arrivalSpeed="13.86" duration="273.00" routeLength="1477.24" waitingTime="142.00" waitingCount="3" stopTime="0.00" timeLoss="171.23" rerouteNo="0" devices="tripinfo_8" vType="DEFAULT_VEHTYPE" speedFactor="1.06" vaporized=""/>
    <tripinfo id="22" depart="81.00" departLane="top1B3_0" departPos="5.10" departSpeed="0.00" departDelay="0.00" arrival="357.00" arrivalLane="D1right1_0" arrivalPos="286.40" arrivalSpeed="14.26" duration="276.00" routeLength="1795.52" waitingTime="137.00" waitingCount="2" stopTime="0.00" timeLoss="159.28" rerouteNo="0" devices="tripinfo_22" vType="DEFAULT_VEHTYPE" speedFactor="1.11" vaporized=""/>
    <tripinfo id="2" depart="8.00" departLane="bottom1B0_0" departPos="5.10" departSpeed="0.00" departDelay="0.00" arrival="364.00" arrivalLane="A3left3_0" arrivalPos="286.40" arrivalSpeed="13.33" duration="356.00" routeLength="1795.52" waitingTime="187.00" waitingCount="4" stopTime="0.00" timeLoss="220.55" rerouteNo="0" devices="tripinfo_2" vType="DEFAULT_VEHTYPE" speedFactor="0.96" vaporized=""/>
    <tripinfo id="65" depart="298.00" departLane="right2D2_0" departPos="5.10" departSpeed="0.00" departDelay="3.00" arrival="366.00" arrivalLane="D1right1_0" arrivalPos="286.40" arrivalSpeed="14.12" duration="68.00" routeLength="894.86" waitingTime="0.00" waitingCount="0" stopTime="0.00" timeLoss="7.41" rerouteNo="0" devices="tripinfo_65" vType="DEFAULT_VEHTYPE" speedFactor="1.09" vaporized=""/>
    <tripinfo id="9" depart="30.00" departLane="bottom1B0_0" departPos="5.10" departSpeed="0.00" departDelay="0.00" arrival="370.00" arrivalLane="A3left3_0" arrivalPos="286.40" arrivalSpeed="12.09" duration="340.00" routeLength="1795.52" waitingTime="163.00" waitingCount="4" stopTime="0.00" timeLoss="194.34" rerouteNo="0" devices="tripinfo_9" vType="DEFAULT_VEHTYPE" speedFactor="0.90" vaporized=""/>
    <tripinfo id="53" depart="229.00" departLane="left3A3_0" departPos="5.10" departSpeed="0.00" departDelay="0.00" arrival="372.00" arrivalLane="A1left1_0" arrivalPos="286.40" arrivalSpeed="13.17" duration="143.00" routeLength="1161.43" waitingTime="41.00" waitingCount="2" stopTime="0.00" timeLoss="59.40" rerouteNo="0" devices="tripinfo_53" vType="DEFAULT_VEHTYPE" speedFactor="1.02" vaporized=""/>
    <tripinfo id="64" depart="295.00" departLane="right2D2_0" departPos="5.10" departSpeed="0.00" departDelay="0.00" arrival="382.00" arrivalLane="D3right3_0" arrivalPos="286.40" arrivalSpeed="12.02" duration="87.00" routeLength="858.56" waitingTime="1.00" waitingCount="1" stopTime="0.00" timeLoss="14.01" rerouteNo="0" devices="tripinfo_64" vType="DEFAULT_VEHTYPE" speedFactor="0.87" vaporized=""/>
    <tripinfo id="38" depart="161.00" departLane="left2A2_0" departPos="5.10" departSpeed="0.00" departDelay="0.00" arrival="383.00" arrivalLane="D3top3_0" arrivalPos="286.40" arrivalSpeed="11.16" duration="222.00" routeLength="1795.52" waitingTime="44.00" waitingCount="2" stopTime="0.00" timeLoss="66.49" rerouteNo="0" devices="tripinfo_38" vType="DEFAULT_VEHTYPE" speedFactor="0.84" vaporized=""/>
    <tripinfo id="75" depart="338.00" departLane="bottom2C0_0" departPos="5.10" departSpeed="0.00" departDelay="2.00" arrival="410.00" arrivalLane="D0bottom3_0" arrivalPos="286.40" arrivalSpeed="14.11" duration="72.00" routeLength="858.56" waitingTime="0.00" waitingCount="0" stopTime="0.00" timeLoss="10.34" rerouteNo="0" devices="tripinfo_75" vType="DEFAULT_VEHTYPE" speedFactor="1.02" vaporized=""/>
    <tripinfo id="80" depart="358.00" departLane="right2D2_0" departPos="5.10" departSpeed="0.00" departDelay="0.00" arrival="434.00" arrivalLane="D3right3_0" arrivalPos="286.40" arrivalSpeed="14.44" duration="76.00" routeLength="858.56" waitingTime="2.00" waitingCount="2" stopTime="0.00" timeLoss="16.31" rerouteNo="0" devices="tripinfo_80" vType="DEFAULT_VEHTYPE" speedFactor="1.06" vaporized=""/>
    <tripinfo id="70" depart="307.00" departLane="top1B3_0" departPos="5.10" departSpeed="0.00" departDelay="2.00" arrival="440.00" arrivalLane="C3top2_0" arrivalPos="286.40" arrivalSpeed="12.70" duration="133.00" routeLength="894.86" waitingTime="49.00" waitingCount="2" stopTime="0.00" timeLoss="65.13" rerouteNo="0" devices="tripinfo_70" vType="DEFAULT_VEHTYPE" speedFactor="0.97" vaporized=""/>
    <tripinfo id="51" depart="221.00" departLane="right0D0_0" departPos="5.10" departSpeed="0.00" departDelay="0.00" arrival="449.00" arrivalLane="D3right3_0" arrivalPos="286.40" arrivalSpeed="12.96" duration="228.00" routeLength="1461.60" waitingTime="102.00" waitingCount="2" stopTime="0.00" timeLoss="122.94" rerouteNo="0" devices="tripinfo_51" vType="DEFAULT_VEHTYPE" speedFactor="1.02" vaporized=""/>
    <tripinfo id="18" depart="73.00" departLane="right1D1_0" departPos="5.10" departSpeed="0.00" departDelay="0.00" arrival="478.00" arrivalLane="D3top3_0" arrivalPos="286.40" arrivalSpeed="14.65" duration="405.00" routeLength="1179.77" waitingTime="298.00" waitingCount="3" stopTime="0.00" timeLoss="323.98" rerouteNo="0" devices="tripinfo_18" vType="DEFAULT_VEHTYPE" speedFactor="1.07" vaporized=""/>
    <tripinfo id="87" depart="400.00" departLane="right3D3_0" departPos="5.10" departSpeed="0.00" departDelay="0.00" arrival="478.00" arrivalLane="D2right2_0" arrivalPos="286.40" arrivalSpeed="14.19" duration="78.00" routeLength="894.86" waitingTime="6.00" waitingCount="1" stopTime="0.00" timeLoss="18.43" rerouteNo="0" devices="tripinfo_87" vType="DEFAULT_VEHTYPE" speedFactor="1.11" vaporized=""/>
    <tripinfo id="10" depart="33.00" departLane="left3A3_0" departPos="5.10" departSpeed="0.00" departDelay="0.00" arrival="482.00" arrivalLane="A0bottom0_0" arrivalPos="286.40" arrivalSpeed="11.74" duration="449.00" routeLength="1479.94" waitingTime="311.00" waitingCount="2" stopTime="0.00" timeLoss="332.33" rerouteNo="0" devices="tripinfo_10" vType="DEFAULT_VEHTYPE" speedFactor="0.92" vaporized=""/>
    <tripinfo id="50" depart="221.00" departLane="top2C3_0" departPos="5.10" departSpeed="0.00" departDelay="0.00" arrival="486.00" arrivalLane="A3left3_0" arrivalPos="286.40" arrivalSpeed="16.15" duration="265.00" routeLength="1179.77" waitingTime="167.00" waitingCount="3" stopTime="0.00" timeLoss="192.77" rerouteNo="0" devices="tripinfo_50" vType="DEFAULT_VEHTYPE" speedFactor="1.19" vaporized=""/>
    <tripinfo id="11" depart="36.00" departLane="right0D0_0" departPos="5.10" departSpeed="0.00" departDelay="0.00" arrival="487.00" arrivalLane="A1left1_0" arrivalPos="286.40" arrivalSpeed="14.93" duration="451.00" routeLength="1782.72" waitingTime="308.00" waitingCount="2" stopTime="0.00" timeLoss="332.96" rerouteNo="0" devices="tripinfo_11" vType="DEFAULT_VEHTYPE" speedFactor="1.11" vaporized=""/>
    <tripinfo id="6" depart="23.00" departLane="bottom3D0_0" departPos="5.10" departSpeed="0.00" departDelay="0.00" arrival="489.00" arrivalLane="D0bottom3_0" arrivalPos="286.40" arrivalSpeed="12.72" duration="466.00" routeLength="1745.91" waitingTime="304.00" waitingCount="5" stopTime="0.00" timeLoss="338.79" rerouteNo="0" devices="tripinfo_6" vType="DEFAULT_VEHTYPE" speedFactor="1.01" vaporized=""/>
    <tripinfo id="61" depart="268.00" departLane="left2A2_0" departPos="5.10" departSpeed="0.00" departDelay="0.00" arrival="518.00" arrivalLane="A3top0_1" arrivalPos="286.40" arrivalSpeed="16.04" duration="250.00" routeLength="895.01" waitingTime="178.00" waitingCount="2" stopTime="0.00" timeLoss="194.61" rerouteNo="0" devices="tripinfo_61" vType="DEFAULT_VEHTYPE" speedFactor="1.19" vaporized=""/>
    <tripinfo id="7" depart="26.00" departLane="right2D2_0" departPos="5.10" departSpeed="0.00" departDelay="0.00" arrival="520.00" arrivalLane="A3top0_0" arrivalPos="286.40" arrivalSpeed="12.21" duration="494.00" routeLength="1780.11" waitingTime="330.00" waitingCount="4" stopTime="0.00" timeLoss="360.27" rerouteNo="0" devices="tripinfo_7" vType="DEFAULT_VEHTYPE" speedFactor="0.96" vaporized=""/>
    <tripinfo id="46" depart="195.00" departLane="right1D1_0" departPos="5.10" departSpeed="0.00" departDelay="0.00" arrival="531.00" arrivalLane="C0bottom2_0" arrivalPos="286.40" arrivalSpeed="11.92" duration="336.00" routeLength="1195.18" waitingTime="222.00" waitingCount="2" stopTime="0.00" timeLoss="241.81" rerouteNo="0" devices="tripinfo_46" vType="DEFAULT_VEHTYPE" speedFactor="0.93" vaporized=""/>
    <tripinfo id="58" depart="246.00" departLane="right0D0_0" departPos="5.10" departSpeed="0.00" departDelay="0.00" arrival="531.00" arrivalLane="A0left0_0" arrivalPos="286.40" arrivalSpeed="13.57" duration="285.00" routeLength="1495.58" waitingTime="157.00" waitingCount="2" stopTime="0.00" timeLoss="178.99" rerouteNo="0" devices="tripinfo_58" vType="DEFAULT_VEHTYPE" speedFactor="1.02" vaporized=""/>
    <tripinfo id="96" depart="426.00" departLane="bottom2C0_0" departPos="5.10" departSpeed="0.00" departDelay="0.00" arrival="533.00" arrivalLane="D0right0_0" arrivalPos="286.40" arrivalSpeed="10.87" duration="107.00" routeLength="879.60" waitingTime="15.00" waitingCount="2" stopTime="0.00" timeLoss="30.44" rerouteNo="0" devices="tripinfo_96" vType="DEFAULT_VEHTYPE" speedFactor="0.84" vaporized=""/>
    <tripinfo id="26" depart="131.00" departLane="left1A1_0" departPos="5.10" departSpeed="0.00" departDelay="0.00" arrival="534.00" arrivalLane="C0bottom2_0" arrivalPos="286.40" arrivalSpeed="11.24" duration="403.00" routeLength="1479.94" waitingTime="253.00" waitingCount="4" stopTime="0.00" timeLoss="282.25" rerouteNo="0" devices="tripinfo_26" vType="DEFAULT_VEHTYPE" speedFactor="0.89" vaporized=""/>
    <tripinfo id="99" depart="451.00" departLane="left3A3_0" departPos="5.10" departSpeed="0.00" departDelay="0.00" arrival="534.00" arrivalLane="A2left2_0" arrivalPos="286.40" arrivalSpeed="12.03" duration="83.00" routeLength="858.56" waitingTime="1.00" waitingCount="1" stopTime="0.00" timeLoss="13.68" rerouteNo="0" devices="tripinfo_99" vType="DEFAULT_VEHTYPE" speedFactor="0.91" vaporized=""/>
    <tripinfo id="60" depart="264.00" departLane="top1B3_0" departPos="5.10" departSpeed="0.00" departDelay="0.00" arrival="536.00" arrivalLane="C0bottom2_0" arrivalPos="286.40" arrivalSpeed="11.27" duration="272.00" routeLength="1782.59" waitingTime="105.00" waitingCount="2" stopTime="0.00" timeLoss="126.09" rerouteNo="0" devices="tripinfo_60" vType="DEFAULT_VEHTYPE" speedFactor="0.89" vaporized=""/>
    <tripinfo id="103" depart="461.00" departLane="bottom1B0_0" departPos="5.10" departSpeed="0.00" departDelay="0.00" arrival="536.00" arrivalLane="C0bottom2_1" arrivalPos="286.40" arrivalSpeed="15.20" duration="75.00" routeLength="858.56" waitingTime="1.00" waitingCount="1" stopTime="0.00" timeLoss="17.01" rerouteNo="0" devices="tripinfo_103" vType="DEFAULT_VEHTYPE" speedFactor="1.10" vaporized=""/>
    <tripinfo id="0" depart="6.00" departLane="right1D1_0" departPos="5.10" departSpeed="0.00" departDelay="0.00" arrival="547.00" arrivalLane="B0bottom1_0" arrivalPos="286.40" arrivalSpeed="14.90" duration="541.00" routeLength="1495.35" waitingTime="415.00" waitingCount="3" stopTime="0.00" timeLoss="442.58" rerouteNo="0" devices="tripinfo_0" vType="DEFAULT_VEHTYPE" speedFactor="1.10" vaporized=""/>
    <tripinfo id="93" depart="414.00" departLane="left0A0_0" departPos="5.10" departSpeed="0.00" departDelay="0.00" arrival="547.00" arrivalLane="D0right0_0" arrivalPos="286.40" arrivalSpeed="13.01" duration="133.00" routeLength="1495.58" waitingTime="9.00" waitingCount="1" stopTime="0.00" timeLoss="21.97" rerouteNo="0" devices="tripinfo_93" vType="DEFAULT_VEHTYPE" speedFactor="0.97" vaporized=""/>
    <tripinfo id="83" depart="369.00" departLane="right0D0_0" departPos="5.10" departSpeed="0.00" departDelay="0.00" arrival="552.00" arrivalLane="C0bottom2_0" arrivalPos="286.40" arrivalSpeed="11.45" duration="183.00" routeLength="897.72" waitingTime="100.00" waitingCount="1" stopTime="0.00" timeLoss="109.69" rerouteNo="0" devices="tripinfo_83" vType="DEFAULT_VEHTYPE" speedFactor="0.89" vaporized=""/>
    <tripinfo id="104" depart="474.00" departLane="bottom3D0_0" departPos="5.10" departSpeed="0.00" departDelay="0.00" arrival="555.00" arrivalLane="D1right1_0" arrivalPos="286.40" arrivalSpeed="12.27" duration="81.00" routeLength="876.90" waitingTime="1.00" waitingCount="1" stopTime="0.00" timeLoss="11.31" rerouteNo="0" devices="tripinfo_104" vType="DEFAULT_VEHTYPE" speedFactor="0.92" vaporized=""/>
    <tripinfo id="107" depart="481.00" departLane="left3A3_0" departPos="5.10" departSpeed="0.00" departDelay="0.00" arrival="558.00" arrivalLane="A2left2_0" arrivalPos="286.40" arrivalSpeed="13.64" duration="77.00" routeLength="858.56" waitingTime="2.00" waitingCount="2" stopTime="0.00" timeLoss="18.06" rerouteNo="0" devices="tripinfo_107" vType="DEFAULT_VEHTYPE" speedFactor="1.07" vaporized=""/>
    <tripinfo id="29" depart="138.00" departLane="left2A2_0" departPos="5.10" departSpeed="0.00" departDelay="0.00" arrival="562.00" arrivalLane="C3top2_0" arrivalPos="286.40" arrivalSpeed="11.77" duration="424.00" routeLength="1495.35" waitingTime="274.00" waitingCount="4" stopTime="0.00" timeLoss="302.55" rerouteNo="0" devices="tripinfo_29" vType="DEFAULT_VEHTYPE" speedFactor="0.90" vaporized=""/>
    <tripinfo id="92" depart="411.00" departLane="right3D3_0" departPos="5.10" departSpeed="0.00" departDelay="0.00" arrival="567.00" arrivalLane="D3right3_0" arrivalPos="286.40" arrivalSpeed="14.98" duration="156.00" routeLength="1745.91" waitingTime="11.00" waitingCount="3" stopTime="0.00" timeLoss="38.85" rerouteNo="0" devices="tripinfo_92" vType="DEFAULT_VEHTYPE" speedFactor="1.10" vaporized=""/>
    <tripinfo id="112" depart="500.00" departLane="left0A0_0" departPos="5.10" departSpeed="0.00" departDelay="0.00" arrival="585.00" arrivalLane="B0bottom1_0" arrivalPos="286.40" arrivalSpeed="12.68" duration="85.00" routeLength="876.90" waitingTime="4.00" waitingCount="1" stopTime="0.00" timeLoss="18.46" rerouteNo="0" devices="tripinfo_112" vType="DEFAULT_VEHTYPE" speedFactor="0.96" vaporized=""/>
    <tripinfo id="48" depart="204.00" departLane="top0A3_0" departPos="5.10" departSpeed="0.00" departDelay="0.00" arrival="599.00" arrivalLane="C3top2_0" arrivalPos="286.40" arrivalSpeed="13.47" duration="395.00" routeLength="1197.66" waitingTime="287.00" waitingCount="3" stopTime="0.00" timeLoss="310.91" rerouteNo="0" devices="tripinfo_48" vType="DEFAULT_VEHTYPE" speedFactor="1.05" vaporized=""/>
    <tripinfo id="106" depart="475.00" departLane="right1D1_0" departPos="5.10" departSpeed="0.00" departDelay="0.00" arrival="601.00" arrivalLane="D0right0_0" arrivalPos="286.40" arrivalSpeed="12.47" duration="126.00" routeLength="894.86" waitingTime="39.00" waitingCount="2" stopTime="0.00" timeLoss="55.19" rerouteNo="0" devices="tripinfo_106" vType="DEFAULT_VEHTYPE" speedFactor="0.93" vaporized=""/>
    <tripinfo id="121" depart="546.00" departLane="top2C3_0" departPos="5.10" departSpeed="0.00" departDelay="0.00" arrival="633.00" arrivalLane="B3top1_0" arrivalPos="286.40" arrivalSpeed="11.97" duration="87.00" routeLength="858.56" waitingTime="2.00" waitingCount="2" stopTime="0.00" timeLoss="16.91" rerouteNo="0" devices="tripinfo_121" vType="DEFAULT_VEHTYPE" speedFactor="0.90" vaporized=""/>
    <tripinfo id="127" depart="565.00" departLane="bottom1B0_0" departPos="5.10" departSpeed="0.00" departDelay="0.00" arrival="649.00" arrivalLane="C0bottom2_0" arrivalPos="286.40" arrivalSpeed="11.64" duration="84.00" routeLength="858.56" waitingTime="1.00" waitingCount="1" stopTime="0.00" timeLoss="14.73" rerouteNo="0" devices="tripinfo_127" vType="DEFAULT_VEHTYPE" speedFactor="0.91" vaporized=""/>
    <tripinfo id="136" depart="602.00" departLane="bottom3D0_0" departPos="5.10" departSpeed="0.00" departDelay="0.00" arrival="658.00" arrivalLane="D0right0_0" arrivalPos="286.40" arrivalSpeed="13.38" duration="56.00" routeLength="576.73" waitingTime="1.00" waitingCount="1" stopTime="0.00" timeLoss="12.42" rerouteNo="0" devices="tripinfo_136" vType="DEFAULT_VEHTYPE" speedFactor="0.98" vaporized=""/>
    <tripinfo id="28" depart="137.00" departLane="top0A3_0" departPos="5.10" departSpeed="0.00" departDelay="0.00" arrival="679.00" arrivalLane="B3top1_0" arrivalPos="286.40" arrivalSpeed="13.80" duration="542.00" routeLength="894.86" waitingTime="459.00" waitingCount="2" stopTime="0.00" timeLoss="476.51" rerouteNo="0" devices="tripinfo_28" vType="DEFAULT_VEHTYPE" speedFactor="1.00" vaporized=""/>
    <tripinfo id="126" depart="565.00" departLane="top3D3_0" departPos="5.10" departSpeed="0.00" departDelay="0.00" arrival="679.00" arrivalLane="D3right3_0" arrivalPos="286.40" arrivalSpeed="13.33" duration="114.00" routeLength="597.55" waitingTime="60.00" waitingCount="1" stopTime="0.00" timeLoss="70.63" rerouteNo="0" devices="tripinfo_126" vType="DEFAULT_VEHTYPE" speedFactor="1.01" vaporized=""/>
    <tripinfo id="71" depart="312.00" departLane="top1B3_0" departPos="5.10" departSpeed="0.00" departDelay="0.00" arrival="681.00" arrivalLane="B3top1_0" arrivalPos="286.40" arrivalSpeed="13.08" duration="369.00" routeLength="1748.75" waitingTime="214.00" waitingCount="4" stopTime="0.00" timeLoss="243.94" rerouteNo="0" devices="tripinfo_71" vType="DEFAULT_VEHTYPE" speedFactor="1.02" vaporized=""/>
    <tripinfo id="57" depart="241.00" departLane="top1B3_0" departPos="5.10" departSpeed="0.00" departDelay="0.00" arrival="682.00" arrivalLane="A2left2_0" arrivalPos="286.40" arrivalSpeed="11.09" duration="441.00" routeLength="1179.77" waitingTime="326.00" waitingCount="2" stopTime="0.00" timeLoss="342.47" rerouteNo="0" devices="tripinfo_57" vType="DEFAULT_VEHTYPE" speedFactor="0.87" vaporized=""/>
    <tripinfo id="68" depart="304.00" departLane="top1B3_0" departPos="5.10" departSpeed="0.00" departDelay="0.00" arrival="682.00" arrivalLane="A2left2_1" arrivalPos="286.40" arrivalSpeed="13.49" duration="378.00" routeLength="1179.77" waitingTime="272.00" waitingCount="2" stopTime="0.00" timeLoss="290.64" rerouteNo="0" devices="tripinfo_68" vType="DEFAULT_VEHTYPE" speedFactor="0.99" vaporized=""/>
    <tripinfo id="76" depart="344.00" departLane="top1B3_0" departPos="5.10" departSpeed="0.00" departDelay="0.00" arrival="683.00" arrivalLane="B3top1_0" arrivalPos="286.40" arrivalSpeed="13.19" duration="339.00" routeLength="1748.75" waitingTime="185.00" waitingCount="4" stopTime="0.00" timeLoss="215.03" rerouteNo="0" devices="tripinfo_76" vType="DEFAULT_VEHTYPE" speedFactor="1.03" vaporized=""/>
    <tripinfo id="139" depart="608.00" departLane="bottom0A0_0" departPos="5.10" departSpeed="0.00" departDelay="1.00" arrival="685.00" arrivalLane="B0bottom1_0" arrivalPos="286.40" arrivalSpeed="12.88" duration="77.00" routeLength="858.56" waitingTime="1.00" waitingCount="1" stopTime="0.00" timeLoss="12.81" rerouteNo="0" devices="tripinfo_139" vType="DEFAULT_VEHTYPE" speedFactor="0.98" vaporized=""/>
    <tripinfo id="153" depart="652.00" departLane="top0A3_0" departPos="5.10" departSpeed="0.00" departDelay="0.00" arrival="694.00" arrivalLane="A3left3_0" arrivalPos="286.40" arrivalSpeed="16.76" duration="42.00" routeLength="576.73" waitingTime="0.00" waitingCount="0" stopTime="0.00" timeLoss="6.92" rerouteNo="0" devices="tripinfo_153" vType="DEFAULT_VEHTYPE" speedFactor="1.21" vaporized=""/>
    <tripinfo id="84" depart="388.00" departLane="left3A3_0" departPos="5.10" departSpeed="0.00" departDelay="0.00" arrival="733.00" arrivalLane="A1left1_0" arrivalPos="286.40" arrivalSpeed="14.22" duration="345.00" routeLength="1161.43" waitingTime="247.00" waitingCount="2" stopTime="0.00" timeLoss="266.75" rerouteNo="0" devices="tripinfo_84" vType="DEFAULT_VEHTYPE" speedFactor="1.09" vaporized=""/>
    <tripinfo id="157" depart="669.00" departLane="top1B3_0" departPos="5.10" departSpeed="0.00" departDelay="0.00" arrival="736.00" arrivalLane="C3top2_0" arrivalPos="286.40" arrivalSpeed="15.28" duration="67.00" routeLength="894.86" waitingTime="0.00" waitingCount="0" stopTime="0.00" timeLoss="6.87" rerouteNo="0" devices="tripinfo_157" vType="DEFAULT_VEHTYPE" speedFactor="1.11" vaporized=""/>
    <tripinfo id="33" depart="145.00" departLane="left1A1_0" departPos="5.10" departSpeed="0.00" departDelay="0.00" arrival="757.00" arrivalLane="A1left1_0" arrivalPos="286.40" arrivalSpeed="14.42" duration="612.00" routeLength="1748.75" waitingTime="465.00" waitingCount="4" stopTime="0.00" timeLoss="498.10" rerouteNo="0" devices="tripinfo_33" vType="DEFAULT_VEHTYPE" speedFactor="1.13" vaporized=""/>
    <tripinfo id="43" depart="181.00" departLane="right0D0_0" departPos="5.10" departSpeed="0.00" departDelay="0.00" arrival="758.00" arrivalLane="B3top1_0" arrivalPos="286.40" arrivalSpeed="14.10" duration="577.00" routeLength="2080.28" waitingTime="407.00" waitingCount="3" stopTime="0.00" timeLoss="434.47" rerouteNo="0" devices="tripinfo_43" vType="DEFAULT_VEHTYPE" speedFactor="1.06" vaporized=""/>
    <tripinfo id="72" depart="330.00" departLane="bottom0A0_0" departPos="5.10" departSpeed="0.00" departDelay="0.00" arrival="761.00" arrivalLane="A1left1_0" arrivalPos="286.40" arrivalSpeed="13.74" duration="431.00" routeLength="897.72" waitingTime="350.00" waitingCount="2" stopTime="0.00" timeLoss="366.11" rerouteNo="0" devices="tripinfo_72" vType="DEFAULT_VEHTYPE" speedFactor="1.01" vaporized=""/>
    <tripinfo id="86" depart="397.00" departLane="bottom0A0_0" departPos="5.10" departSpeed="0.00" departDelay="0.00" arrival="761.00" arrivalLane="A1left1_1" arrivalPos="286.40" arrivalSpeed="15.17" duration="364.00" routeLength="897.72" waitingTime="283.00" waitingCount="2" stopTime="0.00" timeLoss="306.71" rerouteNo="0" devices="tripinfo_86" vType="DEFAULT_VEHTYPE" speedFactor="1.15" vaporized=""/>
    <tripinfo id="13" depart="47.00" departLane="right1D1_0" departPos="5.10" departSpeed="0.00" departDelay="0.00" arrival="762.00" arrivalLane="B3top1_0" arrivalPos="286.40" arrivalSpeed="12.81" duration="715.00" routeLength="1780.11" waitingTime="544.00" waitingCount="4" stopTime="0.00" timeLoss="576.88" rerouteNo="0" devices="tripinfo_13" vType="DEFAULT_VEHTYPE" speedFactor="0.93" vaporized=""/>
    <tripinfo id="73" depart="335.00" departLane="bottom2C0_0" departPos="5.10" departSpeed="0.00" departDelay="0.00" arrival="764.00" arrivalLane="B3top1_1" arrivalPos="286.40" arrivalSpeed="13.01" duration="429.00" routeLength="1782.59" waitingTime="266.00" waitingCount="4" stopTime="0.00" timeLoss="295.59" rerouteNo="0" devices="tripinfo_73" vType="DEFAULT_VEHTYPE" speedFactor="0.97" vaporized=""/>
    <tripinfo id="134" depart="589.00" departLane="right2D2_0" departPos="5.10" departSpeed="0.00" departDelay="0.00" arrival="768.00" arrivalLane="D1right1_0" arrivalPos="286.40" arrivalSpeed="15.49" duration="179.00" routeLength="894.86" waitingTime="111.00" waitingCount="1" stopTime="0.00" timeLoss="122.96" rerouteNo="0" devices="tripinfo_134" vType="DEFAULT_VEHTYPE" speedFactor="1.16" vaporized=""/>
    <tripinfo id="77" depart="345.00" departLane="bottom1B0_0" departPos="5.10" departSpeed="0.00" departDelay="0.00" arrival="772.00" arrivalLane="A3top0_0" arrivalPos="286.40" arrivalSpeed="13.60" duration="427.00" routeLength="1782.59" waitingTime="266.00" waitingCount="4" stopTime="0.00" timeLoss="304.58" rerouteNo="0" devices="tripinfo_77" vType="DEFAULT_VEHTYPE" speedFactor="1.06" vaporized=""/>