<?xml version="1.0" encoding="UTF-8"?>

<!-- generated on 2023-08-30 13:44:39 by Eclipse SUMO libsumo Version 1.18.0
<configuration xmlns:xsi="http://www.w3.org/2001/XMLSchema-instance" xsi:noNamespaceSchemaLocation="http://sumo.dlr.de/xsd/libsumoConfiguration.xsd">

    <input>
        <net-file value="/home/stefan/RESCO/./environments/grid4x4/grid4x4.net.xml"/>
        <route-files value="/home/stefan/RESCO/./environments/grid4x4/grid4x4_77.rou.xml"/>
    </input>

    <output>
        <tripinfo-output value="/home/stefan/results/RAINBOW-tr0-grid4x4-0-drq_norm-wait_norm/tripinfo_77.xml"/>
        <tripinfo-output.write-unfinished value="true"/>
    </output>

    <processing>
        <time-to-teleport value="-1"/>
    </processing>

    <report>
        <no-warnings value="True"/>
        <no-step-log value="True"/>
    </report>

    <random_number>
        <random value="true"/>
    </random_number>

</configuration>
-->

<tripinfos xmlns:xsi="http://www.w3.org/2001/XMLSchema-instance" xsi:noNamespaceSchemaLocation="http://sumo.dlr.de/xsd/tripinfo_file.xsd">
    <tripinfo id="0" depart="0.00" departLane="top0A3_0" departPos="5.10" departSpeed="0.00" departDelay="0.00" arrival="74.00" arrivalLane="A2left2_0" arrivalPos="286.40" arrivalSpeed="14.50" duration="74.00" routeLength="876.90" waitingTime="1.00" waitingCount="1" stopTime="0.00" timeLoss="14.88" rerouteNo="0" devices="tripinfo_0" vType="DEFAULT_VEHTYPE" speedFactor="1.09" vaporized=""/>
    <tripinfo id="19" depart="65.00" departLane="bottom0A0_0" departPos="5.10" departSpeed="0.00" departDelay="0.00" arrival="151.00" arrivalLane="B0bottom1_0" arrivalPos="286.40" arrivalSpeed="11.30" duration="86.00" routeLength="858.56" waitingTime="1.00" waitingCount="1" stopTime="0.00" timeLoss="15.44" rerouteNo="0" devices="tripinfo_19" vType="DEFAULT_VEHTYPE" speedFactor="0.90" vaporized=""/>
    <tripinfo id="11" depart="50.00" departLane="left2A2_0" departPos="5.10" departSpeed="0.00" departDelay="0.00" arrival="152.00" arrivalLane="A0left0_0" arrivalPos="286.40" arrivalSpeed="12.42" duration="102.00" routeLength="1161.43" waitingTime="1.00" waitingCount="1" stopTime="0.00" timeLoss="15.24" rerouteNo="0" devices="tripinfo_11" vType="DEFAULT_VEHTYPE" speedFactor="0.98" vaporized=""/>
    <tripinfo id="29" depart="146.00" departLane="top1B3_0" departPos="5.10" departSpeed="0.00" departDelay="0.00" arrival="215.00" arrivalLane="A3top0_0" arrivalPos="286.40" arrivalSpeed="15.94" duration="69.00" routeLength="858.56" waitingTime="1.00" waitingCount="1" stopTime="0.00" timeLoss="14.44" rerouteNo="0" devices="tripinfo_29" vType="DEFAULT_VEHTYPE" speedFactor="1.17" vaporized=""/>
    <tripinfo id="21" depart="82.00" departLane="bottom1B0_0" departPos="5.10" departSpeed="0.00" departDelay="0.00" arrival="243.00" arrivalLane="D0bottom3_0" arrivalPos="286.40" arrivalSpeed="11.04" duration="161.00" routeLength="1161.43" waitingTime="41.00" waitingCount="3" stopTime="0.00" timeLoss="64.88" rerouteNo="0" devices="tripinfo_21" vType="DEFAULT_VEHTYPE" speedFactor="0.88" vaporized=""/>
    <tripinfo id="34" depart="166.00" departLane="left1A1_0" departPos="5.10" departSpeed="0.00" departDelay="0.00" arrival="246.00" arrivalLane="A0bottom0_0" arrivalPos="286.40" arrivalSpeed="11.93" duration="80.00" routeLength="879.60" waitingTime="1.00" waitingCount="1" stopTime="0.00" timeLoss="11.75" rerouteNo="0" devices="tripinfo_34" vType="DEFAULT_VEHTYPE" speedFactor="0.94" vaporized=""/>
    <tripinfo id="30" depart="150.00" departLane="right1D1_0" departPos="5.10" departSpeed="0.00" departDelay="0.00" arrival="250.00" arrivalLane="D3right3_0" arrivalPos="286.40" arrivalSpeed="13.10" duration="100.00" routeLength="1161.43" waitingTime="1.00" waitingCount="1" stopTime="0.00" timeLoss="15.57" rerouteNo="0" devices="tripinfo_30" vType="DEFAULT_VEHTYPE" speedFactor="1.01" vaporized=""/>
    <tripinfo id="25" depart="122.00" departLane="top0A3_0" departPos="5.10" departSpeed="0.00" departDelay="0.00" arrival="251.00" arrivalLane="A1left1_0" arrivalPos="286.40" arrivalSpeed="14.89" duration="129.00" routeLength="1177.07" waitingTime="35.00" waitingCount="1" stopTime="0.00" timeLoss="50.92" rerouteNo="0" devices="tripinfo_25" vType="DEFAULT_VEHTYPE" speedFactor="1.10" vaporized=""/>
    <tripinfo id="48" depart="225.00" departLane="bottom2C0_0" departPos="5.10" departSpeed="0.00" departDelay="0.00" arrival="334.00" arrivalLane="D1right1_0" arrivalPos="286.40" arrivalSpeed="11.26" duration="109.00" routeLength="1179.77" waitingTime="0.00" waitingCount="0" stopTime="0.00" timeLoss="9.82" rerouteNo="0" devices="tripinfo_48" vType="DEFAULT_VEHTYPE" speedFactor="0.87" vaporized=""/>
    <tripinfo id="62" depart="282.00" departLane="right2D2_0" departPos="5.10" departSpeed="0.00" departDelay="0.00" arrival="358.00" arrivalLane="D3right3_0" arrivalPos="286.40" arrivalSpeed="14.01" duration="76.00" routeLength="858.56" waitingTime="1.00" waitingCount="1" stopTime="0.00" timeLoss="14.96" rerouteNo="0" devices="tripinfo_62" vType="DEFAULT_VEHTYPE" speedFactor="1.04" vaporized=""/>
    <tripinfo id="73" depart="323.00" departLane="right2D2_0" departPos="5.10" departSpeed="0.00" departDelay="0.00" arrival="396.00" arrivalLane="D3right3_0" arrivalPos="286.40" arrivalSpeed="13.77" duration="73.00" routeLength="858.56" waitingTime="1.00" waitingCount="1" stopTime="0.00" timeLoss="14.02" rerouteNo="0" devices="tripinfo_73" vType="DEFAULT_VEHTYPE" speedFactor="1.07" vaporized=""/>
    <tripinfo id="80" depart="345.00" departLane="left0A0_0" departPos="5.10" departSpeed="0.00" departDelay="0.00" arrival="399.00" arrivalLane="A0bottom0_0" arrivalPos="286.40" arrivalSpeed="12.34" duration="54.00" routeLength="576.73" waitingTime="1.00" waitingCount="1" stopTime="0.00" timeLoss="11.10" rerouteNo="0" devices="tripinfo_80" vType="DEFAULT_VEHTYPE" speedFactor="0.98" vaporized=""/>
    <tripinfo id="20" depart="79.00" departLane="left2A2_0" departPos="5.10" departSpeed="0.00" departDelay="0.00" arrival="401.00" arrivalLane="D3top3_0" arrivalPos="286.40" arrivalSpeed="13.80" duration="322.00" routeLength="1795.52" waitingTime="172.00" waitingCount="2" stopTime="0.00" timeLoss="195.03" rerouteNo="0" devices="tripinfo_20" vType="DEFAULT_VEHTYPE" speedFactor="1.03" vaporized=""/>
    <tripinfo id="18" depart="64.00" departLane="bottom1B0_0" departPos="5.10" departSpeed="0.00" departDelay="0.00" arrival="421.00" arrivalLane="D1right1_0" arrivalPos="286.40" arrivalSpeed="13.07" duration="357.00" routeLength="1479.94" waitingTime="231.00" waitingCount="2" stopTime="0.00" timeLoss="251.91" rerouteNo="0" devices="tripinfo_18" vType="DEFAULT_VEHTYPE" speedFactor="1.03" vaporized=""/>
    <tripinfo id="82" depart="350.00" departLane="left3A3_0" departPos="5.10" departSpeed="0.00" departDelay="0.00" arrival="424.00" arrivalLane="A2left2_0" arrivalPos="286.40" arrivalSpeed="15.66" duration="74.00" routeLength="858.56" waitingTime="2.00" waitingCount="2" stopTime="0.00" timeLoss="21.06" rerouteNo="0" devices="tripinfo_82" vType="DEFAULT_VEHTYPE" speedFactor="1.19" vaporized=""/>
    <tripinfo id="71" depart="321.00" departLane="right0D0_0" departPos="5.10" departSpeed="0.00" departDelay="0.00" arrival="426.00" arrivalLane="D1right1_0" arrivalPos="286.40" arrivalSpeed="13.02" duration="105.00" routeLength="858.56" waitingTime="27.00" waitingCount="2" stopTime="0.00" timeLoss="42.67" rerouteNo="0" devices="tripinfo_71" vType="DEFAULT_VEHTYPE" speedFactor="1.02" vaporized=""/>
    <tripinfo id="23" depart="95.00" departLane="top3D3_0" departPos="5.10" departSpeed="0.00" departDelay="0.00" arrival="487.00" arrivalLane="D3top3_0" arrivalPos="286.40" arrivalSpeed="15.37" duration="392.00" routeLength="1748.75" waitingTime="242.00" waitingCount="5" stopTime="0.00" timeLoss="278.96" rerouteNo="0" devices="tripinfo_23" vType="DEFAULT_VEHTYPE" speedFactor="1.13" vaporized=""/>
    <tripinfo id="4" depart="25.00" departLane="top2C3_0" departPos="5.10" departSpeed="0.00" departDelay="0.00" arrival="488.00" arrivalLane="D3right3_0" arrivalPos="286.40" arrivalSpeed="14.68" duration="463.00" routeLength="895.01" waitingTime="383.00" waitingCount="2" stopTime="0.00" timeLoss="401.47" rerouteNo="0" devices="tripinfo_4" vType="DEFAULT_VEHTYPE" speedFactor="1.07" vaporized=""/>
    <tripinfo id="88" depart="366.00" departLane="top1B3_0" departPos="5.10" departSpeed="0.00" departDelay="0.00" arrival="490.00" arrivalLane="D3right3_1" arrivalPos="286.40" arrivalSpeed="15.27" duration="124.00" routeLength="1195.18" waitingTime="29.00" waitingCount="2" stopTime="0.00" timeLoss="50.23" rerouteNo="0" devices="tripinfo_88" vType="DEFAULT_VEHTYPE" speedFactor="1.18" vaporized=""/>
    <tripinfo id="74" depart="325.00" departLane="top2C3_0" departPos="5.10" departSpeed="0.00" departDelay="0.00" arrival="496.00" arrivalLane="D3right3_0" arrivalPos="286.40" arrivalSpeed="10.97" duration="171.00" routeLength="895.01" waitingTime="78.00" waitingCount="1" stopTime="0.00" timeLoss="90.54" rerouteNo="0" devices="tripinfo_74" vType="DEFAULT_VEHTYPE" speedFactor="0.81" vaporized=""/>
    <tripinfo id="104" depart="434.00" departLane="right1D1_0" departPos="5.10" departSpeed="0.00" departDelay="0.00" arrival="512.00" arrivalLane="D2right2_0" arrivalPos="286.40" arrivalSpeed="13.05" duration="78.00" routeLength="858.56" waitingTime="1.00" waitingCount="1" stopTime="0.00" timeLoss="13.40" rerouteNo="0" devices="tripinfo_104" vType="DEFAULT_VEHTYPE" speedFactor="0.98" vaporized=""/>
    <tripinfo id="17" depart="62.00" departLane="left2A2_0" departPos="5.10" departSpeed="0.00" departDelay="0.00" arrival="530.00" arrivalLane="A2left2_0" arrivalPos="286.40" arrivalSpeed="12.61" duration="468.00" routeLength="1748.75" waitingTime="302.00" waitingCount="4" stopTime="0.00" timeLoss="334.97" rerouteNo="0" devices="tripinfo_17" vType="DEFAULT_VEHTYPE" speedFactor="0.96" vaporized=""/>
    <tripinfo id="7" depart="36.00" departLane="right2D2_0" departPos="5.10" departSpeed="0.00" departDelay="0.00" arrival="537.00" arrivalLane="D0right0_0" arrivalPos="286.40" arrivalSpeed="15.41" duration="501.00" routeLength="1197.66" waitingTime="401.00" waitingCount="3" stopTime="0.00" timeLoss="427.15" rerouteNo="0" devices="tripinfo_7" vType="DEFAULT_VEHTYPE" speedFactor="1.19" vaporized=""/>
    <tripinfo id="111" depart="465.00" departLane="right1D1_0" departPos="5.10" departSpeed="0.00" departDelay="0.00" arrival="608.00" arrivalLane="D0right0_0" arrivalPos="286.40" arrivalSpeed="14.40" duration="143.00" routeLength="894.86" waitingTime="71.00" waitingCount="1" stopTime="0.00" timeLoss="84.44" rerouteNo="0" devices="tripinfo_111" vType="DEFAULT_VEHTYPE" speedFactor="1.12" vaporized=""/>
    <tripinfo id="120" depart="506.00" departLane="right1D1_0" departPos="5.10" departSpeed="0.00" departDelay="0.00" arrival="609.00" arrivalLane="D3top3_0" arrivalPos="286.40" arrivalSpeed="12.52" duration="103.00" routeLength="1179.77" waitingTime="1.00" waitingCount="1" stopTime="0.00" timeLoss="13.87" rerouteNo="0" devices="tripinfo_120" vType="DEFAULT_VEHTYPE" speedFactor="0.96" vaporized=""/>
    <tripinfo id="131" depart="567.00" departLane="bottom3D0_0" departPos="5.10" departSpeed="0.00" departDelay="0.00" arrival="628.00" arrivalLane="D0right0_0" arrivalPos="286.40" arrivalSpeed="11.15" duration="61.00" routeLength="576.73" waitingTime="1.00" waitingCount="1" stopTime="0.00" timeLoss="10.84" rerouteNo="0" devices="tripinfo_131" vType="DEFAULT_VEHTYPE" speedFactor="0.85" vaporized=""/>
    <tripinfo id="140" depart="586.00" departLane="right1D1_0" departPos="5.10" departSpeed="0.00" departDelay="0.00" arrival="680.00" arrivalLane="D3right3_0" arrivalPos="286.40" arrivalSpeed="14.93" duration="94.00" routeLength="1161.43" waitingTime="2.00" waitingCount="2" stopTime="0.00" timeLoss="16.54" rerouteNo="0" devices="tripinfo_140" vType="DEFAULT_VEHTYPE" speedFactor="1.10" vaporized=""/>
    <tripinfo id="152" depart="644.00" departLane="top0A3_0" departPos="5.10" departSpeed="0.00" departDelay="0.00" arrival="695.00" arrivalLane="A3left3_0" arrivalPos="286.40" arrivalSpeed="12.91" duration="51.00" routeLength="576.73" waitingTime="0.00" waitingCount="0" stopTime="0.00" timeLoss="6.36" rerouteNo="0" devices="tripinfo_152" vType="DEFAULT_VEHTYPE" speedFactor="0.95" vaporized=""/>
    <tripinfo id="154" depart="648.00" departLane="left0A0_0" departPos="5.10" departSpeed="0.00" departDelay="0.00" arrival="698.00" arrivalLane="A0bottom0_0" arrivalPos="286.40" arrivalSpeed="14.64" duration="50.00" routeLength="576.73" waitingTime="1.00" waitingCount="1" stopTime="0.00" timeLoss="12.64" rerouteNo="0" devices="tripinfo_154" vType="DEFAULT_VEHTYPE" speedFactor="1.14" vaporized=""/>
    <tripinfo id="148" depart="617.00" departLane="left2A2_0" departPos="5.10" departSpeed="0.00" departDelay="0.00" arrival="742.00" arrivalLane="A0left0_0" arrivalPos="286.40" arrivalSpeed="10.45" duration="125.00" routeLength="1161.43" waitingTime="1.00" waitingCount="1" stopTime="0.00" timeLoss="17.04" rerouteNo="0" devices="tripinfo_148" vType="DEFAULT_VEHTYPE" speedFactor="0.79" vaporized=""/>
    <tripinfo id="8" depart="38.00" departLane="top0A3_0" departPos="5.10" departSpeed="0.00" departDelay="0.00" arrival="749.00" arrivalLane="B0bottom1_0" arrivalPos="286.40" arrivalSpeed="13.59" duration="711.00" routeLength="1782.59" waitingTime="552.00" waitingCount="3" stopTime="0.00" timeLoss="579.20" rerouteNo="0" devices="tripinfo_8" vType="DEFAULT_VEHTYPE" speedFactor="0.98" vaporized=""/>
    <tripinfo id="53" depart="251.00" departLane="top1B3_0" departPos="5.10" departSpeed="0.00" departDelay="0.00" arrival="749.00" arrivalLane="B0bottom1_1" arrivalPos="286.40" arrivalSpeed="14.31" duration="498.00" routeLength="1495.58" waitingTime="369.00" waitingCount="3" stopTime="0.00" timeLoss="399.44" rerouteNo="0" devices="tripinfo_53" vType="DEFAULT_VEHTYPE" speedFactor="1.10" vaporized=""/>
    <tripinfo id="3" depart="17.00" departLane="top1B3_0" departPos="5.10" departSpeed="0.00" departDelay="0.00" arrival="780.00" arrivalLane="C0bottom2_0" arrivalPos="286.40" arrivalSpeed="13.32" duration="763.00" routeLength="1782.59" waitingTime="603.00" waitingCount="3" stopTime="0.00" timeLoss="632.11" rerouteNo="0" devices="tripinfo_3" vType="DEFAULT_VEHTYPE" speedFactor="0.99" vaporized=""/>
    <tripinfo id="174" depart="697.00" departLane="left2A2_0" departPos="5.10" departSpeed="0.00" departDelay="0.00" arrival="788.00" arrivalLane="A0bottom0_0" arrivalPos="286.40" arrivalSpeed="14.66" duration="91.00" routeLength="1179.77" waitingTime="1.00" waitingCount="1" stopTime="0.00" timeLoss="12.97" rerouteNo="0" devices="tripinfo_174" vType="DEFAULT_VEHTYPE" speedFactor="1.10" vaporized=""/>
    <tripinfo id="191" depart="751.00" departLane="right3D3_0" departPos="5.10" departSpeed="0.00" departDelay="2.00" arrival="795.00" arrivalLane="D3top3_0" arrivalPos="286.40" arrivalSpeed="15.18" duration="44.00" routeLength="576.73" waitingTime="0.00" waitingCount="0" stopTime="0.00" timeLoss="7.17" rerouteNo="0" devices="tripinfo_191" vType="DEFAULT_VEHTYPE" speedFactor="1.16" vaporized=""/>
    <tripinfo id="181" depart="720.00" departLane="bottom0A0_0" departPos="5.10" departSpeed="0.00" departDelay="0.00" arrival="797.00" arrivalLane="B0bottom1_0" arrivalPos="286.40" arrivalSpeed="13.18" duration="77.00" routeLength="858.56" waitingTime="1.00" waitingCount="1" stopTime="0.00" timeLoss="13.13" rerouteNo="0" devices="tripinfo_181" vType="DEFAULT_VEHTYPE" speedFactor="1.00" vaporized=""/>
    <tripinfo id="41" depart="200.00" departLane="bottom3D0_0" departPos="5.10" departSpeed="0.00" departDelay="0.00" arrival="810.00" arrivalLane="C0bottom2_0" arrivalPos="286.40" arrivalSpeed="12.58" duration="610.00" routeLength="894.86" waitingTime="531.00" waitingCount="1" stopTime="0.00" timeLoss="543.67" rerouteNo="0" devices="tripinfo_41" vType="DEFAULT_VEHTYPE" speedFactor="0.99" vaporized=""/>
    <tripinfo id="114" depart="479.00" departLane="bottom2C0_0" departPos="5.10" departSpeed="0.00" departDelay="0.00" arrival="813.00" arrivalLane="C0bottom2_1" arrivalPos="286.40" arrivalSpeed="13.77" duration="334.00" routeLength="1748.75" waitingTime="178.00" waitingCount="3" stopTime="0.00" timeLoss="210.38" rerouteNo="0" devices="tripinfo_114" vType="DEFAULT_VEHTYPE" speedFactor="1.04" vaporized=""/>
    <tripinfo id="31" depart="153.00" departLane="bottom2C0_0" departPos="5.10" departSpeed="0.00" departDelay="0.00" arrival="814.00" arrivalLane="C0bottom2_0" arrivalPos="286.40" arrivalSpeed="12.55" duration="661.00" routeLength="1748.75" waitingTime="496.00" waitingCount="2" stopTime="0.00" timeLoss="520.03" rerouteNo="0" devices="tripinfo_31" vType="DEFAULT_VEHTYPE" speedFactor="0.91" vaporized=""/>
    <tripinfo id="27" depart="140.00" departLane="right2D2_0" departPos="5.10" departSpeed="0.00" departDelay="0.00" arrival="839.00" arrivalLane="B3top1_0" arrivalPos="286.40" arrivalSpeed="12.86" duration="699.00" routeLength="1479.94" waitingTime="559.00" waitingCount="4" stopTime="0.00" timeLoss="589.76" rerouteNo="0" devices="tripinfo_27" vType="DEFAULT_VEHTYPE" speedFactor="0.98" vaporized=""/>
    <tripinfo id="189" depart="748.00" departLane="right3D3_0" departPos="5.10" departSpeed="0.00" departDelay="0.00" arrival="848.00" arrivalLane="D2right2_1" arrivalPos="286.40" arrivalSpeed="15.75" duration="100.00" routeLength="894.86" waitingTime="30.00" waitingCount="1" stopTime="0.00" timeLoss="44.48" rerouteNo="0" devices="tripinfo_189" vType="DEFAULT_VEHTYPE" speedFactor="1.18" vaporized=""/>
    <tripinfo id="100" depart="407.00" departLane="right3D3_0" departPos="5.10" departSpeed="0.00" departDelay="0.00" arrival="849.00" arrivalLane="D2right2_0" arrivalPos="286.40" arrivalSpeed="13.73" duration="442.00" routeLength="894.86" waitingTime="360.00" waitingCount="2" stopTime="0.00" timeLoss="376.55" rerouteNo="0" devices="tripinfo_100" vType="DEFAULT_VEHTYPE" speedFactor="1.01" vaporized=""/>
    <tripinfo id="197" depart="779.00" departLane="bottom2C0_0" departPos="5.10" departSpeed="0.00" departDelay="0.00" arrival="851.00" arrivalLane="D0bottom3_0" arrivalPos="286.40" arrivalSpeed="15.28" duration="72.00" routeLength="858.56" waitingTime="1.00" waitingCount="1" stopTime="0.00" timeLoss="15.27" rerouteNo="0" devices="tripinfo_197" vType="DEFAULT_VEHTYPE" speedFactor="1.12" vaporized=""/>
    <tripinfo id="147" depart="612.00" departLane="top3D3_0" departPos="5.10" departSpeed="0.00" departDelay="0.00" arrival="872.00" arrivalLane="D3right3_0" arrivalPos="286.40" arrivalSpeed="11.45" duration="260.00" routeLength="597.55" waitingTime="202.00" waitingCount="1" stopTime="0.00" timeLoss="211.44" rerouteNo="0" devices="tripinfo_147" vType="DEFAULT_VEHTYPE" speedFactor="0.90" vaporized=""/>
    <tripinfo id="24" depart="101.00" departLane="top3D3_0" departPos="5.10" departSpeed="0.00" departDelay="0.00" arrival="887.00" arrivalLane="A2left2_0" arrivalPos="286.40" arrivalSpeed="14.71" duration="786.00" routeLength="1780.11" waitingTime="623.00" waitingCount="5" stopTime="0.00" timeLoss="667.47" rerouteNo="0" devices="tripinfo_24" vType="DEFAULT_VEHTYPE" speedFactor="1.09" vaporized=""/>
    <tripinfo id="33" depart="164.00" departLane="top3D3_0" departPos="5.10" departSpeed="0.00" departDelay="0.00" arrival="892.00" arrivalLane="A2left2_0" arrivalPos="286.40" arrivalSpeed="12.82" duration="728.00" routeLength="1780.11" waitingTime="552.00" waitingCount="5" stopTime="0.00" timeLoss="593.35" rerouteNo="0" devices="tripinfo_33" vType="DEFAULT_VEHTYPE" speedFactor="0.96" vaporized=""/>
    <tripinfo id="203" depart="797.00" departLane="bottom2C0_0" departPos="5.10" departSpeed="0.00" departDelay="0.00" arrival="897.00" arrivalLane="D1right1_0" arrivalPos="286.40" arrivalSpeed="11.87" duration="100.00" routeLength="1179.77" waitingTime="0.00" waitingCount="0" stopTime="0.00" timeLoss="7.87" rerouteNo="0" devices="tripinfo_203" vType="DEFAULT_VEHTYPE" speedFactor="0.94" vaporized=""/>
    <tripinfo id="207" depart="822.00" departLane="right3D3_0" departPos="5.10" departSpeed="0.00" departDelay="0.00" arrival="897.00" arrivalLane="C3top2_0" arrivalPos="286.40" arrivalSpeed="15.57" duration="75.00" routeLength="876.90" waitingTime="4.00" waitingCount="1" stopTime="0.00" timeLoss="19.04" rerouteNo="0" devices="tripinfo_207" vType="DEFAULT_VEHTYPE" speedFactor="1.15" vaporized=""/>
    <tripinfo id="214" depart="833.00" departLane="top3D3_0" departPos="5.10" departSpeed="0.00" departDelay="0.00" arrival="916.00" arrivalLane="C3top2_0" arrivalPos="286.40" arrivalSpeed="12.90" duration="83.00" routeLength="858.56" waitingTime="5.00" waitingCount="2" stopTime="0.00" timeLoss="21.05" rerouteNo="0" devices="tripinfo_214" vType="DEFAULT_VEHTYPE" speedFactor="1.02" vaporized=""/>
    <tripinfo id="220" depart="861.00" departLane="right0D0_0" departPos="5.10" departSpeed="0.00" departDelay="0.00" arrival="932.00" arrivalLane="D1right1_0" arrivalPos="286.40" arrivalSpeed="16.61" duration="71.00" routeLength="858.56" waitingTime="2.00" waitingCount="2" stopTime="0.00" timeLoss="19.83" rerouteNo="0" devices="tripinfo_220" vType="DEFAULT_VEHTYPE" speedFactor="1.24" vaporized=""/>
    <tripinfo id="201" depart="789.00" departLane="right1D1_0" departPos="5.10" departSpeed="0.00" departDelay="0.00" arrival="967.00" arrivalLane="D3right3_0" arrivalPos="286.40" arrivalSpeed="12.70" duration="178.00" routeLength="1161.43" waitingTime="72.00" waitingCount="3" stopTime="0.00" timeLoss="92.08" rerouteNo="0" devices="tripinfo_201" vType="DEFAULT_VEHTYPE" speedFactor="0.99" vaporized=""/>
    <tripinfo id="235" depart="892.00" departLane="right1D1_0" departPos="5.10" departSpeed="0.00" departDelay="0.00" arrival="1001.00" arrivalLane="D3right3_0" arrivalPos="286.40" arrivalSpeed="12.81" duration="109.00" routeLength="1161.43" waitingTime="2.00" waitingCount="2" stopTime="0.00" timeLoss="21.42" rerouteNo="0" devices="tripinfo_235" vType="DEFAULT_VEHTYPE" speedFactor="0.97" vaporized=""/>
    <tripinfo id="216" depart="834.00" departLane="right1D1_0" departPos="5.10" departSpeed="0.00" departDelay="0.00" arrival="1017.00" arrivalLane="D3top3_0" arrivalPos="286.40" arrivalSpeed="15.36" duration="183.00" routeLength="1179.77" waitingTime="81.00" waitingCount="3" stopTime="0.00" timeLoss="106.98" rerouteNo="0" devices="tripinfo_216" vType="DEFAULT_VEHTYPE" speedFactor="1.14" vaporized=""/>
    <tripinfo id="234" depart="889.00" departLane="right1D1_0" departPos="5.10" departSpeed="0.00" departDelay="0.00" arrival="1018.00" arrivalLane="D3top3_0" arrivalPos="286.40" arrivalSpeed="15.44" duration="129.00" routeLength="1179.77" waitingTime="35.00" waitingCount="2" stopTime="0.00" timeLoss="53.35" rerouteNo="0" devices="tripinfo_234" vType="DEFAULT_VEHTYPE" speedFactor="1.13" vaporized=""/>
    <tripinfo id="245" depart="943.00" departLane="right1D1_0" departPos="5.10" departSpeed="0.00" departDelay="0.00" arrival="1045.00" arrivalLane="D3top3_0" arrivalPos="286.40" arrivalSpeed="13.14" duration="102.00" routeLength="1179.77" waitingTime="1.00" waitingCount="1" stopTime="0.00" timeLoss="12.97" rerouteNo="0" devices="tripinfo_245" vType="DEFAULT_VEHTYPE" speedFactor="0.97" vaporized=""/>
    <tripinfo id="255" depart="972.00" departLane="right1D1_0" departPos="5.10" departSpeed="0.00" departDelay="0.00" arrival="1074.00" arrivalLane="D3right3_0" arrivalPos="286.40" arrivalSpeed="13.12" duration="102.00" routeLength="1161.43" waitingTime="1.00" waitingCount="1" stopTime="0.00" timeLoss="14.95" rerouteNo="0" devices="tripinfo_255" vType="DEFAULT_VEHTYPE" speedFactor="0.98" vaporized=""/>
    <tripinfo id="254" depart="971.00" departLane="top3D3_0" departPos="5.10" departSpeed="0.00" departDelay="0.00" arrival="1091.00" arrivalLane="D3right3_0" arrivalPos="286.40" arrivalSpeed="11.88" duration="120.00" routeLength="597.55" waitingTime="64.00" waitingCount="1" stopTime="0.00" timeLoss="73.27" rerouteNo="0" devices="tripinfo_254" vType="DEFAULT_VEHTYPE" speedFactor="0.93" vaporized=""/>
    <tripinfo id="274" depart="1021.00" departLane="top3D3_0" departPos="5.10" departSpeed="0.00" departDelay="0.00" arrival="1095.00" arrivalLane="D3right3_0" arrivalPos="286.40" arrivalSpeed="11.16" duration="74.00" routeLength="597.55" waitingTime="13.00" waitingCount="1" stopTime="0.00" timeLoss="23.25" rerouteNo="0" devices="tripinfo_274" vType="DEFAULT_VEHTYPE" speedFactor="0.86" vaporized=""/>
    <tripinfo id="284" depart="1039.00" departLane="left2A2_0" departPos="5.10" departSpeed="0.00" departDelay="0.00" arrival="1120.00" arrivalLane="A1left1_0" arrivalPos="286.40" arrivalSpeed="12.82" duration="81.00" routeLength="858.56" waitingTime="2.00" waitingCount="2" stopTime="0.00" timeLoss="16.65" rerouteNo="0" devices="tripinfo_284" vType="DEFAULT_VEHTYPE" speedFactor="0.98" vaporized=""/>
    <tripinfo id="282" depart="1034.00" departLane="right1D1_0" departPos="5.10" departSpeed="0.00" departDelay="0.00" arrival="1121.00" arrivalLane="D3top3_0" arrivalPos="286.40" arrivalSpeed="15.31" duration="87.00" routeLength="1179.77" waitingTime="1.00" waitingCount="1" stopTime="0.00" timeLoss="12.79" rerouteNo="0" devices="tripinfo_282" vType="DEFAULT_VEHTYPE" speedFactor="1.16" vaporized=""/>
    <tripinfo id="304" depart="1076.00" departLane="left0A0_0" departPos="5.10" departSpeed="0.00" departDelay="0.00" arrival="1137.00" arrivalLane="A0bottom0_0" arrivalPos="286.40" arrivalSpeed="10.55" duration="61.00" routeLength="576.73" waitingTime="1.00" waitingCount="1" stopTime="0.00" timeLoss="10.74" rerouteNo="0" devices="tripinfo_304" vType="DEFAULT_VEHTYPE" speedFactor="0.84" vaporized=""/>
    <tripinfo id="83" depart="353.00" departLane="left3A3_0" departPos="5.10" departSpeed="0.00" departDelay="1.00" arrival="1157.00" arrivalLane="A3left3_0" arrivalPos="286.40" arrivalSpeed="14.99" duration="804.00" routeLength="1748.75" waitingTime="656.00" waitingCount="4" stopTime="0.00" timeLoss="687.83" rerouteNo="0" devices="tripinfo_83" vType="DEFAULT_VEHTYPE" speedFactor="1.10" vaporized=""/>
    <tripinfo id="305" depart="1085.00" departLane="right2D2_0" departPos="5.10" departSpeed="0.00" departDelay="0.00" arrival="1157.00" arrivalLane="D3top3_0" arrivalPos="286.40" arrivalSpeed="13.75" duration="72.00" routeLength="879.60" waitingTime="1.00" waitingCount="1" stopTime="0.00" timeLoss="12.25" rerouteNo="0" devices="tripinfo_305" vType="DEFAULT_VEHTYPE" speedFactor="1.08" vaporized=""/>
    <tripinfo id="312" depart="1095.00" departLane="bottom0A0_0" departPos="5.10" departSpeed="0.00" departDelay="0.00" arrival="1173.00" arrivalLane="B0bottom1_0" arrivalPos="286.40" arrivalSpeed="12.89" duration="78.00" routeLength="858.56" waitingTime="0.00" waitingCount="0" stopTime="0.00" timeLoss="9.95" rerouteNo="0" devices="tripinfo_312" vType="DEFAULT_VEHTYPE" speedFactor="0.93" vaporized=""/>
    <tripinfo id="1" depart="11.00" departLane="top0A3_0" departPos="5.10" departSpeed="0.00" departDelay="0.00" arrival="1191.00" arrivalLane="D0right0_0" arrivalPos="286.40" arrivalSpeed="12.40" duration="1180.00" routeLength="2395.86" waitingTime="970.00" waitingCount="2" stopTime="0.00" timeLoss="992.71" rerouteNo="0" devices="tripinfo_1" vType="DEFAULT_VEHTYPE" speedFactor="0.93" vaporized=""/>
    <tripinfo id="132" depart="569.00" departLane="bottom2C0_0" departPos="5.10" departSpeed="0.00" departDelay="0.00" arrival="1191.00" arrivalLane="D0right0_1" arrivalPos="286.40" arrivalSpeed="12.73" duration="622.00" routeLength="879.60" waitingTime="544.00" waitingCount="1" stopTime="0.00" timeLoss="557.58" rerouteNo="0" devices="tripinfo_132" vType="DEFAULT_VEHTYPE" speedFactor="1.00" vaporized=""/>
    <tripinfo id="315" depart="1104.00" departLane="bottom2C0_0" departPos="5.10" departSpeed="0.00" departDelay="0.00" arrival="1193.00" arrivalLane="D0right0_0" arrivalPos="286.40" arrivalSpeed="13.81" duration="89.00" routeLength="879.60" waitingTime="10.00" waitingCount="1" stopTime="0.00" timeLoss="24.52" rerouteNo="0" devices="tripinfo_315" vType="DEFAULT_VEHTYPE" speedFactor="1.01" vaporized=""/>
    <tripinfo id="309" depart="1090.00" departLane="top3D3_0" departPos="5.10" departSpeed="0.00" departDelay="0.00" arrival="1196.00" arrivalLane="B3top1_0" arrivalPos="286.40" arrivalSpeed="12.75" duration="106.00" routeLength="1161.43" waitingTime="2.00" waitingCount="2" stopTime="0.00" timeLoss="20.43" rerouteNo="0" devices="tripinfo_309" vType="DEFAULT_VEHTYPE" speedFactor="1.00" vaporized=""/>
    <tripinfo id="262" depart="994.00" departLane="left2A2_0" departPos="5.10" departSpeed="0.00" departDelay="2.00" arrival="1220.00" arrivalLane="B3top1_0" arrivalPos="286.40" arrivalSpeed="13.43" duration="226.00" routeLength="1195.18" waitingTime="130.00" waitingCount="1" stopTime="0.00" timeLoss="142.14" rerouteNo="0" devices="tripinfo_262" vType="DEFAULT_VEHTYPE" speedFactor="1.04" vaporized=""/>
    <tripinfo id="270" depart="1014.00" departLane="left2A2_0" departPos="5.10" departSpeed="0.00" departDelay="0.00" arrival="1220.00" arrivalLane="B3top1_1" arrivalPos="286.40" arrivalSpeed="15.67" duration="206.00" routeLength="1195.18" waitingTime="110.00" waitingCount="2" stopTime="0.00" timeLoss="131.73" rerouteNo="0" devices="tripinfo_270" vType="DEFAULT_VEHTYPE" speedFactor="1.18" vaporized=""/>
    <tripinfo id="157" depart="661.00" departLane="bottom2C0_0" departPos="5.10" departSpeed="0.00" departDelay="0.00" arrival="1227.00" arrivalLane="C0bottom2_0" arrivalPos="286.40" arrivalSpeed="15.95" duration="566.00" routeLength="1748.75" waitingTime="419.00" waitingCount="3" stopTime="0.00" timeLoss="454.12" rerouteNo="0" devices="tripinfo_157" vType="DEFAULT_VEHTYPE" speedFactor="1.15" vaporized=""/>