<?xml version="1.0" encoding="UTF-8"?>

<!-- generated on 2023-08-30 13:37:32 by Eclipse SUMO libsumo Version 1.18.0
<configuration xmlns:xsi="http://www.w3.org/2001/XMLSchema-instance" xsi:noNamespaceSchemaLocation="http://sumo.dlr.de/xsd/libsumoConfiguration.xsd">

    <input>
        <net-file value="/home/stefan/RESCO/./environments/grid4x4/grid4x4.net.xml"/>
        <route-files value="/home/stefan/RESCO/./environments/grid4x4/grid4x4_67.rou.xml"/>
    </input>

    <output>
        <tripinfo-output value="/home/stefan/results/RAINBOW-tr0-grid4x4-0-drq_norm-wait_norm/tripinfo_67.xml"/>
        <tripinfo-output.write-unfinished value="true"/>
    </output>

    <processing>
        <time-to-teleport value="-1"/>
    </processing>

    <report>
        <no-warnings value="True"/>
        <no-step-log value="True"/>
    </report>

    <random_number>
        <random value="true"/>
    </random_number>

</configuration>
-->

<tripinfos xmlns:xsi="http://www.w3.org/2001/XMLSchema-instance" xsi:noNamespaceSchemaLocation="http://sumo.dlr.de/xsd/tripinfo_file.xsd">
    <tripinfo id="1" depart="12.00" departLane="top0A3_0" departPos="5.10" departSpeed="0.00" departDelay="0.00" arrival="64.00" arrivalLane="A3left3_0" arrivalPos="286.40" arrivalSpeed="12.44" duration="52.00" routeLength="576.73" waitingTime="0.00" waitingCount="0" stopTime="0.00" timeLoss="7.70" rerouteNo="0" devices="tripinfo_1" vType="DEFAULT_VEHTYPE" speedFactor="0.96" vaporized=""/>
    <tripinfo id="10" depart="38.00" departLane="left3A3_0" departPos="5.10" departSpeed="0.00" departDelay="0.00" arrival="122.00" arrivalLane="A2left2_0" arrivalPos="286.40" arrivalSpeed="12.34" duration="84.00" routeLength="858.56" waitingTime="1.00" waitingCount="1" stopTime="0.00" timeLoss="14.28" rerouteNo="0" devices="tripinfo_10" vType="DEFAULT_VEHTYPE" speedFactor="0.90" vaporized=""/>
    <tripinfo id="11" depart="44.00" departLane="bottom0A0_0" departPos="5.10" departSpeed="0.00" departDelay="0.00" arrival="122.00" arrivalLane="B0bottom1_0" arrivalPos="286.40" arrivalSpeed="14.89" duration="78.00" routeLength="858.56" waitingTime="2.00" waitingCount="2" stopTime="0.00" timeLoss="20.94" rerouteNo="0" devices="tripinfo_11" vType="DEFAULT_VEHTYPE" speedFactor="1.11" vaporized=""/>
    <tripinfo id="6" depart="24.00" departLane="right3D3_0" departPos="5.10" departSpeed="0.00" departDelay="0.00" arrival="176.00" arrivalLane="A3top0_0" arrivalPos="286.40" arrivalSpeed="14.14" duration="152.00" routeLength="1477.24" waitingTime="24.00" waitingCount="3" stopTime="0.00" timeLoss="51.11" rerouteNo="0" devices="tripinfo_6" vType="DEFAULT_VEHTYPE" speedFactor="1.07" vaporized=""/>
    <tripinfo id="3" depart="19.00" departLane="top3D3_0" departPos="5.10" departSpeed="0.00" departDelay="0.00" arrival="183.00" arrivalLane="A3top0_0" arrivalPos="286.40" arrivalSpeed="12.66" duration="164.00" routeLength="1461.60" waitingTime="21.00" waitingCount="4" stopTime="0.00" timeLoss="55.82" rerouteNo="0" devices="tripinfo_3" vType="DEFAULT_VEHTYPE" speedFactor="0.98" vaporized=""/>
    <tripinfo id="30" depart="145.00" departLane="bottom3D0_0" departPos="5.10" departSpeed="0.00" departDelay="0.00" arrival="198.00" arrivalLane="D0right0_0" arrivalPos="286.40" arrivalSpeed="14.66" duration="53.00" routeLength="576.73" waitingTime="1.00" waitingCount="1" stopTime="0.00" timeLoss="12.81" rerouteNo="0" devices="tripinfo_30" vType="DEFAULT_VEHTYPE" speedFactor="1.06" vaporized=""/>
    <tripinfo id="37" depart="166.00" departLane="right2D2_0" departPos="5.10" departSpeed="0.00" departDelay="0.00" arrival="240.00" arrivalLane="D3right3_0" arrivalPos="286.40" arrivalSpeed="13.47" duration="74.00" routeLength="858.56" waitingTime="0.00" waitingCount="0" stopTime="0.00" timeLoss="13.05" rerouteNo="0" devices="tripinfo_37" vType="DEFAULT_VEHTYPE" speedFactor="1.04" vaporized=""/>
    <tripinfo id="38" depart="170.00" departLane="top1B3_0" departPos="5.10" departSpeed="0.00" departDelay="0.00" arrival="250.00" arrivalLane="A3left3_0" arrivalPos="286.40" arrivalSpeed="13.29" duration="80.00" routeLength="879.60" waitingTime="2.00" waitingCount="1" stopTime="0.00" timeLoss="14.21" rerouteNo="0" devices="tripinfo_38" vType="DEFAULT_VEHTYPE" speedFactor="0.97" vaporized=""/>
    <tripinfo id="0" depart="1.00" departLane="bottom1B0_0" departPos="5.10" departSpeed="0.00" departDelay="0.00" arrival="252.00" arrivalLane="D1right1_0" arrivalPos="286.40" arrivalSpeed="13.59" duration="251.00" routeLength="1479.94" waitingTime="115.00" waitingCount="3" stopTime="0.00" timeLoss="143.14" rerouteNo="0" devices="tripinfo_0" vType="DEFAULT_VEHTYPE" speedFactor="1.00" vaporized=""/>
    <tripinfo id="19" depart="88.00" departLane="left1A1_0" departPos="5.10" departSpeed="0.00" departDelay="0.00" arrival="259.00" arrivalLane="A3top0_1" arrivalPos="286.40" arrivalSpeed="14.31" duration="171.00" routeLength="1195.18" waitingTime="60.00" waitingCount="2" stopTime="0.00" timeLoss="92.40" rerouteNo="0" devices="tripinfo_19" vType="DEFAULT_VEHTYPE" speedFactor="1.10" vaporized=""/>
    <tripinfo id="8" depart="32.00" departLane="left1A1_0" departPos="5.10" departSpeed="0.00" departDelay="0.00" arrival="261.00" arrivalLane="A3top0_0" arrivalPos="286.40" arrivalSpeed="12.35" duration="229.00" routeLength="1195.18" waitingTime="111.00" waitingCount="3" stopTime="0.00" timeLoss="134.75" rerouteNo="0" devices="tripinfo_8" vType="DEFAULT_VEHTYPE" speedFactor="0.92" vaporized=""/>
    <tripinfo id="42" depart="201.00" departLane="left1A1_0" departPos="5.10" departSpeed="0.00" departDelay="0.00" arrival="278.00" arrivalLane="A0bottom0_0" arrivalPos="286.40" arrivalSpeed="13.92" duration="77.00" routeLength="879.60" waitingTime="1.00" waitingCount="1" stopTime="0.00" timeLoss="12.53" rerouteNo="0" devices="tripinfo_42" vType="DEFAULT_VEHTYPE" speedFactor="1.00" vaporized=""/>
    <tripinfo id="43" depart="205.00" departLane="right0D0_0" departPos="5.10" departSpeed="0.00" departDelay="0.00" arrival="286.00" arrivalLane="D1right1_0" arrivalPos="286.40" arrivalSpeed="12.36" duration="81.00" routeLength="858.56" waitingTime="1.00" waitingCount="1" stopTime="0.00" timeLoss="14.90" rerouteNo="0" devices="tripinfo_43" vType="DEFAULT_VEHTYPE" speedFactor="0.95" vaporized=""/>
    <tripinfo id="15" depart="65.00" departLane="bottom0A0_0" departPos="5.10" departSpeed="0.00" departDelay="0.00" arrival="316.00" arrivalLane="A3top0_0" arrivalPos="286.40" arrivalSpeed="11.23" duration="251.00" routeLength="1495.58" waitingTime="105.00" waitingCount="1" stopTime="0.00" timeLoss="124.24" rerouteNo="0" devices="tripinfo_15" vType="DEFAULT_VEHTYPE" speedFactor="0.85" vaporized=""/>
    <tripinfo id="24" depart="122.00" departLane="bottom1B0_0" departPos="5.10" departSpeed="0.00" departDelay="0.00" arrival="340.00" arrivalLane="A3top0_0" arrivalPos="286.40" arrivalSpeed="13.70" duration="218.00" routeLength="1782.59" waitingTime="73.00" waitingCount="2" stopTime="0.00" timeLoss="95.05" rerouteNo="0" devices="tripinfo_24" vType="DEFAULT_VEHTYPE" speedFactor="1.05" vaporized=""/>
    <tripinfo id="49" depart="250.00" departLane="top1B3_0" departPos="5.10" departSpeed="0.00" departDelay="0.00" arrival="349.00" arrivalLane="C3top2_0" arrivalPos="286.40" arrivalSpeed="14.12" duration="99.00" routeLength="894.86" waitingTime="22.00" waitingCount="1" stopTime="0.00" timeLoss="33.96" rerouteNo="0" devices="tripinfo_49" vType="DEFAULT_VEHTYPE" speedFactor="1.02" vaporized=""/>
    <tripinfo id="34" depart="163.00" departLane="top1B3_0" departPos="5.10" departSpeed="0.00" departDelay="0.00" arrival="368.00" arrivalLane="B3top1_0" arrivalPos="286.40" arrivalSpeed="14.01" duration="205.00" routeLength="1748.75" waitingTime="54.00" waitingCount="3" stopTime="0.00" timeLoss="84.86" rerouteNo="0" devices="tripinfo_34" vType="DEFAULT_VEHTYPE" speedFactor="1.06" vaporized=""/>
    <tripinfo id="62" depart="305.00" departLane="right2D2_0" departPos="5.10" departSpeed="0.00" departDelay="0.00" arrival="383.00" arrivalLane="D3right3_0" arrivalPos="286.40" arrivalSpeed="14.75" duration="78.00" routeLength="858.56" waitingTime="2.00" waitingCount="2" stopTime="0.00" timeLoss="20.06" rerouteNo="0" devices="tripinfo_62" vType="DEFAULT_VEHTYPE" speedFactor="1.08" vaporized=""/>
    <tripinfo id="5" depart="23.00" departLane="right2D2_0" departPos="5.10" departSpeed="0.00" departDelay="0.00" arrival="385.00" arrivalLane="C0bottom2_0" arrivalPos="286.40" arrivalSpeed="15.78" duration="362.00" routeLength="1495.35" waitingTime="240.00" waitingCount="3" stopTime="0.00" timeLoss="271.68" rerouteNo="0" devices="tripinfo_5" vType="DEFAULT_VEHTYPE" speedFactor="1.20" vaporized=""/>
    <tripinfo id="7" depart="29.00" departLane="bottom1B0_0" departPos="5.10" departSpeed="0.00" departDelay="0.00" arrival="388.00" arrivalLane="B0bottom1_0" arrivalPos="286.40" arrivalSpeed="14.36" duration="359.00" routeLength="1748.75" waitingTime="195.00" waitingCount="4" stopTime="0.00" timeLoss="237.73" rerouteNo="0" devices="tripinfo_7" vType="DEFAULT_VEHTYPE" speedFactor="1.06" vaporized=""/>
    <tripinfo id="22" depart="105.00" departLane="bottom0A0_0" departPos="5.10" departSpeed="0.00" departDelay="0.00" arrival="391.00" arrivalLane="D0right0_0" arrivalPos="286.40" arrivalSpeed="13.95" duration="286.00" routeLength="1479.94" waitingTime="159.00" waitingCount="3" stopTime="0.00" timeLoss="184.55" rerouteNo="0" devices="tripinfo_22" vType="DEFAULT_VEHTYPE" speedFactor="1.06" vaporized=""/>
    <tripinfo id="16" depart="65.00" departLane="bottom1B0_0" departPos="5.10" departSpeed="0.00" departDelay="0.00" arrival="395.00" arrivalLane="D0bottom3_0" arrivalPos="286.40" arrivalSpeed="13.13" duration="330.00" routeLength="1161.43" waitingTime="224.00" waitingCount="1" stopTime="0.00" timeLoss="240.21" rerouteNo="0" devices="tripinfo_16" vType="DEFAULT_VEHTYPE" speedFactor="0.95" vaporized=""/>
    <tripinfo id="61" depart="300.00" departLane="bottom1B0_0" departPos="5.10" departSpeed="0.00" departDelay="0.00" arrival="402.00" arrivalLane="D0bottom3_0" arrivalPos="286.40" arrivalSpeed="13.18" duration="102.00" routeLength="1161.43" waitingTime="1.00" waitingCount="1" stopTime="0.00" timeLoss="16.70" rerouteNo="0" devices="tripinfo_61" vType="DEFAULT_VEHTYPE" speedFactor="1.00" vaporized=""/>
    <tripinfo id="78" depart="377.00" departLane="bottom3D0_0" departPos="5.10" departSpeed="0.00" departDelay="0.00" arrival="431.00" arrivalLane="D0right0_0" arrivalPos="286.40" arrivalSpeed="12.41" duration="54.00" routeLength="576.73" waitingTime="1.00" waitingCount="1" stopTime="0.00" timeLoss="10.95" rerouteNo="0" devices="tripinfo_78" vType="DEFAULT_VEHTYPE" speedFactor="0.98" vaporized=""/>
    <tripinfo id="66" depart="323.00" departLane="top0A3_0" departPos="5.10" departSpeed="0.00" departDelay="0.00" arrival="438.00" arrivalLane="A0bottom0_0" arrivalPos="286.40" arrivalSpeed="14.53" duration="115.00" routeLength="1495.58" waitingTime="2.00" waitingCount="1" stopTime="0.00" timeLoss="17.79" rerouteNo="0" devices="tripinfo_66" vType="DEFAULT_VEHTYPE" speedFactor="1.11" vaporized=""/>
    <tripinfo id="20" depart="88.00" departLane="bottom2C0_0" departPos="5.10" departSpeed="0.00" departDelay="0.00" arrival="454.00" arrivalLane="C3top2_0" arrivalPos="286.40" arrivalSpeed="12.73" duration="366.00" routeLength="1495.58" waitingTime="234.00" waitingCount="2" stopTime="0.00" timeLoss="254.00" rerouteNo="0" devices="tripinfo_20" vType="DEFAULT_VEHTYPE" speedFactor="0.96" vaporized=""/>
    <tripinfo id="17" depart="70.00" departLane="right3D3_0" departPos="5.10" departSpeed="0.00" departDelay="0.00" arrival="468.00" arrivalLane="B3top1_0" arrivalPos="286.40" arrivalSpeed="13.17" duration="398.00" routeLength="1177.07" waitingTime="290.00" waitingCount="3" stopTime="0.00" timeLoss="313.67" rerouteNo="0" devices="tripinfo_17" vType="DEFAULT_VEHTYPE" speedFactor="1.01" vaporized=""/>
    <tripinfo id="63" depart="313.00" departLane="right3D3_0" departPos="5.10" departSpeed="0.00" departDelay="0.00" arrival="474.00" arrivalLane="B3top1_0" arrivalPos="286.40" arrivalSpeed="15.42" duration="161.00" routeLength="1177.07" waitingTime="50.00" waitingCount="3" stopTime="0.00" timeLoss="84.14" rerouteNo="0" devices="tripinfo_63" vType="DEFAULT_VEHTYPE" speedFactor="1.11" vaporized=""/>
    <tripinfo id="2" depart="17.00" departLane="bottom1B0_0" departPos="5.10" departSpeed="0.00" departDelay="0.00" arrival="475.00" arrivalLane="A0left0_0" arrivalPos="286.40" arrivalSpeed="12.98" duration="458.00" routeLength="895.01" waitingTime="376.00" waitingCount="1" stopTime="0.00" timeLoss="389.09" rerouteNo="0" devices="tripinfo_2" vType="DEFAULT_VEHTYPE" speedFactor="0.95" vaporized=""/>
    <tripinfo id="76" depart="367.00" departLane="left3A3_0" departPos="5.10" departSpeed="0.00" departDelay="0.00" arrival="481.00" arrivalLane="A0bottom0_0" arrivalPos="286.40" arrivalSpeed="14.15" duration="114.00" routeLength="1479.94" waitingTime="1.00" waitingCount="1" stopTime="0.00" timeLoss="14.99" rerouteNo="0" devices="tripinfo_76" vType="DEFAULT_VEHTYPE" speedFactor="1.08" vaporized=""/>
    <tripinfo id="21" depart="105.00" departLane="top3D3_0" departPos="5.10" departSpeed="0.00" departDelay="0.00" arrival="486.00" arrivalLane="C0bottom2_0" arrivalPos="286.40" arrivalSpeed="12.00" duration="381.00" routeLength="1782.72" waitingTime="217.00" waitingCount="2" stopTime="0.00" timeLoss="239.85" rerouteNo="0" devices="tripinfo_21" vType="DEFAULT_VEHTYPE" speedFactor="0.92" vaporized=""/>
    <tripinfo id="36" depart="165.00" departLane="top2C3_0" departPos="5.10" departSpeed="0.00" departDelay="0.00" arrival="488.00" arrivalLane="C0bottom2_0" arrivalPos="286.40" arrivalSpeed="12.16" duration="323.00" routeLength="1495.58" waitingTime="181.00" waitingCount="3" stopTime="0.00" timeLoss="205.80" rerouteNo="0" devices="tripinfo_36" vType="DEFAULT_VEHTYPE" speedFactor="0.92" vaporized=""/>
    <tripinfo id="81" depart="396.00" departLane="left2A2_0" departPos="5.10" departSpeed="0.00" departDelay="0.00" arrival="489.00" arrivalLane="A0bottom0_0" arrivalPos="286.40" arrivalSpeed="14.89" duration="93.00" routeLength="1179.77" waitingTime="1.00" waitingCount="1" stopTime="0.00" timeLoss="13.40" rerouteNo="0" devices="tripinfo_81" vType="DEFAULT_VEHTYPE" speedFactor="1.08" vaporized=""/>
    <tripinfo id="72" depart="359.00" departLane="bottom0A0_0" departPos="5.10" departSpeed="0.00" departDelay="0.00" arrival="490.00" arrivalLane="C0bottom2_0" arrivalPos="286.40" arrivalSpeed="13.38" duration="131.00" routeLength="1161.43" waitingTime="23.00" waitingCount="2" stopTime="0.00" timeLoss="43.44" rerouteNo="0" devices="tripinfo_72" vType="DEFAULT_VEHTYPE" speedFactor="0.97" vaporized=""/>
    <tripinfo id="39" depart="185.00" departLane="bottom0A0_0" departPos="5.10" departSpeed="0.00" departDelay="0.00" arrival="501.00" arrivalLane="A1left1_0" arrivalPos="286.40" arrivalSpeed="12.61" duration="316.00" routeLength="897.72" waitingTime="229.00" waitingCount="2" stopTime="0.00" timeLoss="246.66" rerouteNo="0" devices="tripinfo_39" vType="DEFAULT_VEHTYPE" speedFactor="0.95" vaporized=""/>
    <tripinfo id="31" depart="150.00" departLane="top1B3_0" departPos="5.10" departSpeed="0.00" departDelay="0.00" arrival="539.00" arrivalLane="A1left1_0" arrivalPos="286.40" arrivalSpeed="13.22" duration="389.00" routeLength="1479.94" waitingTime="250.00" waitingCount="3" stopTime="0.00" timeLoss="280.29" rerouteNo="0" devices="tripinfo_31" vType="DEFAULT_VEHTYPE" speedFactor="0.99" vaporized=""/>
    <tripinfo id="52" depart="262.00" departLane="top0A3_0" departPos="5.10" departSpeed="0.00" departDelay="0.00" arrival="547.00" arrivalLane="C0bottom2_0" arrivalPos="286.40" arrivalSpeed="15.79" duration="285.00" routeLength="2080.05" waitingTime="132.00" waitingCount="2" stopTime="0.00" timeLoss="153.52" rerouteNo="0" devices="tripinfo_52" vType="DEFAULT_VEHTYPE" speedFactor="1.15" vaporized=""/>
    <tripinfo id="65" depart="320.00" departLane="right0D0_0" departPos="5.10" departSpeed="0.00" departDelay="0.00" arrival="548.00" arrivalLane="D0right0_0" arrivalPos="286.40" arrivalSpeed="14.81" duration="228.00" routeLength="1748.75" waitingTime="82.00" waitingCount="3" stopTime="0.00" timeLoss="108.62" rerouteNo="0" devices="tripinfo_65" vType="DEFAULT_VEHTYPE" speedFactor="1.07" vaporized=""/>
    <tripinfo id="53" depart="263.00" departLane="right2D2_0" departPos="5.10" departSpeed="0.00" departDelay="0.00" arrival="554.00" arrivalLane="D1right1_0" arrivalPos="286.40" arrivalSpeed="12.79" duration="291.00" routeLength="894.86" waitingTime="213.00" waitingCount="1" stopTime="0.00" timeLoss="223.18" rerouteNo="0" devices="tripinfo_53" vType="DEFAULT_VEHTYPE" speedFactor="0.97" vaporized=""/>
    <tripinfo id="114" depart="532.00" departLane="top0A3_0" departPos="5.10" departSpeed="0.00" departDelay="0.00" arrival="585.00" arrivalLane="A3left3_0" arrivalPos="286.40" arrivalSpeed="13.99" duration="53.00" routeLength="576.73" waitingTime="1.00" waitingCount="1" stopTime="0.00" timeLoss="11.93" rerouteNo="0" devices="tripinfo_114" vType="DEFAULT_VEHTYPE" speedFactor="1.02" vaporized=""/>
    <tripinfo id="56" depart="265.00" departLane="top1B3_0" departPos="5.10" departSpeed="0.00" departDelay="0.00" arrival="593.00" arrivalLane="A0left0_0" arrivalPos="286.40" arrivalSpeed="11.35" duration="328.00" routeLength="1780.11" waitingTime="150.00" waitingCount="3" stopTime="0.00" timeLoss="176.79" rerouteNo="0" devices="tripinfo_56" vType="DEFAULT_VEHTYPE" speedFactor="0.85" vaporized=""/>
    <tripinfo id="23" depart="110.00" departLane="left1A1_0" departPos="5.10" departSpeed="0.00" departDelay="0.00" arrival="617.00" arrivalLane="D3right3_0" arrivalPos="286.40" arrivalSpeed="15.53" duration="507.00" routeLength="2080.05" waitingTime="329.00" waitingCount="5" stopTime="0.00" timeLoss="372.69" rerouteNo="0" devices="tripinfo_23" vType="DEFAULT_VEHTYPE" speedFactor="1.13" vaporized=""/>
    <tripinfo id="12" depart="45.00" departLane="top1B3_0" departPos="5.10" departSpeed="0.00" departDelay="0.00" arrival="618.00" arrivalLane="D3top3_0" arrivalPos="286.40" arrivalSpeed="14.02" duration="573.00" routeLength="1197.66" waitingTime="472.00" waitingCount="2" stopTime="0.00" timeLoss="492.55" rerouteNo="0" devices="tripinfo_12" vType="DEFAULT_VEHTYPE" speedFactor="1.09" vaporized=""/>
    <tripinfo id="18" depart="78.00" departLane="top1B3_0" departPos="5.10" departSpeed="0.00" departDelay="0.00" arrival="619.00" arrivalLane="D3top3_1" arrivalPos="286.40" arrivalSpeed="15.44" duration="541.00" routeLength="1197.66" waitingTime="441.00" waitingCount="1" stopTime="0.00" timeLoss="464.31" rerouteNo="0" devices="tripinfo_18" vType="DEFAULT_VEHTYPE" speedFactor="1.14" vaporized=""/>
    <tripinfo id="44" depart="226.00" departLane="bottom2C0_0" departPos="5.10" departSpeed="0.00" departDelay="0.00" arrival="621.00" arrivalLane="D3right3_0" arrivalPos="286.40" arrivalSpeed="14.11" duration="395.00" routeLength="1780.11" waitingTime="238.00" waitingCount="3" stopTime="0.00" timeLoss="268.75" rerouteNo="0" devices="tripinfo_44" vType="DEFAULT_VEHTYPE" speedFactor="1.03" vaporized=""/>
    <tripinfo id="14" depart="62.00" departLane="top2C3_0" departPos="5.10" departSpeed="0.00" departDelay="0.00" arrival="624.00" arrivalLane="D3top3_0" arrivalPos="286.40" arrivalSpeed="12.63" duration="562.00" routeLength="894.86" waitingTime="476.00" waitingCount="2" stopTime="0.00" timeLoss="495.77" rerouteNo="0" devices="tripinfo_14" vType="DEFAULT_VEHTYPE" speedFactor="1.00" vaporized=""/>
    <tripinfo id="58" depart="274.00" departLane="bottom2C0_0" departPos="5.10" departSpeed="0.00" departDelay="1.00" arrival="640.00" arrivalLane="A0bottom0_0" arrivalPos="286.40" arrivalSpeed="13.43" duration="366.00" routeLength="1197.66" waitingTime="258.00" waitingCount="2" stopTime="0.00" timeLoss="277.10" rerouteNo="0" devices="tripinfo_58" vType="DEFAULT_VEHTYPE" speedFactor="0.99" vaporized=""/>
    <tripinfo id="55" depart="265.00" departLane="left0A0_0" departPos="5.10" departSpeed="0.00" departDelay="0.00" arrival="659.00" arrivalLane="A1left1_0" arrivalPos="286.40" arrivalSpeed="14.55" duration="394.00" routeLength="894.86" waitingTime="322.00" waitingCount="1" stopTime="0.00" timeLoss="333.94" rerouteNo="0" devices="tripinfo_55" vType="DEFAULT_VEHTYPE" speedFactor="1.10" vaporized=""/>
    <tripinfo id="125" depart="572.00" departLane="top2C3_0" departPos="5.10" departSpeed="0.00" departDelay="0.00" arrival="661.00" arrivalLane="B3top1_0" arrivalPos="286.40" arrivalSpeed="10.65" duration="89.00" routeLength="858.56" waitingTime="1.00" waitingCount="1" stopTime="0.00" timeLoss="11.93" rerouteNo="0" devices="tripinfo_125" vType="DEFAULT_VEHTYPE" speedFactor="0.82" vaporized=""/>
    <tripinfo id="119" depart="543.00" departLane="left0A0_0" departPos="5.10" departSpeed="0.00" departDelay="0.00" arrival="668.00" arrivalLane="A1left1_0" arrivalPos="286.40" arrivalSpeed="13.05" duration="125.00" routeLength="894.86" waitingTime="44.00" waitingCount="1" stopTime="0.00" timeLoss="57.41" rerouteNo="0" devices="tripinfo_119" vType="DEFAULT_VEHTYPE" speedFactor="0.97" vaporized=""/>
    <tripinfo id="95" depart="451.00" departLane="right0D0_0" departPos="5.10" departSpeed="0.00" departDelay="0.00" arrival="680.00" arrivalLane="B0bottom1_0" arrivalPos="286.40" arrivalSpeed="13.09" duration="229.00" routeLength="1197.89" waitingTime="120.00" waitingCount="2" stopTime="0.00" timeLoss="139.50" rerouteNo="0" devices="tripinfo_95" vType="DEFAULT_VEHTYPE" speedFactor="0.98" vaporized=""/>
    <tripinfo id="142" depart="648.00" departLane="top0A3_0" departPos="5.10" departSpeed="0.00" departDelay="0.00" arrival="695.00" arrivalLane="A3left3_0" arrivalPos="286.40" arrivalSpeed="16.15" duration="47.00" routeLength="576.73" waitingTime="1.00" waitingCount="1" stopTime="0.00" timeLoss="11.33" rerouteNo="0" devices="tripinfo_142" vType="DEFAULT_VEHTYPE" speedFactor="1.18" vaporized=""/>
    <tripinfo id="132" depart="598.00" departLane="bottom0A0_0" departPos="5.10" departSpeed="0.00" departDelay="0.00" arrival="705.00" arrivalLane="C0bottom2_0" arrivalPos="286.40" arrivalSpeed="11.78" duration="107.00" routeLength="1161.43" waitingTime="1.00" waitingCount="1" stopTime="0.00" timeLoss="15.85" rerouteNo="0" devices="tripinfo_132" vType="DEFAULT_VEHTYPE" speedFactor="0.94" vaporized=""/>
    <tripinfo id="135" depart="622.00" departLane="bottom2C0_0" departPos="5.10" departSpeed="0.00" departDelay="0.00" arrival="705.00" arrivalLane="D0bottom3_0" arrivalPos="286.40" arrivalSpeed="12.72" duration="83.00" routeLength="858.56" waitingTime="2.00" waitingCount="2" stopTime="0.00" timeLoss="16.37" rerouteNo="0" devices="tripinfo_135" vType="DEFAULT_VEHTYPE" speedFactor="0.95" vaporized=""/>
    <tripinfo id="27" depart="134.00" departLane="right3D3_0" departPos="5.10" departSpeed="0.00" departDelay="0.00" arrival="706.00" arrivalLane="D1right1_0" arrivalPos="286.40" arrivalSpeed="15.16" duration="572.00" routeLength="1197.66" waitingTime="477.00" waitingCount="2" stopTime="0.00" timeLoss="496.48" rerouteNo="0" devices="tripinfo_27" vType="DEFAULT_VEHTYPE" speedFactor="1.16" vaporized=""/>
    <tripinfo id="138" depart="635.00" departLane="top0A3_0" departPos="5.10" departSpeed="0.00" departDelay="0.00" arrival="707.00" arrivalLane="B3top1_0" arrivalPos="286.40" arrivalSpeed="13.06" duration="72.00" routeLength="894.86" waitingTime="0.00" waitingCount="0" stopTime="0.00" timeLoss="7.83" rerouteNo="0" devices="tripinfo_138" vType="DEFAULT_VEHTYPE" speedFactor="1.03" vaporized=""/>
    <tripinfo id="13" depart="48.00" departLane="left2A2_0" departPos="5.10" departSpeed="0.00" departDelay="0.00" arrival="730.00" arrivalLane="A3left3_0" arrivalPos="286.40" arrivalSpeed="13.22" duration="682.00" routeLength="894.86" waitingTime="606.00" waitingCount="1" stopTime="0.00" timeLoss="618.79" rerouteNo="0" devices="tripinfo_13" vType="DEFAULT_VEHTYPE" speedFactor="1.04" vaporized=""/>
    <tripinfo id="74" depart="364.00" departLane="bottom2C0_0" departPos="5.10" departSpeed="0.00" departDelay="0.00" arrival="731.00" arrivalLane="B0bottom1_0" arrivalPos="286.40" arrivalSpeed="13.07" duration="367.00" routeLength="894.86" waitingTime="291.00" waitingCount="1" stopTime="0.00" timeLoss="303.28" rerouteNo="0" devices="tripinfo_74" vType="DEFAULT_VEHTYPE" speedFactor="1.03" vaporized=""/>
    <tripinfo id="107" depart="502.00" departLane="left2A2_0" departPos="5.10" departSpeed="0.00" departDelay="0.00" arrival="744.00" arrivalLane="A0bottom0_0" arrivalPos="286.40" arrivalSpeed="12.41" duration="242.00" routeLength="1179.77" waitingTime="135.00" waitingCount="2" stopTime="0.00" timeLoss="151.43" rerouteNo="0" devices="tripinfo_107" vType="DEFAULT_VEHTYPE" speedFactor="0.94" vaporized=""/>
    <tripinfo id="146" depart="658.00" departLane="right0D0_0" departPos="5.10" departSpeed="0.00" departDelay="0.00" arrival="746.00" arrivalLane="D1right1_0" arrivalPos="286.40" arrivalSpeed="12.45" duration="88.00" routeLength="858.56" waitingTime="2.00" waitingCount="2" stopTime="0.00" timeLoss="18.75" rerouteNo="0" devices="tripinfo_146" vType="DEFAULT_VEHTYPE" speedFactor="0.91" vaporized=""/>
    <tripinfo id="67" depart="333.00" departLane="bottom1B0_0" departPos="5.10" departSpeed="0.00" departDelay="0.00" arrival="772.00" arrivalLane="D0bottom3_0" arrivalPos="286.40" arrivalSpeed="11.15" duration="439.00" routeLength="1161.43" waitingTime="318.00" waitingCount="3" stopTime="0.00" timeLoss="339.64" rerouteNo="0" devices="tripinfo_67" vType="DEFAULT_VEHTYPE" speedFactor="0.85" vaporized=""/>
    <tripinfo id="91" depart="426.00" departLane="left0A0_0" departPos="5.10" departSpeed="0.00" departDelay="0.00" arrival="776.00" arrivalLane="D0bottom3_0" arrivalPos="286.40" arrivalSpeed="12.61" duration="350.00" routeLength="1477.24" waitingTime="213.00" waitingCount="3" stopTime="0.00" timeLoss="241.16" rerouteNo="0" devices="tripinfo_91" vType="DEFAULT_VEHTYPE" speedFactor="0.98" vaporized=""/>
    <tripinfo id="153" depart="700.00" departLane="right2D2_0" departPos="5.10" departSpeed="0.00" departDelay="0.00" arrival="781.00" arrivalLane="D3right3_0" arrivalPos="286.40" arrivalSpeed="12.66" duration="81.00" routeLength="858.56" waitingTime="2.00" waitingCount="2" stopTime="0.00" timeLoss="18.15" rerouteNo="0" devices="tripinfo_153" vType="DEFAULT_VEHTYPE" speedFactor="1.00" vaporized=""/>
    <tripinfo id="157" depart="719.00" departLane="top0A3_0" departPos="5.10" departSpeed="0.00" departDelay="0.00" arrival="785.00" arrivalLane="B3top1_0" arrivalPos="286.40" arrivalSpeed="15.00" duration="66.00" routeLength="894.86" waitingTime="0.00" waitingCount="0" stopTime="0.00" timeLoss="9.21" rerouteNo="0" devices="tripinfo_157" vType="DEFAULT_VEHTYPE" speedFactor="1.17" vaporized=""/>
    <tripinfo id="127" depart="577.00" departLane="bottom1B0_0" departPos="5.10" departSpeed="0.00" departDelay="0.00" arrival="794.00" arrivalLane="A0left0_0" arrivalPos="286.40" arrivalSpeed="11.32" duration="217.00" routeLength="895.01" waitingTime="119.00" waitingCount="2" stopTime="0.00" timeLoss="137.99" rerouteNo="0" devices="tripinfo_127" vType="DEFAULT_VEHTYPE" speedFactor="0.82" vaporized=""/>
    <tripinfo id="161" depart="732.00" departLane="bottom0A0_0" departPos="5.10" departSpeed="0.00" departDelay="0.00" arrival="798.00" arrivalLane="A1left1_1" arrivalPos="286.40" arrivalSpeed="16.37" duration="66.00" routeLength="897.72" waitingTime="0.00" waitingCount="0" stopTime="0.00" timeLoss="12.32" rerouteNo="0" devices="tripinfo_161" vType="DEFAULT_VEHTYPE" speedFactor="1.22" vaporized=""/>
    <tripinfo id="158" depart="721.00" departLane="bottom0A0_0" departPos="5.10" departSpeed="0.00" departDelay="0.00" arrival="800.00" arrivalLane="A1left1_0" arrivalPos="286.40" arrivalSpeed="13.04" duration="79.00" routeLength="897.72" waitingTime="2.00" waitingCount="1" stopTime="0.00" timeLoss="12.50" rerouteNo="0" devices="tripinfo_158" vType="DEFAULT_VEHTYPE" speedFactor="0.98" vaporized=""/>
    <tripinfo id="54" depart="264.00" departLane="left1A1_0" departPos="5.10" departSpeed="0.00" departDelay="0.00" arrival="802.00" arrivalLane="D0right0_0" arrivalPos="286.40" arrivalSpeed="11.94" duration="538.00" routeLength="1782.72" waitingTime="357.00" waitingCount="4" stopTime="0.00" timeLoss="389.03" rerouteNo="0" devices="tripinfo_54" vType="DEFAULT_VEHTYPE" speedFactor="0.87" vaporized=""/>
    <tripinfo id="159" depart="725.00" departLane="bottom1B0_0" departPos="5.10" departSpeed="0.00" departDelay="0.00" arrival="806.00" arrivalLane="C0bottom2_0" arrivalPos="286.40" arrivalSpeed="13.09" duration="81.00" routeLength="858.56" waitingTime="2.00" waitingCount="2" stopTime="0.00" timeLoss="16.84" rerouteNo="0" devices="tripinfo_159" vType="DEFAULT_VEHTYPE" speedFactor="0.99" vaporized=""/>
    <tripinfo id="144" depart="653.00" departLane="right3D3_0" departPos="5.10" departSpeed="0.00" departDelay="0.00" arrival="808.00" arrivalLane="D1right1_0" arrivalPos="286.40" arrivalSpeed="11.12" duration="155.00" routeLength="1197.66" waitingTime="44.00" waitingCount="1" stopTime="0.00" timeLoss="56.28" rerouteNo="0" devices="tripinfo_144" vType="DEFAULT_VEHTYPE" speedFactor="0.89" vaporized=""/>
    <tripinfo id="112" depart="527.00" departLane="left0A0_0" departPos="5.10" departSpeed="0.00" departDelay="0.00" arrival="817.00" arrivalLane="B0bottom1_0" arrivalPos="286.40" arrivalSpeed="13.47" duration="290.00" routeLength="876.90" waitingTime="204.00" waitingCount="3" stopTime="0.00" timeLoss="228.62" rerouteNo="0" devices="tripinfo_112" vType="DEFAULT_VEHTYPE" speedFactor="1.05" vaporized=""/>