<?xml version="1.0" encoding="UTF-8"?>

<!-- generated on 2023-08-30 13:47:39 by Eclipse SUMO libsumo Version 1.18.0
<configuration xmlns:xsi="http://www.w3.org/2001/XMLSchema-instance" xsi:noNamespaceSchemaLocation="http://sumo.dlr.de/xsd/libsumoConfiguration.xsd">

    <input>
        <net-file value="/home/stefan/RESCO/./environments/grid4x4/grid4x4.net.xml"/>
        <route-files value="/home/stefan/RESCO/./environments/grid4x4/grid4x4_81.rou.xml"/>
    </input>

    <output>
        <tripinfo-output value="/home/stefan/results/RAINBOW-tr0-grid4x4-0-drq_norm-wait_norm/tripinfo_81.xml"/>
        <tripinfo-output.write-unfinished value="true"/>
    </output>

    <processing>
        <time-to-teleport value="-1"/>
    </processing>

    <report>
        <no-warnings value="True"/>
        <no-step-log value="True"/>
    </report>

    <random_number>
        <random value="true"/>
    </random_number>

</configuration>
-->

<tripinfos xmlns:xsi="http://www.w3.org/2001/XMLSchema-instance" xsi:noNamespaceSchemaLocation="http://sumo.dlr.de/xsd/tripinfo_file.xsd">
    <tripinfo id="6" depart="29.00" departLane="top1B3_0" departPos="5.10" departSpeed="0.00" departDelay="0.00" arrival="107.00" arrivalLane="A3top0_0" arrivalPos="286.40" arrivalSpeed="13.58" duration="78.00" routeLength="858.56" waitingTime="1.00" waitingCount="1" stopTime="0.00" timeLoss="14.72" rerouteNo="0" devices="tripinfo_6" vType="DEFAULT_VEHTYPE" speedFactor="1.01" vaporized=""/>
    <tripinfo id="7" depart="29.00" departLane="right1D1_0" departPos="5.10" departSpeed="0.00" departDelay="0.00" arrival="107.00" arrivalLane="D2right2_0" arrivalPos="286.40" arrivalSpeed="14.06" duration="78.00" routeLength="858.56" waitingTime="2.00" waitingCount="2" stopTime="0.00" timeLoss="16.94" rerouteNo="0" devices="tripinfo_7" vType="DEFAULT_VEHTYPE" speedFactor="1.03" vaporized=""/>
    <tripinfo id="32" depart="177.00" departLane="left2A2_0" departPos="5.10" departSpeed="0.00" departDelay="0.00" arrival="252.00" arrivalLane="A1left1_0" arrivalPos="286.40" arrivalSpeed="14.20" duration="75.00" routeLength="858.56" waitingTime="1.00" waitingCount="1" stopTime="0.00" timeLoss="13.58" rerouteNo="0" devices="tripinfo_32" vType="DEFAULT_VEHTYPE" speedFactor="1.03" vaporized=""/>
    <tripinfo id="34" depart="186.00" departLane="right3D3_0" departPos="5.10" departSpeed="0.00" departDelay="0.00" arrival="264.00" arrivalLane="C3top2_0" arrivalPos="286.40" arrivalSpeed="12.38" duration="78.00" routeLength="876.90" waitingTime="1.00" waitingCount="1" stopTime="0.00" timeLoss="12.65" rerouteNo="0" devices="tripinfo_34" vType="DEFAULT_VEHTYPE" speedFactor="0.97" vaporized=""/>
    <tripinfo id="64" depart="347.00" departLane="right0D0_0" departPos="5.10" departSpeed="0.00" departDelay="0.00" arrival="421.00" arrivalLane="D1right1_0" arrivalPos="286.40" arrivalSpeed="15.10" duration="74.00" routeLength="858.56" waitingTime="2.00" waitingCount="2" stopTime="0.00" timeLoss="17.62" rerouteNo="0" devices="tripinfo_64" vType="DEFAULT_VEHTYPE" speedFactor="1.13" vaporized=""/>
    <tripinfo id="70" depart="376.00" departLane="bottom3D0_0" departPos="5.10" departSpeed="0.00" departDelay="0.00" arrival="427.00" arrivalLane="D0right0_0" arrivalPos="286.40" arrivalSpeed="14.64" duration="51.00" routeLength="576.73" waitingTime="1.00" waitingCount="1" stopTime="0.00" timeLoss="10.76" rerouteNo="0" devices="tripinfo_70" vType="DEFAULT_VEHTYPE" speedFactor="1.06" vaporized=""/>
    <tripinfo id="69" depart="375.00" departLane="left0A0_0" departPos="5.10" departSpeed="0.00" departDelay="0.00" arrival="446.00" arrivalLane="B0bottom1_0" arrivalPos="286.40" arrivalSpeed="14.79" duration="71.00" routeLength="876.90" waitingTime="1.00" waitingCount="1" stopTime="0.00" timeLoss="11.54" rerouteNo="0" devices="tripinfo_69" vType="DEFAULT_VEHTYPE" speedFactor="1.08" vaporized=""/>
    <tripinfo id="81" depart="410.00" departLane="bottom2C0_0" departPos="5.10" departSpeed="0.00" departDelay="0.00" arrival="487.00" arrivalLane="D0right0_0" arrivalPos="286.40" arrivalSpeed="13.84" duration="77.00" routeLength="879.60" waitingTime="1.00" waitingCount="1" stopTime="0.00" timeLoss="13.80" rerouteNo="0" devices="tripinfo_81" vType="DEFAULT_VEHTYPE" speedFactor="1.02" vaporized=""/>
    <tripinfo id="108" depart="513.00" departLane="bottom3D0_0" departPos="5.10" departSpeed="0.00" departDelay="0.00" arrival="564.00" arrivalLane="D0right0_0" arrivalPos="286.40" arrivalSpeed="14.23" duration="51.00" routeLength="576.73" waitingTime="1.00" waitingCount="1" stopTime="0.00" timeLoss="11.40" rerouteNo="0" devices="tripinfo_108" vType="DEFAULT_VEHTYPE" speedFactor="1.07" vaporized=""/>
    <tripinfo id="109" depart="527.00" departLane="top2C3_0" departPos="5.10" departSpeed="0.00" departDelay="0.00" arrival="611.00" arrivalLane="B3top1_0" arrivalPos="286.40" arrivalSpeed="13.04" duration="84.00" routeLength="858.56" waitingTime="2.00" waitingCount="2" stopTime="0.00" timeLoss="18.55" rerouteNo="0" devices="tripinfo_109" vType="DEFAULT_VEHTYPE" speedFactor="0.96" vaporized=""/>
    <tripinfo id="113" depart="538.00" departLane="right2D2_0" departPos="5.10" departSpeed="0.00" departDelay="0.00" arrival="621.00" arrivalLane="D3right3_0" arrivalPos="286.40" arrivalSpeed="13.23" duration="83.00" routeLength="858.56" waitingTime="2.00" waitingCount="2" stopTime="0.00" timeLoss="18.79" rerouteNo="0" devices="tripinfo_113" vType="DEFAULT_VEHTYPE" speedFactor="0.99" vaporized=""/>
    <tripinfo id="79" depart="408.00" departLane="left0A0_0" departPos="5.10" departSpeed="0.00" departDelay="0.00" arrival="651.00" arrivalLane="C0bottom2_0" arrivalPos="286.40" arrivalSpeed="14.72" duration="243.00" routeLength="1177.07" waitingTime="150.00" waitingCount="1" stopTime="0.00" timeLoss="165.52" rerouteNo="0" devices="tripinfo_79" vType="DEFAULT_VEHTYPE" speedFactor="1.11" vaporized=""/>
    <tripinfo id="96" depart="467.00" departLane="bottom0A0_0" departPos="5.10" departSpeed="0.00" departDelay="2.00" arrival="652.00" arrivalLane="C0bottom2_1" arrivalPos="286.40" arrivalSpeed="15.44" duration="185.00" routeLength="1161.43" waitingTime="90.00" waitingCount="2" stopTime="0.00" timeLoss="109.78" rerouteNo="0" devices="tripinfo_96" vType="DEFAULT_VEHTYPE" speedFactor="1.13" vaporized=""/>
    <tripinfo id="56" depart="336.00" departLane="left0A0_0" departPos="5.10" departSpeed="0.00" departDelay="0.00" arrival="689.00" arrivalLane="D0bottom3_0" arrivalPos="286.40" arrivalSpeed="11.79" duration="353.00" routeLength="1477.24" waitingTime="210.00" waitingCount="2" stopTime="0.00" timeLoss="230.12" rerouteNo="0" devices="tripinfo_56" vType="DEFAULT_VEHTYPE" speedFactor="0.87" vaporized=""/>
    <tripinfo id="41" depart="228.00" departLane="left1A1_0" departPos="5.10" departSpeed="0.00" departDelay="0.00" arrival="697.00" arrivalLane="B0bottom1_0" arrivalPos="286.40" arrivalSpeed="15.12" duration="469.00" routeLength="1179.77" waitingTime="369.00" waitingCount="2" stopTime="0.00" timeLoss="391.68" rerouteNo="0" devices="tripinfo_41" vType="DEFAULT_VEHTYPE" speedFactor="1.11" vaporized=""/>
    <tripinfo id="110" depart="530.00" departLane="right1D1_0" departPos="5.10" departSpeed="0.00" departDelay="0.00" arrival="700.00" arrivalLane="D3right3_0" arrivalPos="286.40" arrivalSpeed="12.78" duration="170.00" routeLength="1161.43" waitingTime="64.00" waitingCount="3" stopTime="0.00" timeLoss="85.06" rerouteNo="0" devices="tripinfo_110" vType="DEFAULT_VEHTYPE" speedFactor="1.00" vaporized=""/>
    <tripinfo id="115" depart="542.00" departLane="left2A2_0" departPos="5.10" departSpeed="0.00" departDelay="0.00" arrival="700.00" arrivalLane="A3top0_0" arrivalPos="286.40" arrivalSpeed="12.82" duration="158.00" routeLength="895.01" waitingTime="78.00" waitingCount="1" stopTime="0.00" timeLoss="89.33" rerouteNo="0" devices="tripinfo_115" vType="DEFAULT_VEHTYPE" speedFactor="0.95" vaporized=""/>
    <tripinfo id="145" depart="653.00" departLane="right3D3_0" departPos="5.10" departSpeed="0.00" departDelay="0.00" arrival="700.00" arrivalLane="D3top3_0" arrivalPos="286.40" arrivalSpeed="15.03" duration="47.00" routeLength="576.73" waitingTime="0.00" waitingCount="0" stopTime="0.00" timeLoss="7.28" rerouteNo="0" devices="tripinfo_145" vType="DEFAULT_VEHTYPE" speedFactor="1.08" vaporized=""/>
    <tripinfo id="106" depart="501.00" departLane="top3D3_0" departPos="5.10" departSpeed="0.00" departDelay="0.00" arrival="704.00" arrivalLane="B3top1_0" arrivalPos="286.40" arrivalSpeed="14.89" duration="203.00" routeLength="1161.43" waitingTime="100.00" waitingCount="3" stopTime="0.00" timeLoss="125.57" rerouteNo="0" devices="tripinfo_106" vType="DEFAULT_VEHTYPE" speedFactor="1.10" vaporized=""/>
    <tripinfo id="117" depart="553.00" departLane="top0A3_0" departPos="5.10" departSpeed="0.00" departDelay="0.00" arrival="705.00" arrivalLane="A3top0_0" arrivalPos="286.40" arrivalSpeed="13.59" duration="152.00" routeLength="1745.91" waitingTime="2.00" waitingCount="2" stopTime="0.00" timeLoss="23.63" rerouteNo="0" devices="tripinfo_117" vType="DEFAULT_VEHTYPE" speedFactor="1.00" vaporized=""/>
    <tripinfo id="123" depart="567.00" departLane="top3D3_0" departPos="5.10" departSpeed="0.00" departDelay="0.00" arrival="715.00" arrivalLane="B3top1_0" arrivalPos="286.40" arrivalSpeed="11.49" duration="148.00" routeLength="1161.43" waitingTime="28.00" waitingCount="3" stopTime="0.00" timeLoss="49.08" rerouteNo="0" devices="tripinfo_123" vType="DEFAULT_VEHTYPE" speedFactor="0.86" vaporized=""/>
    <tripinfo id="147" depart="656.00" departLane="bottom1B0_0" departPos="5.10" departSpeed="0.00" departDelay="0.00" arrival="732.00" arrivalLane="C0bottom2_0" arrivalPos="286.40" arrivalSpeed="12.22" duration="76.00" routeLength="858.56" waitingTime="0.00" waitingCount="0" stopTime="0.00" timeLoss="9.41" rerouteNo="0" devices="tripinfo_147" vType="DEFAULT_VEHTYPE" speedFactor="0.95" vaporized=""/>
    <tripinfo id="151" depart="667.00" departLane="right0D0_0" departPos="5.10" departSpeed="0.00" departDelay="0.00" arrival="748.00" arrivalLane="D1right1_0" arrivalPos="286.40" arrivalSpeed="12.99" duration="81.00" routeLength="858.56" waitingTime="2.00" waitingCount="2" stopTime="0.00" timeLoss="17.77" rerouteNo="0" devices="tripinfo_151" vType="DEFAULT_VEHTYPE" speedFactor="0.99" vaporized=""/>
    <tripinfo id="152" depart="671.00" departLane="right1D1_0" departPos="5.10" departSpeed="0.00" departDelay="0.00" arrival="750.00" arrivalLane="D2right2_0" arrivalPos="286.40" arrivalSpeed="13.10" duration="79.00" routeLength="858.56" waitingTime="1.00" waitingCount="1" stopTime="0.00" timeLoss="13.92" rerouteNo="0" devices="tripinfo_152" vType="DEFAULT_VEHTYPE" speedFactor="0.97" vaporized=""/>
    <tripinfo id="170" depart="727.00" departLane="top0A3_0" departPos="5.10" departSpeed="0.00" departDelay="0.00" arrival="811.00" arrivalLane="A2left2_0" arrivalPos="286.40" arrivalSpeed="11.66" duration="84.00" routeLength="876.90" waitingTime="1.00" waitingCount="1" stopTime="0.00" timeLoss="12.47" rerouteNo="0" devices="tripinfo_170" vType="DEFAULT_VEHTYPE" speedFactor="0.89" vaporized=""/>
    <tripinfo id="184" depart="768.00" departLane="top0A3_0" departPos="5.10" departSpeed="0.00" departDelay="0.00" arrival="817.00" arrivalLane="A3left3_0" arrivalPos="286.40" arrivalSpeed="14.45" duration="49.00" routeLength="576.73" waitingTime="0.00" waitingCount="0" stopTime="0.00" timeLoss="7.49" rerouteNo="0" devices="tripinfo_184" vType="DEFAULT_VEHTYPE" speedFactor="1.04" vaporized=""/>
    <tripinfo id="8" depart="45.00" departLane="right1D1_0" departPos="5.10" departSpeed="0.00" departDelay="0.00" arrival="819.00" arrivalLane="D3top3_0" arrivalPos="286.40" arrivalSpeed="12.35" duration="774.00" routeLength="1179.77" waitingTime="664.00" waitingCount="3" stopTime="0.00" timeLoss="686.40" rerouteNo="0" devices="tripinfo_8" vType="DEFAULT_VEHTYPE" speedFactor="0.97" vaporized=""/>
    <tripinfo id="47" depart="263.00" departLane="right1D1_0" departPos="5.10" departSpeed="0.00" departDelay="0.00" arrival="819.00" arrivalLane="D3top3_1" arrivalPos="286.40" arrivalSpeed="14.29" duration="556.00" routeLength="1179.77" waitingTime="449.00" waitingCount="3" stopTime="0.00" timeLoss="476.44" rerouteNo="0" devices="tripinfo_47" vType="DEFAULT_VEHTYPE" speedFactor="1.08" vaporized=""/>
    <tripinfo id="136" depart="619.00" departLane="right2D2_0" departPos="5.10" departSpeed="0.00" departDelay="0.00" arrival="821.00" arrivalLane="D3top3_0" arrivalPos="286.40" arrivalSpeed="14.81" duration="202.00" routeLength="879.60" waitingTime="122.00" waitingCount="2" stopTime="0.00" timeLoss="143.66" rerouteNo="0" devices="tripinfo_136" vType="DEFAULT_VEHTYPE" speedFactor="1.10" vaporized=""/>
    <tripinfo id="174" depart="734.00" departLane="left2A2_0" departPos="5.10" departSpeed="0.00" departDelay="0.00" arrival="823.00" arrivalLane="A1left1_0" arrivalPos="286.40" arrivalSpeed="12.15" duration="89.00" routeLength="858.56" waitingTime="2.00" waitingCount="2" stopTime="0.00" timeLoss="18.40" rerouteNo="0" devices="tripinfo_174" vType="DEFAULT_VEHTYPE" speedFactor="0.89" vaporized=""/>
    <tripinfo id="197" depart="798.00" departLane="right0D0_0" departPos="5.10" departSpeed="0.00" departDelay="0.00" arrival="880.00" arrivalLane="D1right1_0" arrivalPos="286.40" arrivalSpeed="13.19" duration="82.00" routeLength="858.56" waitingTime="2.00" waitingCount="2" stopTime="0.00" timeLoss="17.29" rerouteNo="0" devices="tripinfo_197" vType="DEFAULT_VEHTYPE" speedFactor="0.98" vaporized=""/>
    <tripinfo id="201" depart="806.00" departLane="top2C3_0" departPos="5.10" departSpeed="0.00" departDelay="0.00" arrival="880.00" arrivalLane="B3top1_0" arrivalPos="286.40" arrivalSpeed="16.08" duration="74.00" routeLength="858.56" waitingTime="2.00" waitingCount="2" stopTime="0.00" timeLoss="19.76" rerouteNo="0" devices="tripinfo_201" vType="DEFAULT_VEHTYPE" speedFactor="1.16" vaporized=""/>
    <tripinfo id="162" depart="695.00" departLane="bottom1B0_0" departPos="5.10" departSpeed="0.00" departDelay="0.00" arrival="888.00" arrivalLane="A0bottom0_0" arrivalPos="286.40" arrivalSpeed="13.86" duration="193.00" routeLength="894.86" waitingTime="118.00" waitingCount="1" stopTime="0.00" timeLoss="130.64" rerouteNo="0" devices="tripinfo_162" vType="DEFAULT_VEHTYPE" speedFactor="1.05" vaporized=""/>
    <tripinfo id="204" depart="810.00" departLane="bottom2C0_0" departPos="5.10" departSpeed="0.00" departDelay="0.00" arrival="892.00" arrivalLane="D0bottom3_0" arrivalPos="286.40" arrivalSpeed="13.51" duration="82.00" routeLength="858.56" waitingTime="2.00" waitingCount="2" stopTime="0.00" timeLoss="18.27" rerouteNo="0" devices="tripinfo_204" vType="DEFAULT_VEHTYPE" speedFactor="0.99" vaporized=""/>
    <tripinfo id="209" depart="817.00" departLane="left1A1_0" departPos="5.10" departSpeed="0.00" departDelay="0.00" arrival="893.00" arrivalLane="A0left0_0" arrivalPos="286.40" arrivalSpeed="13.49" duration="76.00" routeLength="858.56" waitingTime="1.00" waitingCount="1" stopTime="0.00" timeLoss="15.29" rerouteNo="0" devices="tripinfo_209" vType="DEFAULT_VEHTYPE" speedFactor="1.04" vaporized=""/>
    <tripinfo id="211" depart="820.00" departLane="bottom0A0_0" departPos="5.10" departSpeed="0.00" departDelay="0.00" arrival="904.00" arrivalLane="B0bottom1_0" arrivalPos="286.40" arrivalSpeed="12.14" duration="84.00" routeLength="858.56" waitingTime="2.00" waitingCount="2" stopTime="0.00" timeLoss="17.46" rerouteNo="0" devices="tripinfo_211" vType="DEFAULT_VEHTYPE" speedFactor="0.96" vaporized=""/>
    <tripinfo id="221" depart="866.00" departLane="right0D0_0" departPos="5.10" departSpeed="0.00" departDelay="0.00" arrival="914.00" arrivalLane="D0bottom3_0" arrivalPos="286.40" arrivalSpeed="13.78" duration="48.00" routeLength="597.55" waitingTime="0.00" waitingCount="0" stopTime="0.00" timeLoss="5.09" rerouteNo="0" devices="tripinfo_221" vType="DEFAULT_VEHTYPE" speedFactor="1.01" vaporized=""/>
    <tripinfo id="216" depart="849.00" departLane="right2D2_0" departPos="5.10" departSpeed="0.00" departDelay="0.00" arrival="920.00" arrivalLane="D3right3_0" arrivalPos="286.40" arrivalSpeed="14.77" duration="71.00" routeLength="858.56" waitingTime="1.00" waitingCount="1" stopTime="0.00" timeLoss="15.33" rerouteNo="0" devices="tripinfo_216" vType="DEFAULT_VEHTYPE" speedFactor="1.14" vaporized=""/>
    <tripinfo id="219" depart="857.00" departLane="bottom1B0_0" departPos="5.10" departSpeed="0.00" departDelay="0.00" arrival="924.00" arrivalLane="A0bottom0_0" arrivalPos="286.40" arrivalSpeed="15.09" duration="67.00" routeLength="894.86" waitingTime="0.00" waitingCount="0" stopTime="0.00" timeLoss="6.90" rerouteNo="0" devices="tripinfo_219" vType="DEFAULT_VEHTYPE" speedFactor="1.10" vaporized=""/>
    <tripinfo id="86" depart="439.00" departLane="left1A1_0" departPos="5.10" departSpeed="0.00" departDelay="0.00" arrival="938.00" arrivalLane="A0bottom0_0" arrivalPos="286.40" arrivalSpeed="14.72" duration="499.00" routeLength="879.60" waitingTime="421.00" waitingCount="2" stopTime="0.00" timeLoss="438.37" rerouteNo="0" devices="tripinfo_86" vType="DEFAULT_VEHTYPE" speedFactor="1.06" vaporized=""/>
    <tripinfo id="239" depart="915.00" departLane="top3D3_0" departPos="5.10" departSpeed="0.00" departDelay="0.00" arrival="960.00" arrivalLane="D3right3_0" arrivalPos="286.40" arrivalSpeed="15.11" duration="45.00" routeLength="597.55" waitingTime="0.00" waitingCount="0" stopTime="0.00" timeLoss="5.67" rerouteNo="0" devices="tripinfo_239" vType="DEFAULT_VEHTYPE" speedFactor="1.12" vaporized=""/>
    <tripinfo id="226" depart="886.00" departLane="bottom0A0_0" departPos="5.10" departSpeed="0.00" departDelay="0.00" arrival="973.00" arrivalLane="B0bottom1_0" arrivalPos="286.40" arrivalSpeed="12.60" duration="87.00" routeLength="858.56" waitingTime="2.00" waitingCount="2" stopTime="0.00" timeLoss="17.61" rerouteNo="0" devices="tripinfo_226" vType="DEFAULT_VEHTYPE" speedFactor="0.91" vaporized=""/>
    <tripinfo id="233" depart="907.00" departLane="left3A3_0" departPos="5.10" departSpeed="0.00" departDelay="0.00" arrival="989.00" arrivalLane="A2left2_0" arrivalPos="286.40" arrivalSpeed="12.83" duration="82.00" routeLength="858.56" waitingTime="2.00" waitingCount="2" stopTime="0.00" timeLoss="19.30" rerouteNo="0" devices="tripinfo_233" vType="DEFAULT_VEHTYPE" speedFactor="1.01" vaporized=""/>
    <tripinfo id="143" depart="651.00" departLane="left2A2_0" departPos="5.10" departSpeed="0.00" departDelay="0.00" arrival="1029.00" arrivalLane="A3left3_0" arrivalPos="286.40" arrivalSpeed="13.57" duration="378.00" routeLength="894.86" waitingTime="301.00" waitingCount="1" stopTime="0.00" timeLoss="313.76" rerouteNo="0" devices="tripinfo_143" vType="DEFAULT_VEHTYPE" speedFactor="1.03" vaporized=""/>
    <tripinfo id="235" depart="909.00" departLane="left2A2_0" departPos="5.10" departSpeed="0.00" departDelay="0.00" arrival="1071.00" arrivalLane="A0bottom0_0" arrivalPos="286.40" arrivalSpeed="13.32" duration="162.00" routeLength="1179.77" waitingTime="60.00" waitingCount="2" stopTime="0.00" timeLoss="77.82" rerouteNo="0" devices="tripinfo_235" vType="DEFAULT_VEHTYPE" speedFactor="1.02" vaporized=""/>
    <tripinfo id="262" depart="976.00" departLane="left2A2_0" departPos="5.10" departSpeed="0.00" departDelay="0.00" arrival="1076.00" arrivalLane="A0bottom0_0" arrivalPos="286.40" arrivalSpeed="13.10" duration="100.00" routeLength="1179.77" waitingTime="1.00" waitingCount="1" stopTime="0.00" timeLoss="13.32" rerouteNo="0" devices="tripinfo_262" vType="DEFAULT_VEHTYPE" speedFactor="0.99" vaporized=""/>
    <tripinfo id="271" depart="1005.00" departLane="left3A3_0" departPos="5.10" departSpeed="0.00" departDelay="0.00" arrival="1084.00" arrivalLane="A2left2_0" arrivalPos="286.40" arrivalSpeed="14.07" duration="79.00" routeLength="858.56" waitingTime="2.00" waitingCount="2" stopTime="0.00" timeLoss="19.54" rerouteNo="0" devices="tripinfo_271" vType="DEFAULT_VEHTYPE" speedFactor="1.07" vaporized=""/>
    <tripinfo id="282" depart="1023.00" departLane="left2A2_0" departPos="5.10" departSpeed="0.00" departDelay="0.00" arrival="1091.00" arrivalLane="A3left3_0" arrivalPos="286.40" arrivalSpeed="13.70" duration="68.00" routeLength="894.86" waitingTime="0.00" waitingCount="0" stopTime="0.00" timeLoss="7.07" rerouteNo="0" devices="tripinfo_282" vType="DEFAULT_VEHTYPE" speedFactor="1.07" vaporized=""/>
    <tripinfo id="182" depart="758.00" departLane="right3D3_0" departPos="5.10" departSpeed="0.00" departDelay="0.00" arrival="1109.00" arrivalLane="D2right2_1" arrivalPos="286.40" arrivalSpeed="15.17" duration="351.00" routeLength="894.86" waitingTime="279.00" waitingCount="1" stopTime="0.00" timeLoss="294.03" rerouteNo="0" devices="tripinfo_182" vType="DEFAULT_VEHTYPE" speedFactor="1.15" vaporized=""/>
    <tripinfo id="137" depart="623.00" departLane="right3D3_0" departPos="5.10" departSpeed="0.00" departDelay="0.00" arrival="1114.00" arrivalLane="D2right2_0" arrivalPos="286.40" arrivalSpeed="11.85" duration="491.00" routeLength="894.86" waitingTime="402.00" waitingCount="1" stopTime="0.00" timeLoss="414.21" rerouteNo="0" devices="tripinfo_137" vType="DEFAULT_VEHTYPE" speedFactor="0.86" vaporized=""/>
    <tripinfo id="294" depart="1052.00" departLane="left2A2_0" departPos="5.10" departSpeed="0.00" departDelay="0.00" arrival="1125.00" arrivalLane="A1left1_0" arrivalPos="286.40" arrivalSpeed="14.06" duration="73.00" routeLength="858.56" waitingTime="1.00" waitingCount="1" stopTime="0.00" timeLoss="13.99" rerouteNo="0" devices="tripinfo_294" vType="DEFAULT_VEHTYPE" speedFactor="1.07" vaporized=""/>
    <tripinfo id="290" depart="1042.00" departLane="top1B3_0" departPos="5.10" departSpeed="0.00" departDelay="0.00" arrival="1128.00" arrivalLane="A3top0_0" arrivalPos="286.40" arrivalSpeed="11.11" duration="86.00" routeLength="858.56" waitingTime="1.00" waitingCount="1" stopTime="0.00" timeLoss="13.38" rerouteNo="0" devices="tripinfo_290" vType="DEFAULT_VEHTYPE" speedFactor="0.87" vaporized=""/>
    <tripinfo id="297" depart="1063.00" departLane="bottom1B0_0" departPos="5.10" departSpeed="0.00" departDelay="0.00" arrival="1142.00" arrivalLane="C0bottom2_0" arrivalPos="286.40" arrivalSpeed="12.04" duration="79.00" routeLength="858.56" waitingTime="0.00" waitingCount="0" stopTime="0.00" timeLoss="9.24" rerouteNo="0" devices="tripinfo_297" vType="DEFAULT_VEHTYPE" speedFactor="0.91" vaporized=""/>
    <tripinfo id="76" depart="398.00" departLane="top0A3_0" departPos="5.10" departSpeed="0.00" departDelay="0.00" arrival="1145.00" arrivalLane="A1left1_0" arrivalPos="286.40" arrivalSpeed="13.68" duration="747.00" routeLength="1177.07" waitingTime="646.00" waitingCount="1" stopTime="0.00" timeLoss="661.23" rerouteNo="0" devices="tripinfo_76" vType="DEFAULT_VEHTYPE" speedFactor="1.00" vaporized=""/>
    <tripinfo id="165" depart="708.00" departLane="top1B3_0" departPos="5.10" departSpeed="0.00" departDelay="0.00" arrival="1157.00" arrivalLane="A1left1_0" arrivalPos="286.40" arrivalSpeed="14.50" duration="449.00" routeLength="1479.94" waitingTime="324.00" waitingCount="3" stopTime="0.00" timeLoss="350.15" rerouteNo="0" devices="tripinfo_165" vType="DEFAULT_VEHTYPE" speedFactor="1.09" vaporized=""/>
    <tripinfo id="36" depart="192.00" departLane="top0A3_0" departPos="5.10" departSpeed="0.00" departDelay="0.00" arrival="1171.00" arrivalLane="A0left0_0" arrivalPos="286.40" arrivalSpeed="11.90" duration="979.00" routeLength="1477.24" waitingTime="847.00" waitingCount="1" stopTime="0.00" timeLoss="863.71" rerouteNo="0" devices="tripinfo_36" vType="DEFAULT_VEHTYPE" speedFactor="0.93" vaporized=""/>
    <tripinfo id="129" depart="594.00" departLane="top0A3_0" departPos="5.10" departSpeed="0.00" departDelay="0.00" arrival="1173.00" arrivalLane="A0left0_1" arrivalPos="286.40" arrivalSpeed="16.04" duration="579.00" routeLength="1477.24" waitingTime="460.00" waitingCount="1" stopTime="0.00" timeLoss="486.40" rerouteNo="0" devices="tripinfo_129" vType="DEFAULT_VEHTYPE" speedFactor="1.16" vaporized=""/>
    <tripinfo id="87" depart="441.00" departLane="top0A3_0" departPos="5.10" departSpeed="0.00" departDelay="0.00" arrival="1176.00" arrivalLane="A0left0_0" arrivalPos="286.40" arrivalSpeed="11.52" duration="735.00" routeLength="1477.24" waitingTime="602.00" waitingCount="1" stopTime="0.00" timeLoss="617.82" rerouteNo="0" devices="tripinfo_87" vType="DEFAULT_VEHTYPE" speedFactor="0.92" vaporized=""/>
    <tripinfo id="317" depart="1101.00" departLane="right2D2_0" departPos="5.10" departSpeed="0.00" departDelay="0.00" arrival="1179.00" arrivalLane="D3right3_0" arrivalPos="286.40" arrivalSpeed="13.98" duration="78.00" routeLength="858.56" waitingTime="2.00" waitingCount="2" stopTime="0.00" timeLoss="17.87" rerouteNo="0" devices="tripinfo_317" vType="DEFAULT_VEHTYPE" speedFactor="1.06" vaporized=""/>
    <tripinfo id="333" depart="1142.00" departLane="bottom1B0_0" departPos="5.10" departSpeed="0.00" departDelay="0.00" arrival="1213.00" arrivalLane="C0bottom2_0" arrivalPos="286.40" arrivalSpeed="13.70" duration="71.00" routeLength="858.56" waitingTime="0.00" waitingCount="0" stopTime="0.00" timeLoss="8.66" rerouteNo="0" devices="tripinfo_333" vType="DEFAULT_VEHTYPE" speedFactor="1.02" vaporized=""/>
    <tripinfo id="336" depart="1151.00" departLane="bottom1B0_0" departPos="5.10" departSpeed="0.00" departDelay="0.00" arrival="1222.00" arrivalLane="C0bottom2_0" arrivalPos="286.40" arrivalSpeed="13.66" duration="71.00" routeLength="858.56" waitingTime="0.00" waitingCount="0" stopTime="0.00" timeLoss="9.19" rerouteNo="0" devices="tripinfo_336" vType="DEFAULT_VEHTYPE" speedFactor="1.04" vaporized=""/>
    <tripinfo id="266" depart="993.00" departLane="top0A3_0" departPos="5.10" departSpeed="0.00" departDelay="0.00" arrival="1238.00" arrivalLane="A1left1_0" arrivalPos="286.40" arrivalSpeed="13.95" duration="245.00" routeLength="1177.07" waitingTime="144.00" waitingCount="2" stopTime="0.00" timeLoss="160.82" rerouteNo="0" devices="tripinfo_266" vType="DEFAULT_VEHTYPE" speedFactor="1.02" vaporized=""/>
    <tripinfo id="191" depart="788.00" departLane="bottom2C0_0" departPos="5.10" departSpeed="0.00" departDelay="2.00" arrival="1257.00" arrivalLane="D0right0_0" arrivalPos="286.40" arrivalSpeed="14.66" duration="469.00" routeLength="879.60" waitingTime="394.00" waitingCount="2" stopTime="0.00" timeLoss="409.35" rerouteNo="0" devices="tripinfo_191" vType="DEFAULT_VEHTYPE" speedFactor="1.08" vaporized=""/>
    <tripinfo id="354" depart="1194.00" departLane="bottom1B0_0" departPos="5.10" departSpeed="0.00" departDelay="0.00" arrival="1261.00" arrivalLane="C0bottom2_0" arrivalPos="286.40" arrivalSpeed="14.57" duration="67.00" routeLength="858.56" waitingTime="0.00" waitingCount="0" stopTime="0.00" timeLoss="9.83" rerouteNo="0" devices="tripinfo_354" vType="DEFAULT_VEHTYPE" speedFactor="1.12" vaporized=""/>
    <tripinfo id="253" depart="960.00" departLane="right2D2_0" departPos="5.10" departSpeed="0.00" departDelay="0.00" arrival="1268.00" arrivalLane="D3top3_0" arrivalPos="286.40" arrivalSpeed="13.54" duration="308.00" routeLength="879.60" waitingTime="231.00" waitingCount="2" stopTime="0.00" timeLoss="247.31" rerouteNo="0" devices="tripinfo_253" vType="DEFAULT_VEHTYPE" speedFactor="1.07" vaporized=""/>
    <tripinfo id="343" depart="1167.00" departLane="top3D3_0" departPos="5.10" departSpeed="0.00" departDelay="3.00" arrival="1268.00" arrivalLane="B3top1_0" arrivalPos="286.40" arrivalSpeed="13.74" duration="101.00" routeLength="1161.43" waitingTime="2.00" waitingCount="2" stopTime="0.00" timeLoss="18.96" rerouteNo="0" devices="tripinfo_343" vType="DEFAULT_VEHTYPE" speedFactor="1.04" vaporized=""/>
    <tripinfo id="288" depart="1037.00" departLane="right2D2_0" departPos="5.10" departSpeed="0.00" departDelay="0.00" arrival="1271.00" arrivalLane="D3top3_0" arrivalPos="286.40" arrivalSpeed="13.11" duration="234.00" routeLength="879.60" waitingTime="153.00" waitingCount="2" stopTime="0.00" timeLoss="170.16" rerouteNo="0" devices="tripinfo_288" vType="DEFAULT_VEHTYPE" speedFactor="1.02" vaporized=""/>
    <tripinfo id="369" depart="1230.00" departLane="top0A3_0" departPos="5.10" departSpeed="0.00" departDelay="0.00" arrival="1278.00" arrivalLane="A3left3_0" arrivalPos="286.40" arrivalSpeed="13.25" duration="48.00" routeLength="576.73" waitingTime="0.00" waitingCount="0" stopTime="0.00" timeLoss="6.89" rerouteNo="0" devices="tripinfo_369" vType="DEFAULT_VEHTYPE" speedFactor="1.03" vaporized=""/>
    <tripinfo id="357" depart="1202.00" departLane="left2A2_0" departPos="5.10" departSpeed="0.00" departDelay="0.00" arrival="1282.00" arrivalLane="A1left1_0" arrivalPos="286.40" arrivalSpeed="13.64" duration="80.00" routeLength="858.56" waitingTime="2.00" waitingCount="2" stopTime="0.00" timeLoss="18.65" rerouteNo="0" devices="tripinfo_357" vType="DEFAULT_VEHTYPE" speedFactor="1.03" vaporized=""/>
    <tripinfo id="371" depart="1234.00" departLane="top0A3_0" departPos="5.10" departSpeed="0.00" departDelay="0.00" arrival="1334.00" arrivalLane="A1left1_0" arrivalPos="286.40" arrivalSpeed="13.74" duration="100.00" routeLength="1177.07" waitingTime="1.00" waitingCount="1" stopTime="0.00" timeLoss="14.06" rerouteNo="0" devices="tripinfo_371" vType="DEFAULT_VEHTYPE" speedFactor="0.99" vaporized=""/>
    <tripinfo id="382" depart="1266.00" departLane="bottom0A0_0" departPos="5.10" departSpeed="0.00" departDelay="0.00" arrival="1344.00" arrivalLane="B0bottom1_0" arrivalPos="286.40" arrivalSpeed="15.04" duration="78.00" routeLength="858.56" waitingTime="2.00" waitingCount="2" stopTime="0.00" timeLoss="19.75" rerouteNo="0" devices="tripinfo_382" vType="DEFAULT_VEHTYPE" speedFactor="1.09" vaporized=""/>