<?xml version="1.0" encoding="UTF-8"?>

<!-- generated on 2023-08-30 13:52:14 by Eclipse SUMO libsumo Version 1.18.0
<configuration xmlns:xsi="http://www.w3.org/2001/XMLSchema-instance" xsi:noNamespaceSchemaLocation="http://sumo.dlr.de/xsd/libsumoConfiguration.xsd">

    <input>
        <net-file value="/home/stefan/RESCO/./environments/grid4x4/grid4x4.net.xml"/>
        <route-files value="/home/stefan/RESCO/./environments/grid4x4/grid4x4_87.rou.xml"/>
    </input>

    <output>
        <tripinfo-output value="/home/stefan/results/RAINBOW-tr0-grid4x4-0-drq_norm-wait_norm/tripinfo_87.xml"/>
        <tripinfo-output.write-unfinished value="true"/>
    </output>

    <processing>
        <time-to-teleport value="-1"/>
    </processing>

    <report>
        <no-warnings value="True"/>
        <no-step-log value="True"/>
    </report>

    <random_number>
        <random value="true"/>
    </random_number>

</configuration>
-->

<tripinfos xmlns:xsi="http://www.w3.org/2001/XMLSchema-instance" xsi:noNamespaceSchemaLocation="http://sumo.dlr.de/xsd/tripinfo_file.xsd">
    <tripinfo id="3" depart="14.00" departLane="left2A2_0" departPos="5.10" departSpeed="0.00" departDelay="0.00" arrival="134.00" arrivalLane="A0left0_0" arrivalPos="286.40" arrivalSpeed="10.52" duration="120.00" routeLength="1161.43" waitingTime="2.00" waitingCount="2" stopTime="0.00" timeLoss="17.10" rerouteNo="0" devices="tripinfo_3" vType="DEFAULT_VEHTYPE" speedFactor="0.83" vaporized=""/>
    <tripinfo id="24" depart="89.00" departLane="bottom0A0_0" departPos="5.10" departSpeed="0.00" departDelay="0.00" arrival="163.00" arrivalLane="B0bottom1_0" arrivalPos="286.40" arrivalSpeed="15.34" duration="74.00" routeLength="858.56" waitingTime="2.00" waitingCount="2" stopTime="0.00" timeLoss="17.58" rerouteNo="0" devices="tripinfo_24" vType="DEFAULT_VEHTYPE" speedFactor="1.12" vaporized=""/>
    <tripinfo id="27" depart="103.00" departLane="bottom2C0_0" departPos="5.10" departSpeed="0.00" departDelay="0.00" arrival="180.00" arrivalLane="D0bottom3_0" arrivalPos="286.40" arrivalSpeed="13.19" duration="77.00" routeLength="858.56" waitingTime="1.00" waitingCount="1" stopTime="0.00" timeLoss="12.43" rerouteNo="0" devices="tripinfo_27" vType="DEFAULT_VEHTYPE" speedFactor="0.98" vaporized=""/>
    <tripinfo id="26" depart="103.00" departLane="right3D3_0" departPos="5.10" departSpeed="0.00" departDelay="0.00" arrival="206.00" arrivalLane="D2right2_1" arrivalPos="286.40" arrivalSpeed="16.40" duration="103.00" routeLength="894.86" waitingTime="37.00" waitingCount="1" stopTime="0.00" timeLoss="47.71" rerouteNo="0" devices="tripinfo_26" vType="DEFAULT_VEHTYPE" speedFactor="1.19" vaporized=""/>
    <tripinfo id="30" depart="128.00" departLane="right1D1_0" departPos="5.10" departSpeed="0.00" departDelay="0.00" arrival="207.00" arrivalLane="D2right2_0" arrivalPos="286.40" arrivalSpeed="13.49" duration="79.00" routeLength="858.56" waitingTime="2.00" waitingCount="2" stopTime="0.00" timeLoss="16.16" rerouteNo="0" devices="tripinfo_30" vType="DEFAULT_VEHTYPE" speedFactor="1.00" vaporized=""/>
    <tripinfo id="35" depart="168.00" departLane="left0A0_0" departPos="5.10" departSpeed="0.00" departDelay="0.00" arrival="217.00" arrivalLane="A0bottom0_0" arrivalPos="286.40" arrivalSpeed="15.64" duration="49.00" routeLength="576.73" waitingTime="1.00" waitingCount="1" stopTime="0.00" timeLoss="12.19" rerouteNo="0" devices="tripinfo_35" vType="DEFAULT_VEHTYPE" speedFactor="1.16" vaporized=""/>
    <tripinfo id="39" depart="185.00" departLane="right3D3_0" departPos="5.10" departSpeed="0.00" departDelay="0.00" arrival="236.00" arrivalLane="D3top3_0" arrivalPos="286.40" arrivalSpeed="12.88" duration="51.00" routeLength="576.73" waitingTime="0.00" waitingCount="0" stopTime="0.00" timeLoss="6.30" rerouteNo="0" devices="tripinfo_39" vType="DEFAULT_VEHTYPE" speedFactor="0.96" vaporized=""/>
    <tripinfo id="36" depart="178.00" departLane="bottom2C0_0" departPos="5.10" departSpeed="0.00" departDelay="0.00" arrival="256.00" arrivalLane="D0bottom3_0" arrivalPos="286.40" arrivalSpeed="12.97" duration="78.00" routeLength="858.56" waitingTime="1.00" waitingCount="1" stopTime="0.00" timeLoss="15.09" rerouteNo="0" devices="tripinfo_36" vType="DEFAULT_VEHTYPE" speedFactor="1.01" vaporized=""/>
    <tripinfo id="66" depart="309.00" departLane="bottom2C0_0" departPos="5.10" departSpeed="0.00" departDelay="0.00" arrival="370.00" arrivalLane="D0right0_0" arrivalPos="286.40" arrivalSpeed="16.10" duration="61.00" routeLength="879.60" waitingTime="0.00" waitingCount="0" stopTime="0.00" timeLoss="7.03" rerouteNo="0" devices="tripinfo_66" vType="DEFAULT_VEHTYPE" speedFactor="1.20" vaporized=""/>
    <tripinfo id="63" depart="300.00" departLane="left1A1_0" departPos="5.10" departSpeed="0.00" departDelay="0.00" arrival="386.00" arrivalLane="A0left0_0" arrivalPos="286.40" arrivalSpeed="11.35" duration="86.00" routeLength="858.56" waitingTime="2.00" waitingCount="2" stopTime="0.00" timeLoss="16.18" rerouteNo="0" devices="tripinfo_63" vType="DEFAULT_VEHTYPE" speedFactor="0.90" vaporized=""/>
    <tripinfo id="76" depart="356.00" departLane="left1A1_0" departPos="5.10" departSpeed="0.00" departDelay="0.00" arrival="440.00" arrivalLane="A0left0_0" arrivalPos="286.40" arrivalSpeed="12.65" duration="84.00" routeLength="858.56" waitingTime="2.00" waitingCount="2" stopTime="0.00" timeLoss="19.75" rerouteNo="0" devices="tripinfo_76" vType="DEFAULT_VEHTYPE" speedFactor="0.98" vaporized=""/>
    <tripinfo id="70" depart="326.00" departLane="left1A1_0" departPos="5.10" departSpeed="0.00" departDelay="0.00" arrival="462.00" arrivalLane="A3left3_0" arrivalPos="286.40" arrivalSpeed="12.46" duration="136.00" routeLength="1197.66" waitingTime="29.00" waitingCount="1" stopTime="0.00" timeLoss="40.87" rerouteNo="0" devices="tripinfo_70" vType="DEFAULT_VEHTYPE" speedFactor="0.93" vaporized=""/>
    <tripinfo id="79" depart="375.00" departLane="left1A1_0" departPos="5.10" departSpeed="0.00" departDelay="0.00" arrival="476.00" arrivalLane="A3left3_0" arrivalPos="286.40" arrivalSpeed="12.67" duration="101.00" routeLength="1197.66" waitingTime="0.00" waitingCount="0" stopTime="0.00" timeLoss="8.84" rerouteNo="0" devices="tripinfo_79" vType="DEFAULT_VEHTYPE" speedFactor="0.95" vaporized=""/>
    <tripinfo id="47" depart="206.00" departLane="right2D2_0" departPos="5.10" departSpeed="0.00" departDelay="0.00" arrival="605.00" arrivalLane="D1right1_0" arrivalPos="286.40" arrivalSpeed="12.42" duration="399.00" routeLength="894.86" waitingTime="319.00" waitingCount="1" stopTime="0.00" timeLoss="329.80" rerouteNo="0" devices="tripinfo_47" vType="DEFAULT_VEHTYPE" speedFactor="0.95" vaporized=""/>
    <tripinfo id="132" depart="569.00" departLane="right3D3_0" departPos="5.10" departSpeed="0.00" departDelay="0.00" arrival="641.00" arrivalLane="C3top2_0" arrivalPos="286.40" arrivalSpeed="13.30" duration="72.00" routeLength="876.90" waitingTime="0.00" waitingCount="0" stopTime="0.00" timeLoss="7.88" rerouteNo="0" devices="tripinfo_132" vType="DEFAULT_VEHTYPE" speedFactor="1.01" vaporized=""/>
    <tripinfo id="124" depart="551.00" departLane="right3D3_0" departPos="5.10" departSpeed="0.00" departDelay="1.00" arrival="642.00" arrivalLane="D1right1_0" arrivalPos="286.40" arrivalSpeed="14.04" duration="91.00" routeLength="1197.66" waitingTime="0.00" waitingCount="0" stopTime="0.00" timeLoss="7.64" rerouteNo="0" devices="tripinfo_124" vType="DEFAULT_VEHTYPE" speedFactor="1.05" vaporized=""/>
    <tripinfo id="143" depart="592.00" departLane="top2C3_0" departPos="5.10" departSpeed="0.00" departDelay="1.00" arrival="687.00" arrivalLane="B3top1_0" arrivalPos="286.40" arrivalSpeed="10.43" duration="95.00" routeLength="858.56" waitingTime="2.00" waitingCount="2" stopTime="0.00" timeLoss="18.09" rerouteNo="0" devices="tripinfo_143" vType="DEFAULT_VEHTYPE" speedFactor="0.82" vaporized=""/>
    <tripinfo id="148" depart="608.00" departLane="top2C3_0" departPos="5.10" departSpeed="0.00" departDelay="0.00" arrival="687.00" arrivalLane="B3top1_1" arrivalPos="286.40" arrivalSpeed="14.87" duration="79.00" routeLength="858.56" waitingTime="2.00" waitingCount="2" stopTime="0.00" timeLoss="23.43" rerouteNo="0" devices="tripinfo_148" vType="DEFAULT_VEHTYPE" speedFactor="1.13" vaporized=""/>
    <tripinfo id="165" depart="664.00" departLane="left3A3_0" departPos="5.10" departSpeed="0.00" departDelay="0.00" arrival="743.00" arrivalLane="A2left2_0" arrivalPos="286.40" arrivalSpeed="12.86" duration="79.00" routeLength="858.56" waitingTime="1.00" waitingCount="1" stopTime="0.00" timeLoss="15.16" rerouteNo="0" devices="tripinfo_165" vType="DEFAULT_VEHTYPE" speedFactor="0.99" vaporized=""/>
    <tripinfo id="180" depart="716.00" departLane="right3D3_0" departPos="5.10" departSpeed="0.00" departDelay="0.00" arrival="819.00" arrivalLane="B3top1_0" arrivalPos="286.40" arrivalSpeed="13.97" duration="103.00" routeLength="1177.07" waitingTime="1.00" waitingCount="1" stopTime="0.00" timeLoss="21.01" rerouteNo="0" devices="tripinfo_180" vType="DEFAULT_VEHTYPE" speedFactor="1.04" vaporized=""/>
    <tripinfo id="199" depart="765.00" departLane="top3D3_0" departPos="5.10" departSpeed="0.00" departDelay="0.00" arrival="839.00" arrivalLane="C3top2_0" arrivalPos="286.40" arrivalSpeed="14.59" duration="74.00" routeLength="858.56" waitingTime="1.00" waitingCount="1" stopTime="0.00" timeLoss="14.25" rerouteNo="0" devices="tripinfo_199" vType="DEFAULT_VEHTYPE" speedFactor="1.06" vaporized=""/>
    <tripinfo id="201" depart="769.00" departLane="left2A2_0" departPos="5.10" departSpeed="0.00" departDelay="0.00" arrival="855.00" arrivalLane="A1left1_0" arrivalPos="286.40" arrivalSpeed="11.96" duration="86.00" routeLength="858.56" waitingTime="2.00" waitingCount="2" stopTime="0.00" timeLoss="19.35" rerouteNo="0" devices="tripinfo_201" vType="DEFAULT_VEHTYPE" speedFactor="0.95" vaporized=""/>
    <tripinfo id="218" depart="821.00" departLane="right0D0_0" departPos="5.10" departSpeed="0.00" departDelay="0.00" arrival="877.00" arrivalLane="D0bottom3_0" arrivalPos="286.40" arrivalSpeed="11.00" duration="56.00" routeLength="597.55" waitingTime="0.00" waitingCount="0" stopTime="0.00" timeLoss="6.23" rerouteNo="0" devices="tripinfo_218" vType="DEFAULT_VEHTYPE" speedFactor="0.88" vaporized=""/>
    <tripinfo id="147" depart="604.00" departLane="bottom2C0_0" departPos="5.10" departSpeed="0.00" departDelay="0.00" arrival="887.00" arrivalLane="D0right0_0" arrivalPos="286.40" arrivalSpeed="15.20" duration="283.00" routeLength="879.60" waitingTime="211.00" waitingCount="1" stopTime="0.00" timeLoss="225.32" rerouteNo="0" devices="tripinfo_147" vType="DEFAULT_VEHTYPE" speedFactor="1.12" vaporized=""/>
    <tripinfo id="209" depart="795.00" departLane="left3A3_0" departPos="5.10" departSpeed="0.00" departDelay="0.00" arrival="888.00" arrivalLane="A2left2_0" arrivalPos="286.40" arrivalSpeed="10.09" duration="93.00" routeLength="858.56" waitingTime="1.00" waitingCount="1" stopTime="0.00" timeLoss="11.96" rerouteNo="0" devices="tripinfo_209" vType="DEFAULT_VEHTYPE" speedFactor="0.79" vaporized=""/>
    <tripinfo id="232" depart="855.00" departLane="bottom3D0_0" departPos="5.10" departSpeed="0.00" departDelay="0.00" arrival="906.00" arrivalLane="D0right0_0" arrivalPos="286.40" arrivalSpeed="15.29" duration="51.00" routeLength="576.73" waitingTime="1.00" waitingCount="1" stopTime="0.00" timeLoss="13.09" rerouteNo="0" devices="tripinfo_232" vType="DEFAULT_VEHTYPE" speedFactor="1.13" vaporized=""/>
    <tripinfo id="217" depart="817.00" departLane="right3D3_0" departPos="5.10" departSpeed="0.00" departDelay="0.00" arrival="911.00" arrivalLane="B3top1_0" arrivalPos="286.40" arrivalSpeed="14.38" duration="94.00" routeLength="1177.07" waitingTime="1.00" waitingCount="1" stopTime="0.00" timeLoss="13.65" rerouteNo="0" devices="tripinfo_217" vType="DEFAULT_VEHTYPE" speedFactor="1.07" vaporized=""/>
    <tripinfo id="222" depart="834.00" departLane="left1A1_0" departPos="5.10" departSpeed="0.00" departDelay="0.00" arrival="911.00" arrivalLane="A0left0_0" arrivalPos="286.40" arrivalSpeed="13.39" duration="77.00" routeLength="858.56" waitingTime="1.00" waitingCount="1" stopTime="0.00" timeLoss="14.41" rerouteNo="0" devices="tripinfo_222" vType="DEFAULT_VEHTYPE" speedFactor="1.01" vaporized=""/>
    <tripinfo id="4" depart="16.00" departLane="top1B3_0" departPos="5.10" departSpeed="0.00" departDelay="0.00" arrival="931.00" arrivalLane="A3left3_0" arrivalPos="286.40" arrivalSpeed="11.90" duration="915.00" routeLength="879.60" waitingTime="830.00" waitingCount="1" stopTime="0.00" timeLoss="844.31" rerouteNo="0" devices="tripinfo_4" vType="DEFAULT_VEHTYPE" speedFactor="0.91" vaporized=""/>
    <tripinfo id="220" depart="829.00" departLane="top3D3_0" departPos="5.10" departSpeed="0.00" departDelay="0.00" arrival="935.00" arrivalLane="B3top1_0" arrivalPos="286.40" arrivalSpeed="13.11" duration="106.00" routeLength="1161.43" waitingTime="2.00" waitingCount="2" stopTime="0.00" timeLoss="19.02" rerouteNo="0" devices="tripinfo_220" vType="DEFAULT_VEHTYPE" speedFactor="0.98" vaporized=""/>
    <tripinfo id="282" depart="983.00" departLane="top2C3_0" departPos="5.10" departSpeed="0.00" departDelay="0.00" arrival="1067.00" arrivalLane="B3top1_0" arrivalPos="286.40" arrivalSpeed="13.06" duration="84.00" routeLength="858.56" waitingTime="2.00" waitingCount="2" stopTime="0.00" timeLoss="19.59" rerouteNo="0" devices="tripinfo_282" vType="DEFAULT_VEHTYPE" speedFactor="0.99" vaporized=""/>
    <tripinfo id="298" depart="1017.00" departLane="bottom0A0_0" departPos="5.10" departSpeed="0.00" departDelay="0.00" arrival="1120.00" arrivalLane="B0bottom1_0" arrivalPos="286.40" arrivalSpeed="9.68" duration="103.00" routeLength="858.56" waitingTime="2.00" waitingCount="2" stopTime="0.00" timeLoss="19.70" rerouteNo="0" devices="tripinfo_298" vType="DEFAULT_VEHTYPE" speedFactor="0.76" vaporized=""/>
    <tripinfo id="302" depart="1025.00" departLane="left3A3_0" departPos="5.10" departSpeed="0.00" departDelay="2.00" arrival="1127.00" arrivalLane="A1left1_0" arrivalPos="286.40" arrivalSpeed="14.10" duration="102.00" routeLength="1161.43" waitingTime="2.00" waitingCount="2" stopTime="0.00" timeLoss="20.97" rerouteNo="0" devices="tripinfo_302" vType="DEFAULT_VEHTYPE" speedFactor="1.05" vaporized=""/>
    <tripinfo id="53" depart="252.00" departLane="left2A2_0" departPos="5.10" departSpeed="0.00" departDelay="0.00" arrival="1142.00" arrivalLane="A3top0_1" arrivalPos="286.40" arrivalSpeed="13.45" duration="890.00" routeLength="895.01" waitingTime="803.00" waitingCount="2" stopTime="0.00" timeLoss="824.45" rerouteNo="0" devices="tripinfo_53" vType="DEFAULT_VEHTYPE" speedFactor="1.00" vaporized=""/>
    <tripinfo id="6" depart="29.00" departLane="left2A2_0" departPos="5.10" departSpeed="0.00" departDelay="0.00" arrival="1143.00" arrivalLane="A3top0_0" arrivalPos="286.40" arrivalSpeed="11.31" duration="1114.00" routeLength="895.01" waitingTime="1024.00" waitingCount="2" stopTime="0.00" timeLoss="1037.87" rerouteNo="0" devices="tripinfo_6" vType="DEFAULT_VEHTYPE" speedFactor="0.86" vaporized=""/>
    <tripinfo id="181" depart="717.00" departLane="top0A3_0" departPos="5.10" departSpeed="0.00" departDelay="0.00" arrival="1143.00" arrivalLane="A3top0_2" arrivalPos="286.40" arrivalSpeed="15.46" duration="426.00" routeLength="1745.91" waitingTime="281.00" waitingCount="4" stopTime="0.00" timeLoss="317.27" rerouteNo="0" devices="tripinfo_181" vType="DEFAULT_VEHTYPE" speedFactor="1.18" vaporized=""/>
    <tripinfo id="101" depart="466.00" departLane="left2A2_0" departPos="5.10" departSpeed="0.00" departDelay="0.00" arrival="1147.00" arrivalLane="A3top0_0" arrivalPos="286.40" arrivalSpeed="11.19" duration="681.00" routeLength="895.01" waitingTime="587.00" waitingCount="2" stopTime="0.00" timeLoss="606.49" rerouteNo="0" devices="tripinfo_101" vType="DEFAULT_VEHTYPE" speedFactor="0.88" vaporized=""/>
    <tripinfo id="276" depart="964.00" departLane="right3D3_0" departPos="5.10" departSpeed="0.00" departDelay="0.00" arrival="1154.00" arrivalLane="D2right2_0" arrivalPos="286.40" arrivalSpeed="15.50" duration="190.00" routeLength="894.86" waitingTime="117.00" waitingCount="1" stopTime="0.00" timeLoss="131.64" rerouteNo="0" devices="tripinfo_276" vType="DEFAULT_VEHTYPE" speedFactor="1.14" vaporized=""/>
    <tripinfo id="336" depart="1118.00" departLane="right3D3_0" departPos="5.10" departSpeed="0.00" departDelay="0.00" arrival="1172.00" arrivalLane="D3top3_0" arrivalPos="286.40" arrivalSpeed="12.55" duration="54.00" routeLength="576.73" waitingTime="1.00" waitingCount="1" stopTime="0.00" timeLoss="10.64" rerouteNo="0" devices="tripinfo_336" vType="DEFAULT_VEHTYPE" speedFactor="0.98" vaporized=""/>
    <tripinfo id="304" depart="1025.00" departLane="top0A3_0" departPos="5.10" departSpeed="0.00" departDelay="0.00" arrival="1180.00" arrivalLane="A2left2_0" arrivalPos="286.40" arrivalSpeed="13.51" duration="155.00" routeLength="876.90" waitingTime="76.00" waitingCount="1" stopTime="0.00" timeLoss="91.00" rerouteNo="0" devices="tripinfo_304" vType="DEFAULT_VEHTYPE" speedFactor="1.00" vaporized=""/>
    <tripinfo id="328" depart="1105.00" departLane="top0A3_0" departPos="5.10" departSpeed="0.00" departDelay="0.00" arrival="1183.00" arrivalLane="A2left2_0" arrivalPos="286.40" arrivalSpeed="13.94" duration="78.00" routeLength="876.90" waitingTime="0.00" waitingCount="0" stopTime="0.00" timeLoss="14.66" rerouteNo="0" devices="tripinfo_328" vType="DEFAULT_VEHTYPE" speedFactor="1.02" vaporized=""/>
    <tripinfo id="90" depart="419.00" departLane="top0A3_0" departPos="5.10" departSpeed="0.00" departDelay="0.00" arrival="1191.00" arrivalLane="A1left1_0" arrivalPos="286.40" arrivalSpeed="12.13" duration="772.00" routeLength="1177.07" waitingTime="665.00" waitingCount="2" stopTime="0.00" timeLoss="683.60" rerouteNo="0" devices="tripinfo_90" vType="DEFAULT_VEHTYPE" speedFactor="0.96" vaporized=""/>
    <tripinfo id="264" depart="942.00" departLane="right3D3_0" departPos="5.10" departSpeed="0.00" departDelay="0.00" arrival="1196.00" arrivalLane="D1right1_0" arrivalPos="286.40" arrivalSpeed="13.05" duration="254.00" routeLength="1197.66" waitingTime="135.00" waitingCount="1" stopTime="0.00" timeLoss="162.88" rerouteNo="0" devices="tripinfo_264" vType="DEFAULT_VEHTYPE" speedFactor="0.96" vaporized=""/>
    <tripinfo id="344" depart="1133.00" departLane="left3A3_0" departPos="5.10" departSpeed="0.00" departDelay="0.00" arrival="1212.00" arrivalLane="A2left2_0" arrivalPos="286.40" arrivalSpeed="13.59" duration="79.00" routeLength="858.56" waitingTime="1.00" waitingCount="1" stopTime="0.00" timeLoss="16.66" rerouteNo="0" devices="tripinfo_344" vType="DEFAULT_VEHTYPE" speedFactor="1.01" vaporized=""/>
    <tripinfo id="200" depart="767.00" departLane="top0A3_0" departPos="5.10" departSpeed="0.00" departDelay="0.00" arrival="1215.00" arrivalLane="A1left1_0" arrivalPos="286.40" arrivalSpeed="10.91" duration="448.00" routeLength="1177.07" waitingTime="325.00" waitingCount="2" stopTime="0.00" timeLoss="343.06" rerouteNo="0" devices="tripinfo_200" vType="DEFAULT_VEHTYPE" speedFactor="0.82" vaporized=""/>
    <tripinfo id="364" depart="1175.00" departLane="bottom3D0_0" departPos="5.10" departSpeed="0.00" departDelay="0.00" arrival="1229.00" arrivalLane="D0right0_0" arrivalPos="286.40" arrivalSpeed="12.68" duration="54.00" routeLength="576.73" waitingTime="1.00" waitingCount="1" stopTime="0.00" timeLoss="9.92" rerouteNo="0" devices="tripinfo_364" vType="DEFAULT_VEHTYPE" speedFactor="0.97" vaporized=""/>
    <tripinfo id="358" depart="1165.00" departLane="top0A3_0" departPos="5.10" departSpeed="0.00" departDelay="0.00" arrival="1241.00" arrivalLane="A2left2_0" arrivalPos="286.40" arrivalSpeed="12.94" duration="76.00" routeLength="876.90" waitingTime="0.00" waitingCount="0" stopTime="0.00" timeLoss="7.98" rerouteNo="0" devices="tripinfo_358" vType="DEFAULT_VEHTYPE" speedFactor="0.94" vaporized=""/>
    <tripinfo id="362" depart="1167.00" departLane="top3D3_0" departPos="5.10" departSpeed="0.00" departDelay="0.00" arrival="1253.00" arrivalLane="C3top2_0" arrivalPos="286.40" arrivalSpeed="11.90" duration="86.00" routeLength="858.56" waitingTime="2.00" waitingCount="2" stopTime="0.00" timeLoss="16.62" rerouteNo="0" devices="tripinfo_362" vType="DEFAULT_VEHTYPE" speedFactor="0.90" vaporized=""/>
    <tripinfo id="7" depart="42.00" departLane="top1B3_0" departPos="5.10" departSpeed="0.00" departDelay="0.00" arrival="1272.00" arrivalLane="B3top1_0" arrivalPos="286.40" arrivalSpeed="11.13" duration="1230.00" routeLength="1748.75" waitingTime="1059.00" waitingCount="4" stopTime="0.00" timeLoss="1084.35" rerouteNo="0" devices="tripinfo_7" vType="DEFAULT_VEHTYPE" speedFactor="0.88" vaporized=""/>
    <tripinfo id="174" depart="703.00" departLane="top1B3_0" departPos="5.10" departSpeed="0.00" departDelay="0.00" arrival="1272.00" arrivalLane="B3top1_1" arrivalPos="286.40" arrivalSpeed="12.36" duration="569.00" routeLength="1748.75" waitingTime="409.00" waitingCount="4" stopTime="0.00" timeLoss="437.96" rerouteNo="0" devices="tripinfo_174" vType="DEFAULT_VEHTYPE" speedFactor="0.98" vaporized=""/>
    <tripinfo id="179" depart="716.00" departLane="top1B3_0" departPos="5.10" departSpeed="0.00" departDelay="0.00" arrival="1274.00" arrivalLane="B3top1_0" arrivalPos="286.40" arrivalSpeed="12.95" duration="558.00" routeLength="1748.75" waitingTime="395.00" waitingCount="4" stopTime="0.00" timeLoss="424.88" rerouteNo="0" devices="tripinfo_179" vType="DEFAULT_VEHTYPE" speedFactor="0.96" vaporized=""/>
    <tripinfo id="373" depart="1194.00" departLane="top0A3_0" departPos="5.10" departSpeed="0.00" departDelay="0.00" arrival="1280.00" arrivalLane="A2left2_0" arrivalPos="286.40" arrivalSpeed="10.61" duration="86.00" routeLength="876.90" waitingTime="0.00" waitingCount="0" stopTime="0.00" timeLoss="8.34" rerouteNo="0" devices="tripinfo_373" vType="DEFAULT_VEHTYPE" speedFactor="0.83" vaporized=""/>
    <tripinfo id="385" depart="1227.00" departLane="left2A2_0" departPos="5.10" departSpeed="0.00" departDelay="0.00" arrival="1303.00" arrivalLane="A1left1_0" arrivalPos="286.40" arrivalSpeed="14.36" duration="76.00" routeLength="858.56" waitingTime="2.00" waitingCount="2" stopTime="0.00" timeLoss="18.76" rerouteNo="0" devices="tripinfo_385" vType="DEFAULT_VEHTYPE" speedFactor="1.10" vaporized=""/>
    <tripinfo id="102" depart="473.00" departLane="left1A1_0" departPos="5.10" departSpeed="0.00" departDelay="0.00" arrival="1335.00" arrivalLane="A3top0_0" arrivalPos="286.40" arrivalSpeed="12.20" duration="862.00" routeLength="1195.18" waitingTime="753.00" waitingCount="2" stopTime="0.00" timeLoss="768.91" rerouteNo="0" devices="tripinfo_102" vType="DEFAULT_VEHTYPE" speedFactor="0.94" vaporized=""/>
    <tripinfo id="405" depart="1273.00" departLane="top2C3_0" departPos="5.10" departSpeed="0.00" departDelay="0.00" arrival="1339.00" arrivalLane="D3top3_0" arrivalPos="286.40" arrivalSpeed="14.30" duration="66.00" routeLength="894.86" waitingTime="0.00" waitingCount="0" stopTime="0.00" timeLoss="6.43" rerouteNo="0" devices="tripinfo_405" vType="DEFAULT_VEHTYPE" speedFactor="1.11" vaporized=""/>
    <tripinfo id="451" depart="1362.00" departLane="top0A3_0" departPos="5.10" departSpeed="0.00" departDelay="0.00" arrival="1408.00" arrivalLane="A3left3_0" arrivalPos="286.40" arrivalSpeed="14.73" duration="46.00" routeLength="576.73" waitingTime="0.00" waitingCount="0" stopTime="0.00" timeLoss="7.23" rerouteNo="0" devices="tripinfo_451" vType="DEFAULT_VEHTYPE" speedFactor="1.10" vaporized=""/>
    <tripinfo id="433" depart="1337.00" departLane="right3D3_0" departPos="5.10" departSpeed="0.00" departDelay="0.00" arrival="1417.00" arrivalLane="D1right1_0" arrivalPos="286.40" arrivalSpeed="15.61" duration="80.00" routeLength="1197.66" waitingTime="0.00" waitingCount="0" stopTime="0.00" timeLoss="6.55" rerouteNo="0" devices="tripinfo_433" vType="DEFAULT_VEHTYPE" speedFactor="1.19" vaporized=""/>
    <tripinfo id="431" depart="1336.00" departLane="top0A3_0" departPos="5.10" departSpeed="0.00" departDelay="0.00" arrival="1439.00" arrivalLane="A1left1_0" arrivalPos="286.40" arrivalSpeed="12.59" duration="103.00" routeLength="1177.07" waitingTime="1.00" waitingCount="1" stopTime="0.00" timeLoss="11.88" rerouteNo="0" devices="tripinfo_431" vType="DEFAULT_VEHTYPE" speedFactor="0.94" vaporized=""/>
    <tripinfo id="187" depart="736.00" departLane="right0D0_0" departPos="5.10" departSpeed="0.00" departDelay="0.00" arrival="1459.00" arrivalLane="D0right0_0" arrivalPos="286.40" arrivalSpeed="13.13" duration="723.00" routeLength="1748.75" waitingTime="570.00" waitingCount="4" stopTime="0.00" timeLoss="598.19" rerouteNo="0" devices="tripinfo_187" vType="DEFAULT_VEHTYPE" speedFactor="1.03" vaporized=""/>
    <tripinfo id="155" depart="628.00" departLane="right2D2_0" departPos="5.10" departSpeed="0.00" departDelay="0.00" arrival="1469.00" arrivalLane="D1right1_0" arrivalPos="286.40" arrivalSpeed="14.42" duration="841.00" routeLength="894.86" waitingTime="769.00" waitingCount="1" stopTime="0.00" timeLoss="780.77" rerouteNo="0" devices="tripinfo_155" vType="DEFAULT_VEHTYPE" speedFactor="1.09" vaporized=""/>
    <tripinfo id="68" depart="312.00" departLane="right1D1_0" departPos="5.10" departSpeed="0.00" departDelay="0.00" arrival="1471.00" arrivalLane="D0right0_0" arrivalPos="286.40" arrivalSpeed="13.47" duration="1159.00" routeLength="894.86" waitingTime="1084.00" waitingCount="1" stopTime="0.00" timeLoss="1095.92" rerouteNo="0" devices="tripinfo_68" vType="DEFAULT_VEHTYPE" speedFactor="1.04" vaporized=""/>
    <tripinfo id="347" depart="1140.00" departLane="right1D1_0" departPos="5.10" departSpeed="0.00" departDelay="0.00" arrival="1474.00" arrivalLane="D0right0_0" arrivalPos="286.40" arrivalSpeed="13.46" duration="334.00" routeLength="894.86" waitingTime="258.00" waitingCount="1" stopTime="0.00" timeLoss="268.81" rerouteNo="0" devices="tripinfo_347" vType="DEFAULT_VEHTYPE" speedFactor="1.01" vaporized=""/>
    <tripinfo id="392" depart="1241.00" departLane="right1D1_0" departPos="5.10" departSpeed="0.00" departDelay="0.00" arrival="1476.00" arrivalLane="D0right0_1" arrivalPos="286.40" arrivalSpeed="14.63" duration="235.00" routeLength="894.86" waitingTime="160.00" waitingCount="1" stopTime="0.00" timeLoss="172.46" rerouteNo="0" devices="tripinfo_392" vType="DEFAULT_VEHTYPE" speedFactor="1.06" vaporized=""/>
    <tripinfo id="462" depart="1384.00" departLane="right1D1_0" departPos="5.10" departSpeed="0.00" departDelay="0.00" arrival="1476.00" arrivalLane="D2right2_0" arrivalPos="286.40" arrivalSpeed="11.22" duration="92.00" routeLength="858.56" waitingTime="2.00" waitingCount="2" stopTime="0.00" timeLoss="16.32" rerouteNo="0" devices="tripinfo_462" vType="DEFAULT_VEHTYPE" speedFactor="0.83" vaporized=""/>
    <tripinfo id="476" depart="1418.00" departLane="top2C3_0" departPos="5.10" departSpeed="0.00" departDelay="0.00" arrival="1485.00" arrivalLane="D3top3_0" arrivalPos="286.40" arrivalSpeed="14.75" duration="67.00" routeLength="894.86" waitingTime="0.00" waitingCount="0" stopTime="0.00" timeLoss="6.32" rerouteNo="0" devices="tripinfo_476" vType="DEFAULT_VEHTYPE" speedFactor="1.10" vaporized=""/>
    <tripinfo id="473" depart="1415.00" departLane="right1D1_0" departPos="5.10" departSpeed="0.00" departDelay="1.00" arrival="1500.00" arrivalLane="D2right2_0" arrivalPos="286.40" arrivalSpeed="13.41" duration="85.00" routeLength="858.56" waitingTime="3.00" waitingCount="3" stopTime="0.00" timeLoss="24.35" rerouteNo="0" devices="tripinfo_473" vType="DEFAULT_VEHTYPE" speedFactor="1.05" vaporized=""/>
    <tripinfo id="490" depart="1448.00" departLane="bottom0A0_0" departPos="5.10" departSpeed="0.00" departDelay="0.00" arrival="1525.00" arrivalLane="B0bottom1_0" arrivalPos="286.40" arrivalSpeed="13.77" duration="77.00" routeLength="858.56" waitingTime="2.00" waitingCount="2" stopTime="0.00" timeLoss="15.60" rerouteNo="0" devices="tripinfo_490" vType="DEFAULT_VEHTYPE" speedFactor="1.04" vaporized=""/>
    <tripinfo id="512" depart="1480.00" departLane="top3D3_0" departPos="5.10" departSpeed="0.00" departDelay="0.00" arrival="1560.00" arrivalLane="C3top2_0" arrivalPos="286.40" arrivalSpeed="14.36" duration="80.00" routeLength="858.56" waitingTime="2.00" waitingCount="2" stopTime="0.00" timeLoss="18.92" rerouteNo="0" devices="tripinfo_512" vType="DEFAULT_VEHTYPE" speedFactor="1.04" vaporized=""/>
    <tripinfo id="516" depart="1486.00" departLane="right1D1_0" departPos="5.10" departSpeed="0.00" departDelay="0.00" arrival="1562.00" arrivalLane="D2right2_0" arrivalPos="286.40" arrivalSpeed="14.72" duration="76.00" routeLength="858.56" waitingTime="2.00" waitingCount="2" stopTime="0.00" timeLoss="20.01" rerouteNo="0" devices="tripinfo_516" vType="DEFAULT_VEHTYPE" speedFactor="1.13" vaporized=""/>
    <tripinfo id="515" depart="1485.00" departLane="bottom2C0_0" departPos="5.10" departSpeed="0.00" departDelay="0.00" arrival="1568.00" arrivalLane="D0bottom3_0" arrivalPos="286.40" arrivalSpeed="13.12" duration="83.00" routeLength="858.56" waitingTime="2.00" waitingCount="2" stopTime="0.00" timeLoss="16.86" rerouteNo="0" devices="tripinfo_515" vType="DEFAULT_VEHTYPE" speedFactor="0.96" vaporized=""/>
    <tripinfo id="522" depart="1496.00" departLane="left1A1_0" departPos="5.10" departSpeed="0.00" departDelay="2.00" arrival="1575.00" arrivalLane="A0left0_0" arrivalPos="286.40" arrivalSpeed="12.60" duration="79.00" routeLength="858.56" waitingTime="1.00" waitingCount="1" stopTime="0.00" timeLoss="14.07" rerouteNo="0" devices="tripinfo_522" vType="DEFAULT_VEHTYPE" speedFactor="0.98" vaporized=""/>