<?xml version="1.0" encoding="UTF-8"?>

<!-- generated on 2023-08-30 14:01:27 by Eclipse SUMO libsumo Version 1.18.0
<configuration xmlns:xsi="http://www.w3.org/2001/XMLSchema-instance" xsi:noNamespaceSchemaLocation="http://sumo.dlr.de/xsd/libsumoConfiguration.xsd">

    <input>
        <net-file value="/home/stefan/RESCO/./environments/grid4x4/grid4x4.net.xml"/>
        <route-files value="/home/stefan/RESCO/./environments/grid4x4/grid4x4_99.rou.xml"/>
    </input>

    <output>
        <tripinfo-output value="/home/stefan/results/RAINBOW-tr0-grid4x4-0-drq_norm-wait_norm/tripinfo_99.xml"/>
        <tripinfo-output.write-unfinished value="true"/>
    </output>

    <processing>
        <time-to-teleport value="-1"/>
    </processing>

    <report>
        <no-warnings value="True"/>
        <no-step-log value="True"/>
    </report>

    <random_number>
        <random value="true"/>
    </random_number>

</configuration>
-->

<tripinfos xmlns:xsi="http://www.w3.org/2001/XMLSchema-instance" xsi:noNamespaceSchemaLocation="http://sumo.dlr.de/xsd/tripinfo_file.xsd">
    <tripinfo id="17" depart="65.00" departLane="bottom1B0_0" departPos="5.10" departSpeed="0.00" departDelay="0.00" arrival="136.00" arrivalLane="C0bottom2_0" arrivalPos="286.40" arrivalSpeed="14.57" duration="71.00" routeLength="858.56" waitingTime="1.00" waitingCount="1" stopTime="0.00" timeLoss="14.57" rerouteNo="0" devices="tripinfo_17" vType="DEFAULT_VEHTYPE" speedFactor="1.13" vaporized=""/>
    <tripinfo id="29" depart="99.00" departLane="bottom3D0_0" departPos="5.10" departSpeed="0.00" departDelay="0.00" arrival="152.00" arrivalLane="D0right0_0" arrivalPos="286.40" arrivalSpeed="13.34" duration="53.00" routeLength="576.73" waitingTime="1.00" waitingCount="1" stopTime="0.00" timeLoss="9.25" rerouteNo="0" devices="tripinfo_29" vType="DEFAULT_VEHTYPE" speedFactor="0.96" vaporized=""/>
    <tripinfo id="21" depart="73.00" departLane="right0D0_0" departPos="5.10" departSpeed="0.00" departDelay="0.00" arrival="156.00" arrivalLane="D1right1_0" arrivalPos="286.40" arrivalSpeed="11.91" duration="83.00" routeLength="858.56" waitingTime="2.00" waitingCount="2" stopTime="0.00" timeLoss="16.63" rerouteNo="0" devices="tripinfo_21" vType="DEFAULT_VEHTYPE" speedFactor="0.95" vaporized=""/>
    <tripinfo id="37" depart="114.00" departLane="right0D0_0" departPos="5.10" departSpeed="0.00" departDelay="0.00" arrival="167.00" arrivalLane="D0bottom3_0" arrivalPos="286.40" arrivalSpeed="12.53" duration="53.00" routeLength="597.55" waitingTime="0.00" waitingCount="0" stopTime="0.00" timeLoss="5.11" rerouteNo="0" devices="tripinfo_37" vType="DEFAULT_VEHTYPE" speedFactor="0.92" vaporized=""/>
    <tripinfo id="31" depart="108.00" departLane="top2C3_0" departPos="5.10" departSpeed="0.00" departDelay="2.00" arrival="186.00" arrivalLane="B3top1_0" arrivalPos="286.40" arrivalSpeed="12.79" duration="78.00" routeLength="858.56" waitingTime="1.00" waitingCount="1" stopTime="0.00" timeLoss="13.96" rerouteNo="0" devices="tripinfo_31" vType="DEFAULT_VEHTYPE" speedFactor="0.99" vaporized=""/>
    <tripinfo id="38" depart="116.00" departLane="right3D3_0" departPos="5.10" departSpeed="0.00" departDelay="0.00" arrival="192.00" arrivalLane="C3top2_0" arrivalPos="286.40" arrivalSpeed="13.25" duration="76.00" routeLength="876.90" waitingTime="1.00" waitingCount="1" stopTime="0.00" timeLoss="10.59" rerouteNo="0" devices="tripinfo_38" vType="DEFAULT_VEHTYPE" speedFactor="0.98" vaporized=""/>
    <tripinfo id="62" depart="206.00" departLane="left3A3_0" departPos="5.10" departSpeed="0.00" departDelay="0.00" arrival="254.00" arrivalLane="A3top0_0" arrivalPos="286.40" arrivalSpeed="13.81" duration="48.00" routeLength="597.55" waitingTime="0.00" waitingCount="0" stopTime="0.00" timeLoss="5.34" rerouteNo="0" devices="tripinfo_62" vType="DEFAULT_VEHTYPE" speedFactor="1.02" vaporized=""/>
    <tripinfo id="71" depart="244.00" departLane="left3A3_0" departPos="5.10" departSpeed="0.00" departDelay="0.00" arrival="315.00" arrivalLane="A2left2_0" arrivalPos="286.40" arrivalSpeed="14.06" duration="71.00" routeLength="858.56" waitingTime="1.00" waitingCount="1" stopTime="0.00" timeLoss="13.26" rerouteNo="0" devices="tripinfo_71" vType="DEFAULT_VEHTYPE" speedFactor="1.11" vaporized=""/>
    <tripinfo id="91" depart="332.00" departLane="left3A3_0" departPos="5.10" departSpeed="0.00" departDelay="0.00" arrival="376.00" arrivalLane="A3top0_0" arrivalPos="286.40" arrivalSpeed="15.88" duration="44.00" routeLength="597.55" waitingTime="0.00" waitingCount="0" stopTime="0.00" timeLoss="5.71" rerouteNo="0" devices="tripinfo_91" vType="DEFAULT_VEHTYPE" speedFactor="1.15" vaporized=""/>
    <tripinfo id="84" depart="310.00" departLane="top3D3_0" departPos="5.10" departSpeed="0.00" departDelay="0.00" arrival="391.00" arrivalLane="C3top2_0" arrivalPos="286.40" arrivalSpeed="13.78" duration="81.00" routeLength="858.56" waitingTime="2.00" waitingCount="2" stopTime="0.00" timeLoss="18.67" rerouteNo="0" devices="tripinfo_84" vType="DEFAULT_VEHTYPE" speedFactor="1.02" vaporized=""/>
    <tripinfo id="99" depart="376.00" departLane="left2A2_0" departPos="5.10" departSpeed="0.00" departDelay="0.00" arrival="452.00" arrivalLane="A1left1_0" arrivalPos="286.40" arrivalSpeed="13.90" duration="76.00" routeLength="858.56" waitingTime="1.00" waitingCount="1" stopTime="0.00" timeLoss="17.62" rerouteNo="0" devices="tripinfo_99" vType="DEFAULT_VEHTYPE" speedFactor="1.08" vaporized=""/>
    <tripinfo id="104" depart="388.00" departLane="bottom0A0_0" departPos="5.10" departSpeed="0.00" departDelay="0.00" arrival="464.00" arrivalLane="B0bottom1_0" arrivalPos="286.40" arrivalSpeed="14.56" duration="76.00" routeLength="858.56" waitingTime="3.00" waitingCount="2" stopTime="0.00" timeLoss="19.13" rerouteNo="0" devices="tripinfo_104" vType="DEFAULT_VEHTYPE" speedFactor="1.12" vaporized=""/>
    <tripinfo id="121" depart="469.00" departLane="left3A3_0" departPos="5.10" departSpeed="0.00" departDelay="0.00" arrival="527.00" arrivalLane="A3top0_0" arrivalPos="286.40" arrivalSpeed="11.52" duration="58.00" routeLength="597.55" waitingTime="0.00" waitingCount="0" stopTime="0.00" timeLoss="5.92" rerouteNo="0" devices="tripinfo_121" vType="DEFAULT_VEHTYPE" speedFactor="0.84" vaporized=""/>
    <tripinfo id="127" depart="477.00" departLane="top2C3_0" departPos="5.10" departSpeed="0.00" departDelay="0.00" arrival="547.00" arrivalLane="B3top1_0" arrivalPos="286.40" arrivalSpeed="14.77" duration="70.00" routeLength="858.56" waitingTime="1.00" waitingCount="1" stopTime="0.00" timeLoss="13.32" rerouteNo="0" devices="tripinfo_127" vType="DEFAULT_VEHTYPE" speedFactor="1.12" vaporized=""/>
    <tripinfo id="135" depart="503.00" departLane="left0A0_0" departPos="5.10" departSpeed="0.00" departDelay="0.00" arrival="549.00" arrivalLane="A0bottom0_0" arrivalPos="286.40" arrivalSpeed="14.97" duration="46.00" routeLength="576.73" waitingTime="0.00" waitingCount="0" stopTime="0.00" timeLoss="6.88" rerouteNo="0" devices="tripinfo_135" vType="DEFAULT_VEHTYPE" speedFactor="1.08" vaporized=""/>
    <tripinfo id="5" depart="15.00" departLane="top0A3_0" departPos="5.10" departSpeed="0.00" departDelay="0.00" arrival="557.00" arrivalLane="B3top1_0" arrivalPos="286.40" arrivalSpeed="14.43" duration="542.00" routeLength="894.86" waitingTime="470.00" waitingCount="1" stopTime="0.00" timeLoss="481.86" rerouteNo="0" devices="tripinfo_5" vType="DEFAULT_VEHTYPE" speedFactor="1.09" vaporized=""/>
    <tripinfo id="140" depart="511.00" departLane="left0A0_0" departPos="5.10" departSpeed="0.00" departDelay="0.00" arrival="562.00" arrivalLane="A0bottom0_0" arrivalPos="286.40" arrivalSpeed="12.74" duration="51.00" routeLength="576.73" waitingTime="0.00" waitingCount="0" stopTime="0.00" timeLoss="6.72" rerouteNo="0" devices="tripinfo_140" vType="DEFAULT_VEHTYPE" speedFactor="0.96" vaporized=""/>
    <tripinfo id="77" depart="262.00" departLane="top1B3_0" departPos="5.10" departSpeed="0.00" departDelay="0.00" arrival="563.00" arrivalLane="B3top1_1" arrivalPos="286.40" arrivalSpeed="13.80" duration="301.00" routeLength="1748.75" waitingTime="145.00" waitingCount="4" stopTime="0.00" timeLoss="175.92" rerouteNo="0" devices="tripinfo_77" vType="DEFAULT_VEHTYPE" speedFactor="1.03" vaporized=""/>
    <tripinfo id="66" depart="231.00" departLane="top1B3_0" departPos="5.10" departSpeed="0.00" departDelay="0.00" arrival="564.00" arrivalLane="B3top1_0" arrivalPos="286.40" arrivalSpeed="11.64" duration="333.00" routeLength="1748.75" waitingTime="161.00" waitingCount="4" stopTime="0.00" timeLoss="189.90" rerouteNo="0" devices="tripinfo_66" vType="DEFAULT_VEHTYPE" speedFactor="0.90" vaporized=""/>
    <tripinfo id="116" depart="434.00" departLane="top1B3_0" departPos="5.10" departSpeed="0.00" departDelay="0.00" arrival="583.00" arrivalLane="B3top1_0" arrivalPos="286.40" arrivalSpeed="14.41" duration="149.00" routeLength="1748.75" waitingTime="3.00" waitingCount="3" stopTime="0.00" timeLoss="29.36" rerouteNo="0" devices="tripinfo_116" vType="DEFAULT_VEHTYPE" speedFactor="1.07" vaporized=""/>
    <tripinfo id="144" depart="532.00" departLane="right0D0_0" departPos="5.10" departSpeed="0.00" departDelay="0.00" arrival="616.00" arrivalLane="D1right1_0" arrivalPos="286.40" arrivalSpeed="12.59" duration="84.00" routeLength="858.56" waitingTime="2.00" waitingCount="2" stopTime="0.00" timeLoss="17.83" rerouteNo="0" devices="tripinfo_144" vType="DEFAULT_VEHTYPE" speedFactor="0.96" vaporized=""/>
    <tripinfo id="122" depart="470.00" departLane="right1D1_0" departPos="5.10" departSpeed="0.00" departDelay="0.00" arrival="661.00" arrivalLane="D3right3_0" arrivalPos="286.40" arrivalSpeed="15.02" duration="191.00" routeLength="1161.43" waitingTime="93.00" waitingCount="3" stopTime="0.00" timeLoss="115.16" rerouteNo="0" devices="tripinfo_122" vType="DEFAULT_VEHTYPE" speedFactor="1.12" vaporized=""/>
    <tripinfo id="164" depart="622.00" departLane="bottom1B0_0" departPos="5.10" departSpeed="0.00" departDelay="0.00" arrival="705.00" arrivalLane="A0left0_0" arrivalPos="286.40" arrivalSpeed="11.46" duration="83.00" routeLength="895.01" waitingTime="0.00" waitingCount="0" stopTime="0.00" timeLoss="6.73" rerouteNo="0" devices="tripinfo_164" vType="DEFAULT_VEHTYPE" speedFactor="0.86" vaporized=""/>
    <tripinfo id="177" depart="656.00" departLane="left0A0_0" departPos="5.10" departSpeed="0.00" departDelay="0.00" arrival="724.00" arrivalLane="B0bottom1_0" arrivalPos="286.40" arrivalSpeed="16.24" duration="68.00" routeLength="876.90" waitingTime="1.00" waitingCount="1" stopTime="0.00" timeLoss="13.83" rerouteNo="0" devices="tripinfo_177" vType="DEFAULT_VEHTYPE" speedFactor="1.18" vaporized=""/>
    <tripinfo id="167" depart="628.00" departLane="left3A3_0" departPos="5.10" departSpeed="0.00" departDelay="0.00" arrival="734.00" arrivalLane="A1left1_0" arrivalPos="286.40" arrivalSpeed="14.06" duration="106.00" routeLength="1161.43" waitingTime="2.00" waitingCount="2" stopTime="0.00" timeLoss="21.98" rerouteNo="0" devices="tripinfo_167" vType="DEFAULT_VEHTYPE" speedFactor="1.02" vaporized=""/>
    <tripinfo id="179" depart="666.00" departLane="bottom0A0_0" departPos="5.10" departSpeed="0.00" departDelay="0.00" arrival="744.00" arrivalLane="B0bottom1_0" arrivalPos="286.40" arrivalSpeed="14.16" duration="78.00" routeLength="858.56" waitingTime="2.00" waitingCount="2" stopTime="0.00" timeLoss="18.35" rerouteNo="0" devices="tripinfo_179" vType="DEFAULT_VEHTYPE" speedFactor="1.06" vaporized=""/>
    <tripinfo id="191" depart="703.00" departLane="bottom1B0_0" departPos="5.10" departSpeed="0.00" departDelay="0.00" arrival="782.00" arrivalLane="A0left0_0" arrivalPos="286.40" arrivalSpeed="11.45" duration="79.00" routeLength="895.01" waitingTime="0.00" waitingCount="0" stopTime="0.00" timeLoss="7.35" rerouteNo="0" devices="tripinfo_191" vType="DEFAULT_VEHTYPE" speedFactor="0.92" vaporized=""/>
    <tripinfo id="209" depart="757.00" departLane="right0D0_0" departPos="5.10" departSpeed="0.00" departDelay="0.00" arrival="839.00" arrivalLane="D1right1_0" arrivalPos="286.40" arrivalSpeed="13.20" duration="82.00" routeLength="858.56" waitingTime="2.00" waitingCount="2" stopTime="0.00" timeLoss="20.34" rerouteNo="0" devices="tripinfo_209" vType="DEFAULT_VEHTYPE" speedFactor="1.02" vaporized=""/>
    <tripinfo id="214" depart="767.00" departLane="top2C3_0" departPos="5.10" departSpeed="0.00" departDelay="0.00" arrival="844.00" arrivalLane="B3top1_0" arrivalPos="286.40" arrivalSpeed="13.43" duration="77.00" routeLength="858.56" waitingTime="1.00" waitingCount="1" stopTime="0.00" timeLoss="14.06" rerouteNo="0" devices="tripinfo_214" vType="DEFAULT_VEHTYPE" speedFactor="1.02" vaporized=""/>
    <tripinfo id="4" depart="11.00" departLane="right3D3_0" departPos="5.10" departSpeed="0.00" departDelay="0.00" arrival="875.00" arrivalLane="B3top1_0" arrivalPos="286.40" arrivalSpeed="12.07" duration="864.00" routeLength="1177.07" waitingTime="749.00" waitingCount="2" stopTime="0.00" timeLoss="768.13" rerouteNo="0" devices="tripinfo_4" vType="DEFAULT_VEHTYPE" speedFactor="0.89" vaporized=""/>
    <tripinfo id="192" depart="715.00" departLane="right3D3_0" departPos="5.10" departSpeed="0.00" departDelay="0.00" arrival="878.00" arrivalLane="B3top1_0" arrivalPos="286.40" arrivalSpeed="13.05" duration="163.00" routeLength="1177.07" waitingTime="59.00" waitingCount="2" stopTime="0.00" timeLoss="79.04" rerouteNo="0" devices="tripinfo_192" vType="DEFAULT_VEHTYPE" speedFactor="1.02" vaporized=""/>
    <tripinfo id="242" depart="855.00" departLane="bottom0A0_0" departPos="5.10" departSpeed="0.00" departDelay="0.00" arrival="934.00" arrivalLane="B0bottom1_0" arrivalPos="286.40" arrivalSpeed="13.71" duration="79.00" routeLength="858.56" waitingTime="2.00" waitingCount="2" stopTime="0.00" timeLoss="18.43" rerouteNo="0" devices="tripinfo_242" vType="DEFAULT_VEHTYPE" speedFactor="1.05" vaporized=""/>
    <tripinfo id="158" depart="600.00" departLane="right2D2_0" departPos="5.10" departSpeed="0.00" departDelay="2.00" arrival="959.00" arrivalLane="D1right1_0" arrivalPos="286.40" arrivalSpeed="13.83" duration="359.00" routeLength="894.86" waitingTime="276.00" waitingCount="2" stopTime="0.00" timeLoss="293.65" rerouteNo="0" devices="tripinfo_158" vType="DEFAULT_VEHTYPE" speedFactor="1.00" vaporized=""/>
    <tripinfo id="260" depart="907.00" departLane="top0A3_0" departPos="5.10" departSpeed="0.00" departDelay="1.00" arrival="962.00" arrivalLane="A3left3_0" arrivalPos="286.40" arrivalSpeed="13.24" duration="55.00" routeLength="576.73" waitingTime="1.00" waitingCount="1" stopTime="0.00" timeLoss="12.31" rerouteNo="0" devices="tripinfo_260" vType="DEFAULT_VEHTYPE" speedFactor="1.00" vaporized=""/>
    <tripinfo id="267" depart="921.00" departLane="top0A3_0" departPos="5.10" departSpeed="0.00" departDelay="0.00" arrival="977.00" arrivalLane="A3left3_0" arrivalPos="286.40" arrivalSpeed="12.09" duration="56.00" routeLength="576.73" waitingTime="1.00" waitingCount="1" stopTime="0.00" timeLoss="10.87" rerouteNo="0" devices="tripinfo_267" vType="DEFAULT_VEHTYPE" speedFactor="0.94" vaporized=""/>
    <tripinfo id="261" depart="908.00" departLane="left3A3_0" departPos="5.10" departSpeed="0.00" departDelay="2.00" arrival="1010.00" arrivalLane="A1left1_0" arrivalPos="286.40" arrivalSpeed="14.08" duration="102.00" routeLength="1161.43" waitingTime="2.00" waitingCount="2" stopTime="0.00" timeLoss="19.08" rerouteNo="0" devices="tripinfo_261" vType="DEFAULT_VEHTYPE" speedFactor="1.03" vaporized=""/>
    <tripinfo id="279" depart="961.00" departLane="bottom3D0_0" departPos="5.10" departSpeed="0.00" departDelay="0.00" arrival="1015.00" arrivalLane="D0right0_0" arrivalPos="286.40" arrivalSpeed="12.46" duration="54.00" routeLength="576.73" waitingTime="1.00" waitingCount="1" stopTime="0.00" timeLoss="11.50" rerouteNo="0" devices="tripinfo_279" vType="DEFAULT_VEHTYPE" speedFactor="0.99" vaporized=""/>
    <tripinfo id="270" depart="936.00" departLane="top3D3_0" departPos="5.10" departSpeed="0.00" departDelay="0.00" arrival="1020.00" arrivalLane="C3top2_0" arrivalPos="286.40" arrivalSpeed="12.84" duration="84.00" routeLength="858.56" waitingTime="1.00" waitingCount="1" stopTime="0.00" timeLoss="15.19" rerouteNo="0" devices="tripinfo_270" vType="DEFAULT_VEHTYPE" speedFactor="0.93" vaporized=""/>
    <tripinfo id="294" depart="993.00" departLane="right3D3_0" departPos="5.10" departSpeed="0.00" departDelay="0.00" arrival="1043.00" arrivalLane="D3top3_0" arrivalPos="286.40" arrivalSpeed="13.23" duration="50.00" routeLength="576.73" waitingTime="0.00" waitingCount="0" stopTime="0.00" timeLoss="6.80" rerouteNo="0" devices="tripinfo_294" vType="DEFAULT_VEHTYPE" speedFactor="0.99" vaporized=""/>
    <tripinfo id="299" depart="1009.00" departLane="left3A3_0" departPos="5.10" departSpeed="0.00" departDelay="0.00" arrival="1089.00" arrivalLane="A2left2_0" arrivalPos="286.40" arrivalSpeed="13.56" duration="80.00" routeLength="858.56" waitingTime="1.00" waitingCount="1" stopTime="0.00" timeLoss="14.65" rerouteNo="0" devices="tripinfo_299" vType="DEFAULT_VEHTYPE" speedFactor="0.98" vaporized=""/>
    <tripinfo id="295" depart="999.00" departLane="bottom1B0_0" departPos="5.10" departSpeed="0.00" departDelay="0.00" arrival="1102.00" arrivalLane="D0bottom3_0" arrivalPos="286.40" arrivalSpeed="13.64" duration="103.00" routeLength="1161.43" waitingTime="2.00" waitingCount="2" stopTime="0.00" timeLoss="19.80" rerouteNo="0" devices="tripinfo_295" vType="DEFAULT_VEHTYPE" speedFactor="1.02" vaporized=""/>
    <tripinfo id="319" depart="1049.00" departLane="top0A3_0" departPos="5.10" departSpeed="0.00" departDelay="0.00" arrival="1105.00" arrivalLane="A3left3_0" arrivalPos="286.40" arrivalSpeed="12.77" duration="56.00" routeLength="576.73" waitingTime="1.00" waitingCount="1" stopTime="0.00" timeLoss="11.34" rerouteNo="0" devices="tripinfo_319" vType="DEFAULT_VEHTYPE" speedFactor="0.95" vaporized=""/>
    <tripinfo id="115" depart="434.00" departLane="left0A0_0" departPos="5.10" departSpeed="0.00" departDelay="0.00" arrival="1116.00" arrivalLane="C0bottom2_0" arrivalPos="286.40" arrivalSpeed="14.10" duration="682.00" routeLength="1177.07" waitingTime="582.00" waitingCount="1" stopTime="0.00" timeLoss="598.11" rerouteNo="0" devices="tripinfo_115" vType="DEFAULT_VEHTYPE" speedFactor="1.02" vaporized=""/>
    <tripinfo id="148" depart="546.00" departLane="left0A0_0" departPos="5.10" departSpeed="0.00" departDelay="0.00" arrival="1125.00" arrivalLane="C0bottom2_0" arrivalPos="286.40" arrivalSpeed="13.14" duration="579.00" routeLength="1177.07" waitingTime="473.00" waitingCount="1" stopTime="0.00" timeLoss="488.88" rerouteNo="0" devices="tripinfo_148" vType="DEFAULT_VEHTYPE" speedFactor="0.95" vaporized=""/>
    <tripinfo id="311" depart="1031.00" departLane="bottom0A0_0" departPos="5.10" departSpeed="0.00" departDelay="0.00" arrival="1130.00" arrivalLane="C0bottom2_0" arrivalPos="286.40" arrivalSpeed="13.82" duration="99.00" routeLength="1161.43" waitingTime="1.00" waitingCount="1" stopTime="0.00" timeLoss="17.69" rerouteNo="0" devices="tripinfo_311" vType="DEFAULT_VEHTYPE" speedFactor="1.05" vaporized=""/>
    <tripinfo id="117" depart="437.00" departLane="left0A0_0" departPos="5.10" departSpeed="0.00" departDelay="2.00" arrival="1138.00" arrivalLane="D0bottom3_0" arrivalPos="286.40" arrivalSpeed="15.64" duration="701.00" routeLength="1477.24" waitingTime="582.00" waitingCount="2" stopTime="0.00" timeLoss="605.72" rerouteNo="0" devices="tripinfo_117" vType="DEFAULT_VEHTYPE" speedFactor="1.13" vaporized=""/>
    <tripinfo id="3" depart="7.00" departLane="top1B3_0" departPos="5.10" departSpeed="0.00" departDelay="0.00" arrival="1139.00" arrivalLane="C3top2_0" arrivalPos="286.40" arrivalSpeed="13.06" duration="1132.00" routeLength="894.86" waitingTime="1055.00" waitingCount="1" stopTime="0.00" timeLoss="1066.41" rerouteNo="0" devices="tripinfo_3" vType="DEFAULT_VEHTYPE" speedFactor="1.00" vaporized=""/>
    <tripinfo id="30" depart="105.00" departLane="top2C3_0" departPos="5.10" departSpeed="0.00" departDelay="0.00" arrival="1140.00" arrivalLane="C3top2_1" arrivalPos="286.40" arrivalSpeed="15.06" duration="1035.00" routeLength="1748.75" waitingTime="892.00" waitingCount="3" stopTime="0.00" timeLoss="918.63" rerouteNo="0" devices="tripinfo_30" vType="DEFAULT_VEHTYPE" speedFactor="1.11" vaporized=""/>
    <tripinfo id="82" depart="295.00" departLane="top1B3_0" departPos="5.10" departSpeed="0.00" departDelay="0.00" arrival="1143.00" arrivalLane="C3top2_0" arrivalPos="286.40" arrivalSpeed="13.39" duration="848.00" routeLength="894.86" waitingTime="766.00" waitingCount="1" stopTime="0.00" timeLoss="783.56" rerouteNo="0" devices="tripinfo_82" vType="DEFAULT_VEHTYPE" speedFactor="1.03" vaporized=""/>
    <tripinfo id="88" depart="328.00" departLane="top2C3_0" departPos="5.10" departSpeed="0.00" departDelay="0.00" arrival="1144.00" arrivalLane="C3top2_0" arrivalPos="286.40" arrivalSpeed="13.54" duration="816.00" routeLength="1748.75" waitingTime="662.00" waitingCount="4" stopTime="0.00" timeLoss="694.42" rerouteNo="0" devices="tripinfo_88" vType="DEFAULT_VEHTYPE" speedFactor="1.05" vaporized=""/>
    <tripinfo id="293" depart="993.00" departLane="top1B3_0" departPos="5.10" departSpeed="0.00" departDelay="0.00" arrival="1147.00" arrivalLane="C3top2_0" arrivalPos="286.40" arrivalSpeed="13.79" duration="154.00" routeLength="894.86" waitingTime="76.00" waitingCount="1" stopTime="0.00" timeLoss="89.32" rerouteNo="0" devices="tripinfo_293" vType="DEFAULT_VEHTYPE" speedFactor="1.02" vaporized=""/>
    <tripinfo id="243" depart="859.00" departLane="bottom0A0_0" departPos="5.10" departSpeed="0.00" departDelay="0.00" arrival="1148.00" arrivalLane="D0bottom3_0" arrivalPos="286.40" arrivalSpeed="13.34" duration="289.00" routeLength="1461.60" waitingTime="158.00" waitingCount="3" stopTime="0.00" timeLoss="187.49" rerouteNo="0" devices="tripinfo_243" vType="DEFAULT_VEHTYPE" speedFactor="1.05" vaporized=""/>
    <tripinfo id="322" depart="1060.00" departLane="right2D2_0" departPos="5.10" departSpeed="0.00" departDelay="0.00" arrival="1148.00" arrivalLane="D3right3_0" arrivalPos="286.40" arrivalSpeed="12.58" duration="88.00" routeLength="858.56" waitingTime="2.00" waitingCount="2" stopTime="0.00" timeLoss="20.16" rerouteNo="0" devices="tripinfo_322" vType="DEFAULT_VEHTYPE" speedFactor="0.93" vaporized=""/>
    <tripinfo id="327" depart="1069.00" departLane="left3A3_0" departPos="5.10" departSpeed="0.00" departDelay="0.00" arrival="1163.00" arrivalLane="A1left1_0" arrivalPos="286.40" arrivalSpeed="14.83" duration="94.00" routeLength="1161.43" waitingTime="2.00" waitingCount="2" stopTime="0.00" timeLoss="19.91" rerouteNo="0" devices="tripinfo_327" vType="DEFAULT_VEHTYPE" speedFactor="1.15" vaporized=""/>
    <tripinfo id="362" depart="1143.00" departLane="top3D3_0" departPos="5.10" departSpeed="0.00" departDelay="0.00" arrival="1232.00" arrivalLane="C3top2_0" arrivalPos="286.40" arrivalSpeed="11.81" duration="89.00" routeLength="858.56" waitingTime="2.00" waitingCount="2" stopTime="0.00" timeLoss="18.81" rerouteNo="0" devices="tripinfo_362" vType="DEFAULT_VEHTYPE" speedFactor="0.90" vaporized=""/>
    <tripinfo id="380" depart="1179.00" departLane="bottom1B0_0" departPos="5.10" departSpeed="0.00" departDelay="1.00" arrival="1244.00" arrivalLane="C0bottom2_0" arrivalPos="286.40" arrivalSpeed="16.25" duration="65.00" routeLength="858.56" waitingTime="1.00" waitingCount="1" stopTime="0.00" timeLoss="13.80" rerouteNo="0" devices="tripinfo_380" vType="DEFAULT_VEHTYPE" speedFactor="1.25" vaporized=""/>
    <tripinfo id="363" depart="1148.00" departLane="bottom1B0_0" departPos="5.10" departSpeed="0.00" departDelay="0.00" arrival="1248.00" arrivalLane="D0bottom3_0" arrivalPos="286.40" arrivalSpeed="13.83" duration="100.00" routeLength="1161.43" waitingTime="2.00" waitingCount="2" stopTime="0.00" timeLoss="18.79" rerouteNo="0" devices="tripinfo_363" vType="DEFAULT_VEHTYPE" speedFactor="1.04" vaporized=""/>
    <tripinfo id="282" depart="967.00" departLane="right1D1_0" departPos="5.10" departSpeed="0.00" departDelay="0.00" arrival="1305.00" arrivalLane="D3right3_0" arrivalPos="286.40" arrivalSpeed="11.22" duration="338.00" routeLength="1161.43" waitingTime="214.00" waitingCount="3" stopTime="0.00" timeLoss="237.09" rerouteNo="0" devices="tripinfo_282" vType="DEFAULT_VEHTYPE" speedFactor="0.84" vaporized=""/>
    <tripinfo id="414" depart="1262.00" departLane="left0A0_0" departPos="5.10" departSpeed="0.00" departDelay="0.00" arrival="1313.00" arrivalLane="A0bottom0_0" arrivalPos="286.40" arrivalSpeed="12.15" duration="51.00" routeLength="576.73" waitingTime="0.00" waitingCount="0" stopTime="0.00" timeLoss="6.03" rerouteNo="0" devices="tripinfo_414" vType="DEFAULT_VEHTYPE" speedFactor="0.95" vaporized=""/>
    <tripinfo id="417" depart="1268.00" departLane="bottom3D0_0" departPos="5.10" departSpeed="0.00" departDelay="0.00" arrival="1324.00" arrivalLane="D0right0_0" arrivalPos="286.40" arrivalSpeed="12.33" duration="56.00" routeLength="576.73" waitingTime="1.00" waitingCount="1" stopTime="0.00" timeLoss="11.22" rerouteNo="0" devices="tripinfo_417" vType="DEFAULT_VEHTYPE" speedFactor="0.94" vaporized=""/>
    <tripinfo id="408" depart="1246.00" departLane="left3A3_0" departPos="5.10" departSpeed="0.00" departDelay="0.00" arrival="1329.00" arrivalLane="A2left2_0" arrivalPos="286.40" arrivalSpeed="12.08" duration="83.00" routeLength="858.56" waitingTime="1.00" waitingCount="1" stopTime="0.00" timeLoss="14.74" rerouteNo="0" devices="tripinfo_408" vType="DEFAULT_VEHTYPE" speedFactor="0.94" vaporized=""/>
    <tripinfo id="429" depart="1296.00" departLane="left0A0_0" departPos="5.10" departSpeed="0.00" departDelay="0.00" arrival="1348.00" arrivalLane="A0bottom0_0" arrivalPos="286.40" arrivalSpeed="11.80" duration="52.00" routeLength="576.73" waitingTime="0.00" waitingCount="0" stopTime="0.00" timeLoss="6.62" rerouteNo="0" devices="tripinfo_429" vType="DEFAULT_VEHTYPE" speedFactor="0.93" vaporized=""/>
    <tripinfo id="437" depart="1305.00" departLane="left0A0_0" departPos="5.10" departSpeed="0.00" departDelay="0.00" arrival="1350.00" arrivalLane="A0bottom0_0" arrivalPos="286.40" arrivalSpeed="15.41" duration="45.00" routeLength="576.73" waitingTime="0.00" waitingCount="0" stopTime="0.00" timeLoss="7.53" rerouteNo="0" devices="tripinfo_437" vType="DEFAULT_VEHTYPE" speedFactor="1.14" vaporized=""/>
    <tripinfo id="425" depart="1284.00" departLane="right3D3_0" departPos="5.10" departSpeed="0.00" departDelay="0.00" arrival="1361.00" arrivalLane="C3top2_0" arrivalPos="286.40" arrivalSpeed="12.70" duration="77.00" routeLength="876.90" waitingTime="1.00" waitingCount="1" stopTime="0.00" timeLoss="12.40" rerouteNo="0" devices="tripinfo_425" vType="DEFAULT_VEHTYPE" speedFactor="0.98" vaporized=""/>
    <tripinfo id="457" depart="1336.00" departLane="right0D0_0" departPos="5.10" departSpeed="0.00" departDelay="0.00" arrival="1391.00" arrivalLane="D0bottom3_0" arrivalPos="286.40" arrivalSpeed="11.93" duration="55.00" routeLength="597.55" waitingTime="0.00" waitingCount="0" stopTime="0.00" timeLoss="5.57" rerouteNo="0" devices="tripinfo_457" vType="DEFAULT_VEHTYPE" speedFactor="0.89" vaporized=""/>
    <tripinfo id="439" depart="1308.00" departLane="top1B3_0" departPos="5.10" departSpeed="0.00" departDelay="0.00" arrival="1415.00" arrivalLane="C3top2_0" arrivalPos="286.40" arrivalSpeed="12.94" duration="107.00" routeLength="894.86" waitingTime="28.00" waitingCount="1" stopTime="0.00" timeLoss="40.23" rerouteNo="0" devices="tripinfo_439" vType="DEFAULT_VEHTYPE" speedFactor="0.99" vaporized=""/>
    <tripinfo id="75" depart="258.00" departLane="right2D2_0" departPos="5.10" departSpeed="0.00" departDelay="0.00" arrival="1418.00" arrivalLane="D3top3_0" arrivalPos="286.40" arrivalSpeed="14.58" duration="1160.00" routeLength="879.60" waitingTime="1081.00" waitingCount="2" stopTime="0.00" timeLoss="1098.97" rerouteNo="0" devices="tripinfo_75" vType="DEFAULT_VEHTYPE" speedFactor="1.05" vaporized=""/>
    <tripinfo id="461" depart="1342.00" departLane="left1A1_0" departPos="5.10" departSpeed="0.00" departDelay="0.00" arrival="1421.00" arrivalLane="A0left0_0" arrivalPos="286.40" arrivalSpeed="14.28" duration="79.00" routeLength="858.56" waitingTime="2.00" waitingCount="2" stopTime="0.00" timeLoss="19.31" rerouteNo="0" devices="tripinfo_461" vType="DEFAULT_VEHTYPE" speedFactor="1.06" vaporized=""/>
    <tripinfo id="154" depart="579.00" departLane="right1D1_0" departPos="5.10" departSpeed="0.00" departDelay="0.00" arrival="1423.00" arrivalLane="D3top3_0" arrivalPos="286.40" arrivalSpeed="12.79" duration="844.00" routeLength="1179.77" waitingTime="734.00" waitingCount="2" stopTime="0.00" timeLoss="751.37" rerouteNo="0" devices="tripinfo_154" vType="DEFAULT_VEHTYPE" speedFactor="0.93" vaporized=""/>
    <tripinfo id="237" depart="840.00" departLane="right1D1_0" departPos="5.10" departSpeed="0.00" departDelay="0.00" arrival="1423.00" arrivalLane="D3top3_1" arrivalPos="286.40" arrivalSpeed="13.46" duration="583.00" routeLength="1179.77" waitingTime="480.00" waitingCount="2" stopTime="0.00" timeLoss="497.56" rerouteNo="0" devices="tripinfo_237" vType="DEFAULT_VEHTYPE" speedFactor="1.00" vaporized=""/>
    <tripinfo id="463" depart="1344.00" departLane="bottom1B0_0" departPos="5.10" departSpeed="0.00" departDelay="0.00" arrival="1430.00" arrivalLane="C0bottom2_0" arrivalPos="286.40" arrivalSpeed="12.12" duration="86.00" routeLength="858.56" waitingTime="1.00" waitingCount="1" stopTime="0.00" timeLoss="14.42" rerouteNo="0" devices="tripinfo_463" vType="DEFAULT_VEHTYPE" speedFactor="0.88" vaporized=""/>