<?xml version="1.0" encoding="UTF-8"?>

<!-- generated on 2023-08-30 13:13:14 by Eclipse SUMO libsumo Version 1.18.0
<configuration xmlns:xsi="http://www.w3.org/2001/XMLSchema-instance" xsi:noNamespaceSchemaLocation="http://sumo.dlr.de/xsd/libsumoConfiguration.xsd">

    <input>
        <net-file value="/home/stefan/RESCO/./environments/grid4x4/grid4x4.net.xml"/>
        <route-files value="/home/stefan/RESCO/./environments/grid4x4/grid4x4_30.rou.xml"/>
    </input>

    <output>
        <tripinfo-output value="/home/stefan/results/RAINBOW-tr0-grid4x4-0-drq_norm-wait_norm/tripinfo_30.xml"/>
        <tripinfo-output.write-unfinished value="true"/>
    </output>

    <processing>
        <time-to-teleport value="-1"/>
    </processing>

    <report>
        <no-warnings value="True"/>
        <no-step-log value="True"/>
    </report>

    <random_number>
        <random value="true"/>
    </random_number>

</configuration>
-->

<tripinfos xmlns:xsi="http://www.w3.org/2001/XMLSchema-instance" xsi:noNamespaceSchemaLocation="http://sumo.dlr.de/xsd/tripinfo_file.xsd">
    <tripinfo id="3" depart="11.00" departLane="right3D3_0" departPos="5.10" departSpeed="0.00" departDelay="0.00" arrival="54.00" arrivalLane="D3top3_0" arrivalPos="286.40" arrivalSpeed="16.43" duration="43.00" routeLength="576.73" waitingTime="0.00" waitingCount="0" stopTime="0.00" timeLoss="7.26" rerouteNo="0" devices="tripinfo_3" vType="DEFAULT_VEHTYPE" speedFactor="1.19" vaporized=""/>
    <tripinfo id="0" depart="6.00" departLane="bottom0A0_0" departPos="5.10" departSpeed="0.00" departDelay="0.00" arrival="59.00" arrivalLane="A0left0_0" arrivalPos="286.40" arrivalSpeed="12.54" duration="53.00" routeLength="597.55" waitingTime="0.00" waitingCount="0" stopTime="0.00" timeLoss="6.36" rerouteNo="0" devices="tripinfo_0" vType="DEFAULT_VEHTYPE" speedFactor="0.94" vaporized=""/>
    <tripinfo id="4" depart="21.00" departLane="left1A1_0" departPos="5.10" departSpeed="0.00" departDelay="0.00" arrival="102.00" arrivalLane="A0left0_0" arrivalPos="286.40" arrivalSpeed="11.95" duration="81.00" routeLength="858.56" waitingTime="1.00" waitingCount="1" stopTime="0.00" timeLoss="14.34" rerouteNo="0" devices="tripinfo_4" vType="DEFAULT_VEHTYPE" speedFactor="0.94" vaporized=""/>
    <tripinfo id="7" depart="34.00" departLane="right1D1_0" departPos="5.10" departSpeed="0.00" departDelay="0.00" arrival="116.00" arrivalLane="D2right2_0" arrivalPos="286.40" arrivalSpeed="12.91" duration="82.00" routeLength="858.56" waitingTime="1.00" waitingCount="1" stopTime="0.00" timeLoss="17.87" rerouteNo="0" devices="tripinfo_7" vType="DEFAULT_VEHTYPE" speedFactor="0.98" vaporized=""/>
    <tripinfo id="1" depart="9.00" departLane="right2D2_0" departPos="5.10" departSpeed="0.00" departDelay="0.00" arrival="200.00" arrivalLane="A0left0_0" arrivalPos="286.40" arrivalSpeed="14.12" duration="191.00" routeLength="2080.05" waitingTime="23.00" waitingCount="2" stopTime="0.00" timeLoss="45.68" rerouteNo="0" devices="tripinfo_1" vType="DEFAULT_VEHTYPE" speedFactor="1.04" vaporized=""/>
    <tripinfo id="23" depart="133.00" departLane="bottom3D0_0" departPos="5.10" departSpeed="0.00" departDelay="0.00" arrival="217.00" arrivalLane="D1right1_0" arrivalPos="286.40" arrivalSpeed="13.07" duration="84.00" routeLength="876.90" waitingTime="4.00" waitingCount="2" stopTime="0.00" timeLoss="20.34" rerouteNo="0" devices="tripinfo_23" vType="DEFAULT_VEHTYPE" speedFactor="1.01" vaporized=""/>
    <tripinfo id="19" depart="122.00" departLane="bottom2C0_0" departPos="5.10" departSpeed="0.00" departDelay="0.00" arrival="237.00" arrivalLane="A0left0_0" arrivalPos="286.40" arrivalSpeed="14.22" duration="115.00" routeLength="1195.18" waitingTime="17.00" waitingCount="2" stopTime="0.00" timeLoss="36.55" rerouteNo="0" devices="tripinfo_19" vType="DEFAULT_VEHTYPE" speedFactor="1.11" vaporized=""/>
    <tripinfo id="12" depart="53.00" departLane="right3D3_0" departPos="5.10" departSpeed="0.00" departDelay="0.00" arrival="280.00" arrivalLane="C0bottom2_0" arrivalPos="286.40" arrivalSpeed="12.18" duration="227.00" routeLength="1795.52" waitingTime="69.00" waitingCount="2" stopTime="0.00" timeLoss="87.34" rerouteNo="0" devices="tripinfo_12" vType="DEFAULT_VEHTYPE" speedFactor="0.93" vaporized=""/>
    <tripinfo id="10" depart="42.00" departLane="bottom2C0_0" departPos="5.10" departSpeed="0.00" departDelay="0.00" arrival="285.00" arrivalLane="A3left3_0" arrivalPos="286.40" arrivalSpeed="16.04" duration="243.00" routeLength="2095.69" waitingTime="92.00" waitingCount="2" stopTime="0.00" timeLoss="120.15" rerouteNo="0" devices="tripinfo_10" vType="DEFAULT_VEHTYPE" speedFactor="1.24" vaporized=""/>
    <tripinfo id="31" depart="160.00" departLane="top0A3_0" departPos="5.10" departSpeed="0.00" departDelay="0.00" arrival="307.00" arrivalLane="A0left0_0" arrivalPos="286.40" arrivalSpeed="13.25" duration="147.00" routeLength="1477.24" waitingTime="19.00" waitingCount="2" stopTime="0.00" timeLoss="43.54" rerouteNo="0" devices="tripinfo_31" vType="DEFAULT_VEHTYPE" speedFactor="1.03" vaporized=""/>
    <tripinfo id="25" depart="141.00" departLane="top0A3_0" departPos="5.10" departSpeed="0.00" departDelay="0.00" arrival="310.00" arrivalLane="A0bottom0_0" arrivalPos="286.40" arrivalSpeed="13.34" duration="169.00" routeLength="1495.58" waitingTime="34.00" waitingCount="3" stopTime="0.00" timeLoss="61.45" rerouteNo="0" devices="tripinfo_25" vType="DEFAULT_VEHTYPE" speedFactor="1.01" vaporized=""/>
    <tripinfo id="26" depart="146.00" departLane="right1D1_0" departPos="5.10" departSpeed="0.00" departDelay="0.00" arrival="315.00" arrivalLane="A1left1_0" arrivalPos="286.40" arrivalSpeed="13.33" duration="169.00" routeLength="1495.58" waitingTime="33.00" waitingCount="2" stopTime="0.00" timeLoss="62.42" rerouteNo="0" devices="tripinfo_26" vType="DEFAULT_VEHTYPE" speedFactor="1.02" vaporized=""/>
    <tripinfo id="8" depart="35.00" departLane="top1B3_0" departPos="5.10" departSpeed="0.00" departDelay="0.00" arrival="327.00" arrivalLane="D1right1_0" arrivalPos="286.40" arrivalSpeed="15.23" duration="292.00" routeLength="1795.52" waitingTime="149.00" waitingCount="3" stopTime="0.00" timeLoss="176.91" rerouteNo="0" devices="tripinfo_8" vType="DEFAULT_VEHTYPE" speedFactor="1.13" vaporized=""/>
    <tripinfo id="11" depart="47.00" departLane="bottom0A0_0" departPos="5.10" departSpeed="0.00" departDelay="0.00" arrival="332.00" arrivalLane="D1right1_0" arrivalPos="286.40" arrivalSpeed="13.42" duration="285.00" routeLength="1780.11" waitingTime="136.00" waitingCount="2" stopTime="0.00" timeLoss="156.70" rerouteNo="0" devices="tripinfo_11" vType="DEFAULT_VEHTYPE" speedFactor="1.01" vaporized=""/>
    <tripinfo id="53" depart="286.00" departLane="left3A3_0" departPos="5.10" departSpeed="0.00" departDelay="0.00" arrival="333.00" arrivalLane="A3top0_0" arrivalPos="286.40" arrivalSpeed="13.59" duration="47.00" routeLength="597.55" waitingTime="0.00" waitingCount="0" stopTime="0.00" timeLoss="5.74" rerouteNo="0" devices="tripinfo_53" vType="DEFAULT_VEHTYPE" speedFactor="1.06" vaporized=""/>
    <tripinfo id="45" depart="259.00" departLane="bottom0A0_0" departPos="5.10" departSpeed="0.00" departDelay="0.00" arrival="335.00" arrivalLane="B0bottom1_0" arrivalPos="286.40" arrivalSpeed="14.30" duration="76.00" routeLength="858.56" waitingTime="1.00" waitingCount="1" stopTime="0.00" timeLoss="15.71" rerouteNo="0" devices="tripinfo_45" vType="DEFAULT_VEHTYPE" speedFactor="1.05" vaporized=""/>
    <tripinfo id="17" depart="105.00" departLane="right0D0_0" departPos="5.10" departSpeed="0.00" departDelay="0.00" arrival="351.00" arrivalLane="C0bottom2_0" arrivalPos="286.40" arrivalSpeed="11.82" duration="246.00" routeLength="897.72" waitingTime="160.00" waitingCount="2" stopTime="0.00" timeLoss="176.58" rerouteNo="0" devices="tripinfo_17" vType="DEFAULT_VEHTYPE" speedFactor="0.94" vaporized=""/>
    <tripinfo id="32" depart="177.00" departLane="left1A1_0" departPos="5.10" departSpeed="0.00" departDelay="0.00" arrival="353.00" arrivalLane="D0bottom3_0" arrivalPos="286.40" arrivalSpeed="14.91" duration="176.00" routeLength="1780.11" waitingTime="31.00" waitingCount="2" stopTime="0.00" timeLoss="57.37" rerouteNo="0" devices="tripinfo_32" vType="DEFAULT_VEHTYPE" speedFactor="1.09" vaporized=""/>
    <tripinfo id="5" depart="28.00" departLane="bottom0A0_0" departPos="5.10" departSpeed="0.00" departDelay="0.00" arrival="358.00" arrivalLane="D0bottom3_0" arrivalPos="286.40" arrivalSpeed="14.78" duration="330.00" routeLength="1461.60" waitingTime="201.00" waitingCount="3" stopTime="0.00" timeLoss="230.41" rerouteNo="0" devices="tripinfo_5" vType="DEFAULT_VEHTYPE" speedFactor="1.07" vaporized=""/>
    <tripinfo id="55" depart="295.00" departLane="right3D3_0" departPos="5.10" departSpeed="0.00" departDelay="0.00" arrival="363.00" arrivalLane="C3top2_0" arrivalPos="286.40" arrivalSpeed="13.73" duration="68.00" routeLength="876.90" waitingTime="0.00" waitingCount="0" stopTime="0.00" timeLoss="7.76" rerouteNo="0" devices="tripinfo_55" vType="DEFAULT_VEHTYPE" speedFactor="1.06" vaporized=""/>
    <tripinfo id="21" depart="131.00" departLane="left1A1_0" departPos="5.10" departSpeed="0.00" departDelay="0.00" arrival="368.00" arrivalLane="C0bottom2_0" arrivalPos="286.40" arrivalSpeed="13.73" duration="237.00" routeLength="1479.94" waitingTime="108.00" waitingCount="3" stopTime="0.00" timeLoss="133.09" rerouteNo="0" devices="tripinfo_21" vType="DEFAULT_VEHTYPE" speedFactor="1.03" vaporized=""/>
    <tripinfo id="30" depart="154.00" departLane="top2C3_0" departPos="5.10" departSpeed="0.00" departDelay="0.00" arrival="368.00" arrivalLane="B0bottom1_0" arrivalPos="286.40" arrivalSpeed="13.55" duration="214.00" routeLength="1782.72" waitingTime="57.00" waitingCount="4" stopTime="0.00" timeLoss="89.11" rerouteNo="0" devices="tripinfo_30" vType="DEFAULT_VEHTYPE" speedFactor="1.04" vaporized=""/>
    <tripinfo id="37" depart="217.00" departLane="top1B3_0" departPos="5.10" departSpeed="0.00" departDelay="0.00" arrival="378.00" arrivalLane="B3top1_0" arrivalPos="286.40" arrivalSpeed="14.02" duration="161.00" routeLength="1748.75" waitingTime="10.00" waitingCount="3" stopTime="0.00" timeLoss="36.78" rerouteNo="0" devices="tripinfo_37" vType="DEFAULT_VEHTYPE" speedFactor="1.03" vaporized=""/>
    <tripinfo id="57" depart="299.00" departLane="right0D0_0" departPos="5.10" departSpeed="0.00" departDelay="0.00" arrival="382.00" arrivalLane="D0bottom3_0" arrivalPos="286.40" arrivalSpeed="11.80" duration="83.00" routeLength="597.55" waitingTime="24.00" waitingCount="1" stopTime="0.00" timeLoss="34.77" rerouteNo="0" devices="tripinfo_57" vType="DEFAULT_VEHTYPE" speedFactor="0.90" vaporized=""/>
    <tripinfo id="49" depart="274.00" departLane="top1B3_0" departPos="5.10" departSpeed="0.00" departDelay="0.00" arrival="388.00" arrivalLane="A2left2_0" arrivalPos="286.40" arrivalSpeed="13.96" duration="114.00" routeLength="1179.77" waitingTime="13.00" waitingCount="1" stopTime="0.00" timeLoss="33.61" rerouteNo="0" devices="tripinfo_49" vType="DEFAULT_VEHTYPE" speedFactor="1.07" vaporized=""/>
    <tripinfo id="46" depart="265.00" departLane="left3A3_0" departPos="5.10" departSpeed="0.00" departDelay="0.00" arrival="398.00" arrivalLane="A1left1_0" arrivalPos="286.40" arrivalSpeed="10.38" duration="133.00" routeLength="1161.43" waitingTime="3.00" waitingCount="3" stopTime="0.00" timeLoss="28.17" rerouteNo="0" devices="tripinfo_46" vType="DEFAULT_VEHTYPE" speedFactor="0.81" vaporized=""/>
    <tripinfo id="52" depart="285.00" departLane="right0D0_0" departPos="5.10" departSpeed="0.00" departDelay="0.00" arrival="417.00" arrivalLane="D3right3_0" arrivalPos="286.40" arrivalSpeed="14.71" duration="132.00" routeLength="1461.60" waitingTime="8.00" waitingCount="3" stopTime="0.00" timeLoss="32.41" rerouteNo="0" devices="tripinfo_52" vType="DEFAULT_VEHTYPE" speedFactor="1.07" vaporized=""/>
    <tripinfo id="41" depart="240.00" departLane="top1B3_0" departPos="5.10" departSpeed="0.00" departDelay="0.00" arrival="449.00" arrivalLane="D1right1_0" arrivalPos="286.40" arrivalSpeed="13.42" duration="209.00" routeLength="1795.52" waitingTime="54.00" waitingCount="2" stopTime="0.00" timeLoss="78.95" rerouteNo="0" devices="tripinfo_41" vType="DEFAULT_VEHTYPE" speedFactor="1.00" vaporized=""/>
    <tripinfo id="29" depart="150.00" departLane="top2C3_0" departPos="5.10" departSpeed="0.00" departDelay="0.00" arrival="462.00" arrivalLane="D0bottom3_0" arrivalPos="286.40" arrivalSpeed="11.10" duration="312.00" routeLength="1782.59" waitingTime="130.00" waitingCount="4" stopTime="0.00" timeLoss="165.84" rerouteNo="0" devices="tripinfo_29" vType="DEFAULT_VEHTYPE" speedFactor="0.89" vaporized=""/>
    <tripinfo id="33" depart="183.00" departLane="left1A1_0" departPos="5.10" departSpeed="0.00" departDelay="0.00" arrival="468.00" arrivalLane="D3top3_0" arrivalPos="286.40" arrivalSpeed="14.34" duration="285.00" routeLength="2095.69" waitingTime="108.00" waitingCount="4" stopTime="0.00" timeLoss="141.31" rerouteNo="0" devices="tripinfo_33" vType="DEFAULT_VEHTYPE" speedFactor="1.05" vaporized=""/>
    <tripinfo id="56" depart="299.00" departLane="bottom1B0_0" departPos="5.10" departSpeed="0.00" departDelay="0.00" arrival="471.00" arrivalLane="B3top1_0" arrivalPos="286.40" arrivalSpeed="12.24" duration="172.00" routeLength="1495.58" waitingTime="34.00" waitingCount="3" stopTime="0.00" timeLoss="58.21" rerouteNo="0" devices="tripinfo_56" vType="DEFAULT_VEHTYPE" speedFactor="0.95" vaporized=""/>
    <tripinfo id="58" depart="302.00" departLane="bottom1B0_0" departPos="5.10" departSpeed="0.00" departDelay="0.00" arrival="474.00" arrivalLane="B3top1_0" arrivalPos="286.40" arrivalSpeed="12.31" duration="172.00" routeLength="1495.58" waitingTime="28.00" waitingCount="2" stopTime="0.00" timeLoss="51.06" rerouteNo="0" devices="tripinfo_58" vType="DEFAULT_VEHTYPE" speedFactor="0.89" vaporized=""/>
    <tripinfo id="72" depart="370.00" departLane="top2C3_0" departPos="5.10" departSpeed="0.00" departDelay="0.00" arrival="486.00" arrivalLane="A3left3_0" arrivalPos="286.40" arrivalSpeed="14.98" duration="116.00" routeLength="1179.77" waitingTime="14.00" waitingCount="2" stopTime="0.00" timeLoss="39.04" rerouteNo="0" devices="tripinfo_72" vType="DEFAULT_VEHTYPE" speedFactor="1.11" vaporized=""/>
    <tripinfo id="18" depart="121.00" departLane="top2C3_0" departPos="5.10" departSpeed="0.00" departDelay="0.00" arrival="488.00" arrivalLane="D3top3_0" arrivalPos="286.40" arrivalSpeed="15.00" duration="367.00" routeLength="894.86" waitingTime="291.00" waitingCount="2" stopTime="0.00" timeLoss="307.27" rerouteNo="0" devices="tripinfo_18" vType="DEFAULT_VEHTYPE" speedFactor="1.11" vaporized=""/>
    <tripinfo id="38" depart="217.00" departLane="bottom2C0_0" departPos="5.10" departSpeed="0.00" departDelay="0.00" arrival="489.00" arrivalLane="A1left1_1" arrivalPos="286.40" arrivalSpeed="14.89" duration="272.00" routeLength="1495.35" waitingTime="134.00" waitingCount="4" stopTime="0.00" timeLoss="173.46" rerouteNo="0" devices="tripinfo_38" vType="DEFAULT_VEHTYPE" speedFactor="1.10" vaporized=""/>
    <tripinfo id="9" depart="35.00" departLane="left3A3_0" departPos="5.10" departSpeed="0.00" departDelay="0.00" arrival="492.00" arrivalLane="D3top3_0" arrivalPos="286.40" arrivalSpeed="13.01" duration="457.00" routeLength="1498.06" waitingTime="317.00" waitingCount="3" stopTime="0.00" timeLoss="344.36" rerouteNo="0" devices="tripinfo_9" vType="DEFAULT_VEHTYPE" speedFactor="0.96" vaporized=""/>
    <tripinfo id="36" depart="216.00" departLane="top3D3_0" departPos="5.10" departSpeed="0.00" departDelay="0.00" arrival="492.00" arrivalLane="A1left1_1" arrivalPos="286.40" arrivalSpeed="13.70" duration="276.00" routeLength="2080.28" waitingTime="93.00" waitingCount="4" stopTime="0.00" timeLoss="129.65" rerouteNo="0" devices="tripinfo_36" vType="DEFAULT_VEHTYPE" speedFactor="1.03" vaporized=""/>
    <tripinfo id="34" depart="198.00" departLane="bottom3D0_0" departPos="5.10" departSpeed="0.00" departDelay="0.00" arrival="493.00" arrivalLane="A1left1_0" arrivalPos="286.40" arrivalSpeed="11.41" duration="295.00" routeLength="1795.52" waitingTime="113.00" waitingCount="3" stopTime="0.00" timeLoss="141.58" rerouteNo="0" devices="tripinfo_34" vType="DEFAULT_VEHTYPE" speedFactor="0.85" vaporized=""/>
    <tripinfo id="75" depart="384.00" departLane="left2A2_0" departPos="5.10" departSpeed="0.00" departDelay="0.00" arrival="503.00" arrivalLane="A3left3_0" arrivalPos="286.40" arrivalSpeed="11.31" duration="119.00" routeLength="894.86" waitingTime="26.00" waitingCount="2" stopTime="0.00" timeLoss="42.95" rerouteNo="0" devices="tripinfo_75" vType="DEFAULT_VEHTYPE" speedFactor="0.86" vaporized=""/>
    <tripinfo id="20" depart="123.00" departLane="top0A3_0" departPos="5.10" departSpeed="0.00" departDelay="0.00" arrival="507.00" arrivalLane="D1right1_0" arrivalPos="286.40" arrivalSpeed="14.99" duration="384.00" routeLength="2095.69" waitingTime="223.00" waitingCount="3" stopTime="0.00" timeLoss="249.05" rerouteNo="0" devices="tripinfo_20" vType="DEFAULT_VEHTYPE" speedFactor="1.13" vaporized=""/>
    <tripinfo id="43" depart="248.00" departLane="right2D2_0" departPos="5.10" departSpeed="0.00" departDelay="0.00" arrival="509.00" arrivalLane="A0left0_0" arrivalPos="286.40" arrivalSpeed="12.58" duration="261.00" routeLength="2080.05" waitingTime="70.00" waitingCount="4" stopTime="0.00" timeLoss="107.45" rerouteNo="0" devices="tripinfo_43" vType="DEFAULT_VEHTYPE" speedFactor="0.98" vaporized=""/>
    <tripinfo id="13" depart="54.00" departLane="bottom0A0_0" departPos="5.10" departSpeed="0.00" departDelay="0.00" arrival="510.00" arrivalLane="A3top0_1" arrivalPos="286.40" arrivalSpeed="13.91" duration="456.00" routeLength="1495.58" waitingTime="326.00" waitingCount="2" stopTime="0.00" timeLoss="352.38" rerouteNo="0" devices="tripinfo_13" vType="DEFAULT_VEHTYPE" speedFactor="1.04" vaporized=""/>
    <tripinfo id="73" depart="370.00" departLane="bottom1B0_0" departPos="5.10" departSpeed="0.00" departDelay="0.00" arrival="510.00" arrivalLane="A0left0_1" arrivalPos="286.40" arrivalSpeed="14.43" duration="140.00" routeLength="895.01" waitingTime="58.00" waitingCount="2" stopTime="0.00" timeLoss="77.57" rerouteNo="0" devices="tripinfo_73" vType="DEFAULT_VEHTYPE" speedFactor="1.04" vaporized=""/>
    <tripinfo id="6" depart="34.00" departLane="bottom0A0_0" departPos="5.10" departSpeed="0.00" departDelay="0.00" arrival="512.00" arrivalLane="A3top0_0" arrivalPos="286.40" arrivalSpeed="11.24" duration="478.00" routeLength="1495.58" waitingTime="330.00" waitingCount="3" stopTime="0.00" timeLoss="354.32" rerouteNo="0" devices="tripinfo_6" vType="DEFAULT_VEHTYPE" speedFactor="0.87" vaporized=""/>
    <tripinfo id="16" depart="91.00" departLane="bottom2C0_0" departPos="5.10" departSpeed="0.00" departDelay="0.00" arrival="514.00" arrivalLane="A3top0_0" arrivalPos="286.40" arrivalSpeed="12.56" duration="423.00" routeLength="2080.05" waitingTime="230.00" waitingCount="4" stopTime="0.00" timeLoss="265.94" rerouteNo="0" devices="tripinfo_16" vType="DEFAULT_VEHTYPE" speedFactor="0.96" vaporized=""/>
    <tripinfo id="59" depart="305.00" departLane="left0A0_0" departPos="5.10" departSpeed="0.00" departDelay="0.00" arrival="519.00" arrivalLane="B3top1_1" arrivalPos="286.40" arrivalSpeed="13.71" duration="214.00" routeLength="1795.52" waitingTime="66.00" waitingCount="3" stopTime="0.00" timeLoss="93.39" rerouteNo="0" devices="tripinfo_59" vType="DEFAULT_VEHTYPE" speedFactor="1.08" vaporized=""/>
    <tripinfo id="40" depart="240.00" departLane="right2D2_0" departPos="5.10" departSpeed="0.00" departDelay="0.00" arrival="520.00" arrivalLane="B3top1_0" arrivalPos="286.40" arrivalSpeed="12.01" duration="280.00" routeLength="1479.94" waitingTime="138.00" waitingCount="2" stopTime="0.00" timeLoss="155.64" rerouteNo="0" devices="tripinfo_40" vType="DEFAULT_VEHTYPE" speedFactor="0.87" vaporized=""/>
    <tripinfo id="44" depart="253.00" departLane="top1B3_0" departPos="5.10" departSpeed="0.00" departDelay="0.00" arrival="520.00" arrivalLane="D3right3_1" arrivalPos="286.40" arrivalSpeed="13.81" duration="267.00" routeLength="1195.18" waitingTime="155.00" waitingCount="3" stopTime="0.00" timeLoss="186.59" rerouteNo="0" devices="tripinfo_44" vType="DEFAULT_VEHTYPE" speedFactor="1.08" vaporized=""/>
    <tripinfo id="86" depart="440.00" departLane="top1B3_0" departPos="5.10" departSpeed="0.00" departDelay="0.00" arrival="520.00" arrivalLane="A3top0_0" arrivalPos="286.40" arrivalSpeed="13.91" duration="80.00" routeLength="858.56" waitingTime="2.00" waitingCount="2" stopTime="0.00" timeLoss="18.76" rerouteNo="0" devices="tripinfo_86" vType="DEFAULT_VEHTYPE" speedFactor="1.03" vaporized=""/>
    <tripinfo id="15" depart="82.00" departLane="bottom0A0_0" departPos="5.10" departSpeed="0.00" departDelay="0.00" arrival="522.00" arrivalLane="D3right3_1" arrivalPos="286.40" arrivalSpeed="13.85" duration="440.00" routeLength="2380.45" waitingTime="222.00" waitingCount="6" stopTime="0.00" timeLoss="278.13" rerouteNo="0" devices="tripinfo_15" vType="DEFAULT_VEHTYPE" speedFactor="1.07" vaporized=""/>
    <tripinfo id="27" depart="147.00" departLane="left2A2_0" departPos="5.10" departSpeed="0.00" departDelay="0.00" arrival="522.00" arrivalLane="D3right3_0" arrivalPos="286.40" arrivalSpeed="11.39" duration="375.00" routeLength="1782.59" waitingTime="195.00" waitingCount="4" stopTime="0.00" timeLoss="227.75" rerouteNo="0" devices="tripinfo_27" vType="DEFAULT_VEHTYPE" speedFactor="0.88" vaporized=""/>
    <tripinfo id="28" depart="148.00" departLane="right2D2_0" departPos="5.10" departSpeed="0.00" departDelay="0.00" arrival="527.00" arrivalLane="A0bottom0_0" arrivalPos="286.40" arrivalSpeed="14.53" duration="379.00" routeLength="2095.69" waitingTime="192.00" waitingCount="6" stopTime="0.00" timeLoss="241.00" rerouteNo="0" devices="tripinfo_28" vType="DEFAULT_VEHTYPE" speedFactor="1.10" vaporized=""/>
    <tripinfo id="71" depart="363.00" departLane="left3A3_0" departPos="5.10" departSpeed="0.00" departDelay="0.00" arrival="535.00" arrivalLane="A0bottom0_0" arrivalPos="286.40" arrivalSpeed="10.68" duration="172.00" routeLength="1479.94" waitingTime="26.00" waitingCount="2" stopTime="0.00" timeLoss="46.67" rerouteNo="0" devices="tripinfo_71" vType="DEFAULT_VEHTYPE" speedFactor="0.86" vaporized=""/>
    <tripinfo id="50" depart="276.00" departLane="left3A3_0" departPos="5.10" departSpeed="0.00" departDelay="0.00" arrival="537.00" arrivalLane="C0bottom2_0" arrivalPos="286.40" arrivalSpeed="14.30" duration="261.00" routeLength="2080.28" waitingTime="78.00" waitingCount="3" stopTime="0.00" timeLoss="118.73" rerouteNo="0" devices="tripinfo_50" vType="DEFAULT_VEHTYPE" speedFactor="1.06" vaporized=""/>
    <tripinfo id="22" depart="133.00" departLane="right1D1_0" departPos="5.10" departSpeed="0.00" departDelay="0.00" arrival="540.00" arrivalLane="A3top0_0" arrivalPos="286.40" arrivalSpeed="12.74" duration="407.00" routeLength="2080.28" waitingTime="204.00" waitingCount="6" stopTime="0.00" timeLoss="254.04" rerouteNo="0" devices="tripinfo_22" vType="DEFAULT_VEHTYPE" speedFactor="0.99" vaporized=""/>
    <tripinfo id="88" depart="449.00" departLane="left2A2_0" departPos="5.10" departSpeed="0.00" departDelay="0.00" arrival="542.00" arrivalLane="A3left3_0" arrivalPos="286.40" arrivalSpeed="11.41" duration="93.00" routeLength="894.86" waitingTime="4.00" waitingCount="1" stopTime="0.00" timeLoss="18.19" rerouteNo="0" devices="tripinfo_88" vType="DEFAULT_VEHTYPE" speedFactor="0.88" vaporized=""/>
    <tripinfo id="68" depart="350.00" departLane="bottom0A0_0" departPos="5.10" departSpeed="0.00" departDelay="0.00" arrival="551.00" arrivalLane="A3top0_0" arrivalPos="286.40" arrivalSpeed="13.43" duration="201.00" routeLength="1495.58" waitingTime="72.00" waitingCount="3" stopTime="0.00" timeLoss="96.24" rerouteNo="0" devices="tripinfo_68" vType="DEFAULT_VEHTYPE" speedFactor="1.04" vaporized=""/>
    <tripinfo id="47" depart="267.00" departLane="bottom0A0_0" departPos="5.10" departSpeed="0.00" departDelay="0.00" arrival="562.00" arrivalLane="A2left2_0" arrivalPos="286.40" arrivalSpeed="12.34" duration="295.00" routeLength="1197.89" waitingTime="186.00" waitingCount="1" stopTime="0.00" timeLoss="199.07" rerouteNo="0" devices="tripinfo_47" vType="DEFAULT_VEHTYPE" speedFactor="0.91" vaporized=""/>
    <tripinfo id="98" depart="473.00" departLane="bottom1B0_0" departPos="5.10" departSpeed="0.00" departDelay="0.00" arrival="562.00" arrivalLane="C0bottom2_0" arrivalPos="286.40" arrivalSpeed="11.12" duration="89.00" routeLength="858.56" waitingTime="1.00" waitingCount="1" stopTime="0.00" timeLoss="16.13" rerouteNo="0" devices="tripinfo_98" vType="DEFAULT_VEHTYPE" speedFactor="0.87" vaporized=""/>
    <tripinfo id="100" depart="476.00" departLane="left1A1_0" departPos="5.10" departSpeed="0.00" departDelay="0.00" arrival="562.00" arrivalLane="A0left0_0" arrivalPos="286.40" arrivalSpeed="11.96" duration="86.00" routeLength="858.56" waitingTime="2.00" waitingCount="2" stopTime="0.00" timeLoss="18.99" rerouteNo="0" devices="tripinfo_100" vType="DEFAULT_VEHTYPE" speedFactor="0.94" vaporized=""/>
    <tripinfo id="82" depart="423.00" departLane="bottom3D0_0" departPos="5.10" departSpeed="0.00" departDelay="0.00" arrival="568.00" arrivalLane="D2right2_0" arrivalPos="286.40" arrivalSpeed="12.94" duration="145.00" routeLength="1177.07" waitingTime="34.00" waitingCount="2" stopTime="0.00" timeLoss="53.25" rerouteNo="0" devices="tripinfo_82" vType="DEFAULT_VEHTYPE" speedFactor="0.94" vaporized=""/>
    <tripinfo id="79" depart="415.00" departLane="top3D3_0" departPos="5.10" departSpeed="0.00" departDelay="0.00" arrival="587.00" arrivalLane="D3top3_0" arrivalPos="286.40" arrivalSpeed="15.05" duration="172.00" routeLength="1748.75" waitingTime="24.00" waitingCount="4" stopTime="0.00" timeLoss="57.58" rerouteNo="0" devices="tripinfo_79" vType="DEFAULT_VEHTYPE" speedFactor="1.12" vaporized=""/>
    <tripinfo id="35" depart="209.00" departLane="top3D3_0" departPos="5.10" departSpeed="0.00" departDelay="0.00" arrival="588.00" arrivalLane="A2left2_0" arrivalPos="286.40" arrivalSpeed="14.32" duration="379.00" routeLength="1780.11" waitingTime="225.00" waitingCount="4" stopTime="0.00" timeLoss="258.22" rerouteNo="0" devices="tripinfo_35" vType="DEFAULT_VEHTYPE" speedFactor="1.07" vaporized=""/>
    <tripinfo id="42" depart="246.00" departLane="top0A3_0" departPos="5.10" departSpeed="0.00" departDelay="0.00" arrival="588.00" arrivalLane="B0bottom1_0" arrivalPos="286.40" arrivalSpeed="14.28" duration="342.00" routeLength="1782.59" waitingTime="182.00" waitingCount="5" stopTime="0.00" timeLoss="219.50" rerouteNo="0" devices="tripinfo_42" vType="DEFAULT_VEHTYPE" speedFactor="1.06" vaporized=""/>
    <tripinfo id="89" depart="449.00" departLane="right0D0_0" departPos="5.10" departSpeed="0.00" departDelay="0.00" arrival="588.00" arrivalLane="D3right3_0" arrivalPos="286.40" arrivalSpeed="12.91" duration="139.00" routeLength="1461.60" waitingTime="10.00" waitingCount="3" stopTime="0.00" timeLoss="34.72" rerouteNo="0" devices="tripinfo_89" vType="DEFAULT_VEHTYPE" speedFactor="1.02" vaporized=""/>
    <tripinfo id="51" depart="279.00" departLane="bottom3D0_0" departPos="5.10" departSpeed="0.00" departDelay="0.00" arrival="592.00" arrivalLane="A2left2_0" arrivalPos="286.40" arrivalSpeed="12.37" duration="313.00" routeLength="2095.69" waitingTime="118.00" waitingCount="4" stopTime="0.00" timeLoss="153.16" rerouteNo="0" devices="tripinfo_51" vType="DEFAULT_VEHTYPE" speedFactor="0.95" vaporized=""/>
    <tripinfo id="78" depart="409.00" departLane="left0A0_0" departPos="5.10" departSpeed="0.00" departDelay="0.00" arrival="592.00" arrivalLane="C0bottom2_0" arrivalPos="286.40" arrivalSpeed="12.53" duration="183.00" routeLength="1177.07" waitingTime="76.00" waitingCount="2" stopTime="0.00" timeLoss="96.58" rerouteNo="0" devices="tripinfo_78" vType="DEFAULT_VEHTYPE" speedFactor="0.99" vaporized=""/>
    <tripinfo id="61" depart="307.00" departLane="right0D0_0" departPos="5.10" departSpeed="0.00" departDelay="0.00" arrival="594.00" arrivalLane="C3top2_0" arrivalPos="286.40" arrivalSpeed="10.37" duration="287.00" routeLength="1780.11" waitingTime="96.00" waitingCount="4" stopTime="0.00" timeLoss="127.15" rerouteNo="0" devices="tripinfo_61" vType="DEFAULT_VEHTYPE" speedFactor="0.81" vaporized=""/>
    <tripinfo id="93" depart="466.00" departLane="top3D3_0" departPos="5.10" departSpeed="0.00" departDelay="0.00" arrival="612.00" arrivalLane="D2right2_1" arrivalPos="286.40" arrivalSpeed="13.93" duration="146.00" routeLength="897.72" waitingTime="68.00" waitingCount="1" stopTime="0.00" timeLoss="81.07" rerouteNo="0" devices="tripinfo_93" vType="DEFAULT_VEHTYPE" speedFactor="1.01" vaporized=""/>
    <tripinfo id="87" depart="446.00" departLane="right3D3_0" departPos="5.10" departSpeed="0.00" departDelay="0.00" arrival="614.00" arrivalLane="D2right2_0" arrivalPos="286.40" arrivalSpeed="10.97" duration="168.00" routeLength="894.86" waitingTime="77.00" waitingCount="1" stopTime="0.00" timeLoss="90.50" rerouteNo="0" devices="tripinfo_87" vType="DEFAULT_VEHTYPE" speedFactor="0.85" vaporized=""/>
    <tripinfo id="67" depart="341.00" departLane="right1D1_0" departPos="5.10" departSpeed="0.00" departDelay="0.00" arrival="618.00" arrivalLane="A3left3_0" arrivalPos="286.40" arrivalSpeed="14.32" duration="277.00" routeLength="2082.76" waitingTime="93.00" waitingCount="5" stopTime="0.00" timeLoss="137.07" rerouteNo="0" devices="tripinfo_67" vType="DEFAULT_VEHTYPE" speedFactor="1.08" vaporized=""/>