<?xml version="1.0" encoding="UTF-8"?>

<!-- generated on 2023-08-30 13:24:20 by Eclipse SUMO libsumo Version 1.18.0
<configuration xmlns:xsi="http://www.w3.org/2001/XMLSchema-instance" xsi:noNamespaceSchemaLocation="http://sumo.dlr.de/xsd/libsumoConfiguration.xsd">

    <input>
        <net-file value="/home/stefan/RESCO/./environments/grid4x4/grid4x4.net.xml"/>
        <route-files value="/home/stefan/RESCO/./environments/grid4x4/grid4x4_47.rou.xml"/>
    </input>

    <output>
        <tripinfo-output value="/home/stefan/results/RAINBOW-tr0-grid4x4-0-drq_norm-wait_norm/tripinfo_47.xml"/>
        <tripinfo-output.write-unfinished value="true"/>
    </output>

    <processing>
        <time-to-teleport value="-1"/>
    </processing>

    <report>
        <no-warnings value="True"/>
        <no-step-log value="True"/>
    </report>

    <random_number>
        <random value="true"/>
    </random_number>

</configuration>
-->

<tripinfos xmlns:xsi="http://www.w3.org/2001/XMLSchema-instance" xsi:noNamespaceSchemaLocation="http://sumo.dlr.de/xsd/tripinfo_file.xsd">
    <tripinfo id="3" depart="10.00" departLane="bottom1B0_0" departPos="5.10" departSpeed="0.00" departDelay="0.00" arrival="119.00" arrivalLane="A1left1_0" arrivalPos="286.40" arrivalSpeed="12.98" duration="109.00" routeLength="1195.18" waitingTime="5.00" waitingCount="1" stopTime="0.00" timeLoss="17.21" rerouteNo="0" devices="tripinfo_3" vType="DEFAULT_VEHTYPE" speedFactor="0.95" vaporized=""/>
    <tripinfo id="8" depart="41.00" departLane="left1A1_0" departPos="5.10" departSpeed="0.00" departDelay="0.00" arrival="132.00" arrivalLane="A0left0_0" arrivalPos="286.40" arrivalSpeed="10.25" duration="91.00" routeLength="858.56" waitingTime="1.00" waitingCount="1" stopTime="0.00" timeLoss="13.28" rerouteNo="0" devices="tripinfo_8" vType="DEFAULT_VEHTYPE" speedFactor="0.82" vaporized=""/>
    <tripinfo id="16" depart="88.00" departLane="bottom1B0_0" departPos="5.10" departSpeed="0.00" departDelay="0.00" arrival="159.00" arrivalLane="C0bottom2_0" arrivalPos="286.40" arrivalSpeed="14.13" duration="71.00" routeLength="858.56" waitingTime="0.00" waitingCount="0" stopTime="0.00" timeLoss="9.94" rerouteNo="0" devices="tripinfo_16" vType="DEFAULT_VEHTYPE" speedFactor="1.04" vaporized=""/>
    <tripinfo id="5" depart="18.00" departLane="top2C3_0" departPos="5.10" departSpeed="0.00" departDelay="0.00" arrival="170.00" arrivalLane="D0bottom3_0" arrivalPos="286.40" arrivalSpeed="12.92" duration="152.00" routeLength="1782.59" waitingTime="1.00" waitingCount="1" stopTime="0.00" timeLoss="15.95" rerouteNo="0" devices="tripinfo_5" vType="DEFAULT_VEHTYPE" speedFactor="0.96" vaporized=""/>
    <tripinfo id="21" depart="106.00" departLane="top2C3_0" departPos="5.10" departSpeed="0.00" departDelay="0.00" arrival="210.00" arrivalLane="D2right2_0" arrivalPos="286.40" arrivalSpeed="13.96" duration="104.00" routeLength="1195.18" waitingTime="4.00" waitingCount="2" stopTime="0.00" timeLoss="19.46" rerouteNo="0" devices="tripinfo_21" vType="DEFAULT_VEHTYPE" speedFactor="1.03" vaporized=""/>
    <tripinfo id="25" depart="137.00" departLane="bottom1B0_0" departPos="5.10" departSpeed="0.00" departDelay="0.00" arrival="216.00" arrivalLane="C0bottom2_0" arrivalPos="286.40" arrivalSpeed="12.71" duration="79.00" routeLength="858.56" waitingTime="1.00" waitingCount="1" stopTime="0.00" timeLoss="13.58" rerouteNo="0" devices="tripinfo_25" vType="DEFAULT_VEHTYPE" speedFactor="0.96" vaporized=""/>
    <tripinfo id="4" depart="12.00" departLane="bottom3D0_0" departPos="5.10" departSpeed="0.00" departDelay="0.00" arrival="249.00" arrivalLane="A0bottom0_0" arrivalPos="286.40" arrivalSpeed="12.97" duration="237.00" routeLength="1497.83" waitingTime="105.00" waitingCount="2" stopTime="0.00" timeLoss="130.37" rerouteNo="0" devices="tripinfo_4" vType="DEFAULT_VEHTYPE" speedFactor="1.03" vaporized=""/>
    <tripinfo id="9" depart="49.00" departLane="bottom2C0_0" departPos="5.10" departSpeed="0.00" departDelay="0.00" arrival="258.00" arrivalLane="C0bottom2_0" arrivalPos="286.40" arrivalSpeed="14.46" duration="209.00" routeLength="1748.75" waitingTime="62.00" waitingCount="3" stopTime="0.00" timeLoss="90.36" rerouteNo="0" devices="tripinfo_9" vType="DEFAULT_VEHTYPE" speedFactor="1.08" vaporized=""/>
    <tripinfo id="31" depart="174.00" departLane="right2D2_0" departPos="5.10" departSpeed="0.00" departDelay="0.00" arrival="267.00" arrivalLane="D0bottom3_0" arrivalPos="286.40" arrivalSpeed="14.28" duration="93.00" routeLength="1195.18" waitingTime="0.00" waitingCount="0" stopTime="0.00" timeLoss="9.38" rerouteNo="0" devices="tripinfo_31" vType="DEFAULT_VEHTYPE" speedFactor="1.05" vaporized=""/>
    <tripinfo id="36" depart="187.00" departLane="top0A3_0" departPos="5.10" departSpeed="0.00" departDelay="0.00" arrival="272.00" arrivalLane="B3top1_0" arrivalPos="286.40" arrivalSpeed="10.92" duration="85.00" routeLength="894.86" waitingTime="0.00" waitingCount="0" stopTime="0.00" timeLoss="9.34" rerouteNo="0" devices="tripinfo_36" vType="DEFAULT_VEHTYPE" speedFactor="0.87" vaporized=""/>
    <tripinfo id="41" depart="204.00" departLane="top1B3_0" departPos="5.10" departSpeed="0.00" departDelay="0.00" arrival="286.00" arrivalLane="A3top0_0" arrivalPos="286.40" arrivalSpeed="13.19" duration="82.00" routeLength="858.56" waitingTime="2.00" waitingCount="2" stopTime="0.00" timeLoss="17.31" rerouteNo="0" devices="tripinfo_41" vType="DEFAULT_VEHTYPE" speedFactor="0.97" vaporized=""/>
    <tripinfo id="11" depart="53.00" departLane="bottom1B0_0" departPos="5.10" departSpeed="0.00" departDelay="0.00" arrival="299.00" arrivalLane="B3top1_0" arrivalPos="286.40" arrivalSpeed="13.14" duration="246.00" routeLength="1495.58" waitingTime="109.00" waitingCount="4" stopTime="0.00" timeLoss="136.52" rerouteNo="0" devices="tripinfo_11" vType="DEFAULT_VEHTYPE" speedFactor="0.98" vaporized=""/>
    <tripinfo id="33" depart="180.00" departLane="left1A1_0" departPos="5.10" departSpeed="0.00" departDelay="0.00" arrival="345.00" arrivalLane="D0right0_0" arrivalPos="286.40" arrivalSpeed="13.00" duration="165.00" routeLength="1782.72" waitingTime="6.00" waitingCount="2" stopTime="0.00" timeLoss="26.43" rerouteNo="0" devices="tripinfo_33" vType="DEFAULT_VEHTYPE" speedFactor="0.94" vaporized=""/>
    <tripinfo id="26" depart="160.00" departLane="left0A0_0" departPos="5.10" departSpeed="0.00" departDelay="0.00" arrival="350.00" arrivalLane="A3left3_0" arrivalPos="286.40" arrivalSpeed="14.61" duration="190.00" routeLength="1497.83" waitingTime="60.00" waitingCount="2" stopTime="0.00" timeLoss="88.88" rerouteNo="0" devices="tripinfo_26" vType="DEFAULT_VEHTYPE" speedFactor="1.09" vaporized=""/>
    <tripinfo id="32" depart="175.00" departLane="left0A0_0" departPos="5.10" departSpeed="0.00" departDelay="0.00" arrival="357.00" arrivalLane="A0left0_0" arrivalPos="286.40" arrivalSpeed="13.95" duration="182.00" routeLength="1745.91" waitingTime="26.00" waitingCount="4" stopTime="0.00" timeLoss="63.21" rerouteNo="0" devices="tripinfo_32" vType="DEFAULT_VEHTYPE" speedFactor="1.08" vaporized=""/>
    <tripinfo id="14" depart="71.00" departLane="right2D2_0" departPos="5.10" departSpeed="0.00" departDelay="0.00" arrival="359.00" arrivalLane="A1left1_0" arrivalPos="286.40" arrivalSpeed="12.99" duration="288.00" routeLength="1782.59" waitingTime="126.00" waitingCount="4" stopTime="0.00" timeLoss="159.70" rerouteNo="0" devices="tripinfo_14" vType="DEFAULT_VEHTYPE" speedFactor="1.01" vaporized=""/>
    <tripinfo id="1" depart="7.00" departLane="right0D0_0" departPos="5.10" departSpeed="0.00" departDelay="0.00" arrival="362.00" arrivalLane="A1left1_0" arrivalPos="286.40" arrivalSpeed="13.65" duration="355.00" routeLength="1782.72" waitingTime="186.00" waitingCount="5" stopTime="0.00" timeLoss="222.96" rerouteNo="0" devices="tripinfo_1" vType="DEFAULT_VEHTYPE" speedFactor="0.99" vaporized=""/>
    <tripinfo id="18" depart="101.00" departLane="left1A1_0" departPos="5.10" departSpeed="0.00" departDelay="0.00" arrival="363.00" arrivalLane="A3left3_0" arrivalPos="286.40" arrivalSpeed="16.82" duration="262.00" routeLength="1197.66" waitingTime="178.00" waitingCount="1" stopTime="0.00" timeLoss="190.45" rerouteNo="0" devices="tripinfo_18" vType="DEFAULT_VEHTYPE" speedFactor="1.22" vaporized=""/>
    <tripinfo id="24" depart="136.00" departLane="left0A0_0" departPos="5.10" departSpeed="0.00" departDelay="0.00" arrival="373.00" arrivalLane="A3top0_0" arrivalPos="286.40" arrivalSpeed="11.56" duration="237.00" routeLength="1495.35" waitingTime="84.00" waitingCount="3" stopTime="0.00" timeLoss="108.38" rerouteNo="0" devices="tripinfo_24" vType="DEFAULT_VEHTYPE" speedFactor="0.85" vaporized=""/>
    <tripinfo id="48" depart="277.00" departLane="left3A3_0" departPos="5.10" departSpeed="0.00" departDelay="0.00" arrival="385.00" arrivalLane="B3top1_0" arrivalPos="286.40" arrivalSpeed="12.36" duration="108.00" routeLength="897.72" waitingTime="27.00" waitingCount="1" stopTime="0.00" timeLoss="39.57" rerouteNo="0" devices="tripinfo_48" vType="DEFAULT_VEHTYPE" speedFactor="0.95" vaporized=""/>
    <tripinfo id="54" depart="309.00" departLane="left1A1_0" departPos="5.10" departSpeed="0.00" departDelay="0.00" arrival="387.00" arrivalLane="A0left0_0" arrivalPos="286.40" arrivalSpeed="13.27" duration="78.00" routeLength="858.56" waitingTime="2.00" waitingCount="2" stopTime="0.00" timeLoss="16.78" rerouteNo="0" devices="tripinfo_54" vType="DEFAULT_VEHTYPE" speedFactor="1.03" vaporized=""/>
    <tripinfo id="42" depart="214.00" departLane="left0A0_0" departPos="5.10" departSpeed="0.00" departDelay="0.00" arrival="388.00" arrivalLane="D0bottom3_0" arrivalPos="286.40" arrivalSpeed="14.19" duration="174.00" routeLength="1477.24" waitingTime="44.00" waitingCount="3" stopTime="0.00" timeLoss="70.31" rerouteNo="0" devices="tripinfo_42" vType="DEFAULT_VEHTYPE" speedFactor="1.04" vaporized=""/>
    <tripinfo id="17" depart="94.00" departLane="top3D3_0" departPos="5.10" departSpeed="0.00" departDelay="0.00" arrival="390.00" arrivalLane="A0bottom0_0" arrivalPos="286.40" arrivalSpeed="12.78" duration="296.00" routeLength="2382.93" waitingTime="90.00" waitingCount="2" stopTime="0.00" timeLoss="112.78" rerouteNo="0" devices="tripinfo_17" vType="DEFAULT_VEHTYPE" speedFactor="0.94" vaporized=""/>
    <tripinfo id="39" depart="202.00" departLane="left0A0_0" departPos="5.10" departSpeed="0.00" departDelay="0.00" arrival="398.00" arrivalLane="D0right0_0" arrivalPos="286.40" arrivalSpeed="14.02" duration="196.00" routeLength="1495.58" waitingTime="65.00" waitingCount="3" stopTime="0.00" timeLoss="90.37" rerouteNo="0" devices="tripinfo_39" vType="DEFAULT_VEHTYPE" speedFactor="1.02" vaporized=""/>
    <tripinfo id="51" depart="302.00" departLane="left3A3_0" departPos="5.10" departSpeed="0.00" departDelay="0.00" arrival="401.00" arrivalLane="A1left1_0" arrivalPos="286.40" arrivalSpeed="14.96" duration="99.00" routeLength="1161.43" waitingTime="2.00" waitingCount="2" stopTime="0.00" timeLoss="19.66" rerouteNo="0" devices="tripinfo_51" vType="DEFAULT_VEHTYPE" speedFactor="1.08" vaporized=""/>
    <tripinfo id="10" depart="52.00" departLane="left2A2_0" departPos="5.10" departSpeed="0.00" departDelay="0.00" arrival="408.00" arrivalLane="D3right3_0" arrivalPos="286.40" arrivalSpeed="14.16" duration="356.00" routeLength="1782.59" waitingTime="202.00" waitingCount="4" stopTime="0.00" timeLoss="232.51" rerouteNo="0" devices="tripinfo_10" vType="DEFAULT_VEHTYPE" speedFactor="1.05" vaporized=""/>
    <tripinfo id="15" depart="84.00" departLane="bottom2C0_0" departPos="5.10" departSpeed="0.00" departDelay="0.00" arrival="408.00" arrivalLane="D3right3_1" arrivalPos="286.40" arrivalSpeed="16.17" duration="324.00" routeLength="1780.11" waitingTime="186.00" waitingCount="4" stopTime="0.00" timeLoss="218.47" rerouteNo="0" devices="tripinfo_15" vType="DEFAULT_VEHTYPE" speedFactor="1.22" vaporized=""/>
    <tripinfo id="44" depart="262.00" departLane="right0D0_0" departPos="5.10" departSpeed="0.00" departDelay="0.00" arrival="427.00" arrivalLane="D3top3_0" arrivalPos="286.40" arrivalSpeed="15.36" duration="165.00" routeLength="1479.94" waitingTime="40.00" waitingCount="3" stopTime="0.00" timeLoss="68.80" rerouteNo="0" devices="tripinfo_44" vType="DEFAULT_VEHTYPE" speedFactor="1.12" vaporized=""/>
    <tripinfo id="6" depart="19.00" departLane="left1A1_0" departPos="5.10" departSpeed="0.00" departDelay="0.00" arrival="428.00" arrivalLane="D1right1_0" arrivalPos="286.40" arrivalSpeed="14.32" duration="409.00" routeLength="1495.58" waitingTime="286.00" waitingCount="3" stopTime="0.00" timeLoss="309.29" rerouteNo="0" devices="tripinfo_6" vType="DEFAULT_VEHTYPE" speedFactor="1.08" vaporized=""/>
    <tripinfo id="47" depart="277.00" departLane="left2A2_0" departPos="5.10" departSpeed="0.00" departDelay="0.00" arrival="432.00" arrivalLane="D1right1_0" arrivalPos="286.40" arrivalSpeed="14.23" duration="155.00" routeLength="1782.72" waitingTime="12.00" waitingCount="2" stopTime="0.00" timeLoss="31.95" rerouteNo="0" devices="tripinfo_47" vType="DEFAULT_VEHTYPE" speedFactor="1.06" vaporized=""/>
    <tripinfo id="0" depart="3.00" departLane="top1B3_0" departPos="5.10" departSpeed="0.00" departDelay="0.00" arrival="458.00" arrivalLane="D0right0_0" arrivalPos="286.40" arrivalSpeed="13.37" duration="455.00" routeLength="2095.69" waitingTime="273.00" waitingCount="5" stopTime="0.00" timeLoss="309.36" rerouteNo="0" devices="tripinfo_0" vType="DEFAULT_VEHTYPE" speedFactor="1.04" vaporized=""/>
    <tripinfo id="23" depart="129.00" departLane="bottom2C0_0" departPos="5.10" departSpeed="0.00" departDelay="0.00" arrival="461.00" arrivalLane="A3left3_0" arrivalPos="286.40" arrivalSpeed="11.84" duration="332.00" routeLength="2095.69" waitingTime="135.00" waitingCount="4" stopTime="0.00" timeLoss="167.30" rerouteNo="0" devices="tripinfo_23" vType="DEFAULT_VEHTYPE" speedFactor="0.92" vaporized=""/>
    <tripinfo id="20" depart="105.00" departLane="bottom2C0_0" departPos="5.10" departSpeed="0.00" departDelay="0.00" arrival="465.00" arrivalLane="C0bottom2_0" arrivalPos="286.40" arrivalSpeed="11.17" duration="360.00" routeLength="1748.75" waitingTime="168.00" waitingCount="5" stopTime="0.00" timeLoss="200.84" rerouteNo="0" devices="tripinfo_20" vType="DEFAULT_VEHTYPE" speedFactor="0.81" vaporized=""/>
    <tripinfo id="12" depart="59.00" departLane="bottom3D0_0" departPos="5.10" departSpeed="0.00" departDelay="0.00" arrival="468.00" arrivalLane="A2left2_0" arrivalPos="286.40" arrivalSpeed="14.14" duration="409.00" routeLength="2095.69" waitingTime="223.00" waitingCount="5" stopTime="0.00" timeLoss="260.76" rerouteNo="0" devices="tripinfo_12" vType="DEFAULT_VEHTYPE" speedFactor="1.02" vaporized=""/>
    <tripinfo id="30" depart="171.00" departLane="bottom3D0_0" departPos="5.10" departSpeed="0.00" departDelay="0.00" arrival="477.00" arrivalLane="A2left2_0" arrivalPos="286.40" arrivalSpeed="11.00" duration="306.00" routeLength="2095.69" waitingTime="83.00" waitingCount="3" stopTime="0.00" timeLoss="115.26" rerouteNo="0" devices="tripinfo_30" vType="DEFAULT_VEHTYPE" speedFactor="0.80" vaporized=""/>
    <tripinfo id="64" depart="349.00" departLane="top1B3_0" departPos="5.10" departSpeed="0.00" departDelay="0.00" arrival="483.00" arrivalLane="C3top2_0" arrivalPos="286.40" arrivalSpeed="10.83" duration="134.00" routeLength="894.86" waitingTime="40.00" waitingCount="2" stopTime="0.00" timeLoss="58.26" rerouteNo="0" devices="tripinfo_64" vType="DEFAULT_VEHTYPE" speedFactor="0.86" vaporized=""/>
    <tripinfo id="22" depart="122.00" departLane="right0D0_0" departPos="5.10" departSpeed="0.00" departDelay="0.00" arrival="491.00" arrivalLane="A1left1_0" arrivalPos="286.40" arrivalSpeed="12.28" duration="369.00" routeLength="1782.72" waitingTime="198.00" waitingCount="5" stopTime="0.00" timeLoss="232.95" rerouteNo="0" devices="tripinfo_22" vType="DEFAULT_VEHTYPE" speedFactor="0.95" vaporized=""/>
    <tripinfo id="34" depart="182.00" departLane="right1D1_0" departPos="5.10" departSpeed="0.00" departDelay="0.00" arrival="491.00" arrivalLane="B0bottom1_0" arrivalPos="286.40" arrivalSpeed="12.47" duration="309.00" routeLength="1495.35" waitingTime="162.00" waitingCount="4" stopTime="0.00" timeLoss="189.34" rerouteNo="0" devices="tripinfo_34" vType="DEFAULT_VEHTYPE" speedFactor="0.91" vaporized=""/>
    <tripinfo id="80" depart="422.00" departLane="right0D0_0" departPos="5.10" departSpeed="0.00" departDelay="0.00" arrival="495.00" arrivalLane="D1right1_0" arrivalPos="286.40" arrivalSpeed="15.11" duration="73.00" routeLength="858.56" waitingTime="2.00" waitingCount="2" stopTime="0.00" timeLoss="17.51" rerouteNo="0" devices="tripinfo_80" vType="DEFAULT_VEHTYPE" speedFactor="1.14" vaporized=""/>
    <tripinfo id="19" depart="102.00" departLane="right1D1_0" departPos="5.10" departSpeed="0.00" departDelay="0.00" arrival="509.00" arrivalLane="A0left0_0" arrivalPos="286.40" arrivalSpeed="12.63" duration="407.00" routeLength="1782.59" waitingTime="243.00" waitingCount="5" stopTime="0.00" timeLoss="274.89" rerouteNo="0" devices="tripinfo_19" vType="DEFAULT_VEHTYPE" speedFactor="0.98" vaporized=""/>
    <tripinfo id="90" depart="437.00" departLane="right0D0_0" departPos="5.10" departSpeed="0.00" departDelay="0.00" arrival="518.00" arrivalLane="D1right1_0" arrivalPos="286.40" arrivalSpeed="13.82" duration="81.00" routeLength="858.56" waitingTime="1.00" waitingCount="1" stopTime="0.00" timeLoss="17.58" rerouteNo="0" devices="tripinfo_90" vType="DEFAULT_VEHTYPE" speedFactor="1.00" vaporized=""/>
    <tripinfo id="27" depart="163.00" departLane="top3D3_0" departPos="5.10" departSpeed="0.00" departDelay="0.00" arrival="522.00" arrivalLane="D0right0_0" arrivalPos="286.40" arrivalSpeed="13.66" duration="359.00" routeLength="1498.06" waitingTime="233.00" waitingCount="2" stopTime="0.00" timeLoss="251.29" rerouteNo="0" devices="tripinfo_27" vType="DEFAULT_VEHTYPE" speedFactor="1.01" vaporized=""/>
    <tripinfo id="89" depart="432.00" departLane="right1D1_0" departPos="5.10" departSpeed="0.00" departDelay="0.00" arrival="530.00" arrivalLane="D3right3_0" arrivalPos="286.40" arrivalSpeed="13.72" duration="98.00" routeLength="1161.43" waitingTime="3.00" waitingCount="1" stopTime="0.00" timeLoss="19.08" rerouteNo="0" devices="tripinfo_89" vType="DEFAULT_VEHTYPE" speedFactor="1.08" vaporized=""/>
    <tripinfo id="37" depart="188.00" departLane="right3D3_0" departPos="5.10" departSpeed="0.00" departDelay="0.00" arrival="538.00" arrivalLane="A0left0_0" arrivalPos="286.40" arrivalSpeed="13.22" duration="350.00" routeLength="2380.22" waitingTime="140.00" waitingCount="6" stopTime="0.00" timeLoss="182.73" rerouteNo="0" devices="tripinfo_37" vType="DEFAULT_VEHTYPE" speedFactor="1.03" vaporized=""/>
    <tripinfo id="83" depart="424.00" departLane="bottom2C0_0" departPos="5.10" departSpeed="0.00" departDelay="0.00" arrival="540.00" arrivalLane="A0bottom0_0" arrivalPos="286.40" arrivalSpeed="13.70" duration="116.00" routeLength="1197.66" waitingTime="10.00" waitingCount="1" stopTime="0.00" timeLoss="27.71" rerouteNo="0" devices="tripinfo_83" vType="DEFAULT_VEHTYPE" speedFactor="1.00" vaporized=""/>
    <tripinfo id="72" depart="376.00" departLane="top3D3_0" departPos="5.10" departSpeed="0.00" departDelay="0.00" arrival="543.00" arrivalLane="A3top0_0" arrivalPos="286.40" arrivalSpeed="13.96" duration="167.00" routeLength="1461.60" waitingTime="43.00" waitingCount="2" stopTime="0.00" timeLoss="65.96" rerouteNo="0" devices="tripinfo_72" vType="DEFAULT_VEHTYPE" speedFactor="1.05" vaporized=""/>
    <tripinfo id="97" depart="485.00" departLane="top0A3_0" departPos="5.10" departSpeed="0.00" departDelay="0.00" arrival="546.00" arrivalLane="A2left2_0" arrivalPos="286.40" arrivalSpeed="15.82" duration="61.00" routeLength="876.90" waitingTime="0.00" waitingCount="0" stopTime="0.00" timeLoss="7.75" rerouteNo="0" devices="tripinfo_97" vType="DEFAULT_VEHTYPE" speedFactor="1.20" vaporized=""/>
    <tripinfo id="46" depart="276.00" departLane="right3D3_0" departPos="5.10" departSpeed="0.00" departDelay="0.00" arrival="556.00" arrivalLane="D3right3_0" arrivalPos="286.40" arrivalSpeed="15.06" duration="280.00" routeLength="1745.91" waitingTime="135.00" waitingCount="5" stopTime="0.00" timeLoss="169.76" rerouteNo="0" devices="tripinfo_46" vType="DEFAULT_VEHTYPE" speedFactor="1.16" vaporized=""/>
    <tripinfo id="60" depart="338.00" departLane="top0A3_0" departPos="5.10" departSpeed="0.00" departDelay="0.00" arrival="560.00" arrivalLane="D1right1_0" arrivalPos="286.40" arrivalSpeed="13.54" duration="222.00" routeLength="2095.69" waitingTime="47.00" waitingCount="2" stopTime="0.00" timeLoss="66.57" rerouteNo="0" devices="tripinfo_60" vType="DEFAULT_VEHTYPE" speedFactor="0.98" vaporized=""/>
    <tripinfo id="95" depart="473.00" departLane="bottom0A0_0" departPos="5.10" departSpeed="0.00" departDelay="0.00" arrival="560.00" arrivalLane="B0bottom1_0" arrivalPos="286.40" arrivalSpeed="11.96" duration="87.00" routeLength="858.56" waitingTime="2.00" waitingCount="2" stopTime="0.00" timeLoss="15.12" rerouteNo="0" devices="tripinfo_95" vType="DEFAULT_VEHTYPE" speedFactor="0.88" vaporized=""/>
    <tripinfo id="2" depart="10.00" departLane="right0D0_0" departPos="5.10" departSpeed="0.00" departDelay="1.00" arrival="563.00" arrivalLane="A3top0_0" arrivalPos="286.40" arrivalSpeed="10.54" duration="553.00" routeLength="2380.45" waitingTime="305.00" waitingCount="7" stopTime="0.00" timeLoss="349.69" rerouteNo="0" devices="tripinfo_2" vType="DEFAULT_VEHTYPE" speedFactor="0.85" vaporized=""/>
    <tripinfo id="59" depart="333.00" departLane="bottom2C0_0" departPos="5.10" departSpeed="0.00" departDelay="0.00" arrival="563.00" arrivalLane="A3top0_1" arrivalPos="286.40" arrivalSpeed="14.02" duration="230.00" routeLength="2080.05" waitingTime="34.00" waitingCount="4" stopTime="0.00" timeLoss="81.40" rerouteNo="0" devices="tripinfo_59" vType="DEFAULT_VEHTYPE" speedFactor="1.02" vaporized=""/>
    <tripinfo id="28" depart="166.00" departLane="right0D0_0" departPos="5.10" departSpeed="0.00" departDelay="0.00" arrival="565.00" arrivalLane="A3top0_0" arrivalPos="286.40" arrivalSpeed="11.45" duration="399.00" routeLength="2380.45" waitingTime="161.00" waitingCount="6" stopTime="0.00" timeLoss="210.70" rerouteNo="0" devices="tripinfo_28" vType="DEFAULT_VEHTYPE" speedFactor="0.92" vaporized=""/>
    <tripinfo id="13" depart="67.00" departLane="bottom3D0_0" departPos="5.10" departSpeed="0.00" departDelay="0.00" arrival="567.00" arrivalLane="A3left3_0" arrivalPos="286.40" arrivalSpeed="14.32" duration="500.00" routeLength="2395.86" waitingTime="296.00" waitingCount="5" stopTime="0.00" timeLoss="339.87" rerouteNo="0" devices="tripinfo_13" vType="DEFAULT_VEHTYPE" speedFactor="1.08" vaporized=""/>
    <tripinfo id="101" depart="503.00" departLane="right1D1_0" departPos="5.10" departSpeed="0.00" departDelay="0.00" arrival="576.00" arrivalLane="D2right2_0" arrivalPos="286.40" arrivalSpeed="16.01" duration="73.00" routeLength="858.56" waitingTime="2.00" waitingCount="2" stopTime="0.00" timeLoss="19.77" rerouteNo="0" devices="tripinfo_101" vType="DEFAULT_VEHTYPE" speedFactor="1.20" vaporized=""/>
    <tripinfo id="52" depart="305.00" departLane="bottom3D0_0" departPos="5.10" departSpeed="0.00" departDelay="0.00" arrival="582.00" arrivalLane="C3top2_0" arrivalPos="286.40" arrivalSpeed="11.64" duration="277.00" routeLength="1782.59" waitingTime="99.00" waitingCount="5" stopTime="0.00" timeLoss="134.34" rerouteNo="0" devices="tripinfo_52" vType="DEFAULT_VEHTYPE" speedFactor="0.91" vaporized=""/>
    <tripinfo id="77" depart="416.00" departLane="bottom2C0_0" departPos="5.10" departSpeed="0.00" departDelay="0.00" arrival="586.00" arrivalLane="B0bottom1_0" arrivalPos="286.40" arrivalSpeed="10.38" duration="170.00" routeLength="894.86" waitingTime="75.00" waitingCount="1" stopTime="0.00" timeLoss="86.50" rerouteNo="0" devices="tripinfo_77" vType="DEFAULT_VEHTYPE" speedFactor="0.79" vaporized=""/>
    <tripinfo id="74" depart="408.00" departLane="bottom2C0_0" departPos="5.10" departSpeed="0.00" departDelay="0.00" arrival="588.00" arrivalLane="D0right0_0" arrivalPos="286.40" arrivalSpeed="14.69" duration="180.00" routeLength="879.60" waitingTime="103.00" waitingCount="2" stopTime="0.00" timeLoss="120.20" rerouteNo="0" devices="tripinfo_74" vType="DEFAULT_VEHTYPE" speedFactor="1.08" vaporized=""/>
    <tripinfo id="38" depart="201.00" departLane="left2A2_0" departPos="5.10" departSpeed="0.00" departDelay="0.00" arrival="590.00" arrivalLane="C0bottom2_0" arrivalPos="286.40" arrivalSpeed="12.66" duration="389.00" routeLength="1780.11" waitingTime="230.00" waitingCount="3" stopTime="0.00" timeLoss="254.32" rerouteNo="0" devices="tripinfo_38" vType="DEFAULT_VEHTYPE" speedFactor="0.96" vaporized=""/>
    <tripinfo id="62" depart="344.00" departLane="top2C3_0" departPos="5.10" departSpeed="0.00" departDelay="0.00" arrival="614.00" arrivalLane="C0bottom2_0" arrivalPos="286.40" arrivalSpeed="11.97" duration="270.00" routeLength="1495.58" waitingTime="131.00" waitingCount="2" stopTime="0.00" timeLoss="156.33" rerouteNo="0" devices="tripinfo_62" vType="DEFAULT_VEHTYPE" speedFactor="0.95" vaporized=""/>
    <tripinfo id="115" depart="561.00" departLane="left3A3_0" departPos="5.10" departSpeed="0.00" departDelay="0.00" arrival="647.00" arrivalLane="A2left2_0" arrivalPos="286.40" arrivalSpeed="12.35" duration="86.00" routeLength="858.56" waitingTime="2.00" waitingCount="2" stopTime="0.00" timeLoss="18.72" rerouteNo="0" devices="tripinfo_115" vType="DEFAULT_VEHTYPE" speedFactor="0.93" vaporized=""/>
    <tripinfo id="117" depart="572.00" departLane="right2D2_0" departPos="5.10" departSpeed="0.00" departDelay="0.00" arrival="647.00" arrivalLane="D3top3_0" arrivalPos="286.40" arrivalSpeed="12.33" duration="75.00" routeLength="879.60" waitingTime="0.00" waitingCount="0" stopTime="0.00" timeLoss="7.51" rerouteNo="0" devices="tripinfo_117" vType="DEFAULT_VEHTYPE" speedFactor="0.95" vaporized=""/>
    <tripinfo id="123" depart="600.00" departLane="bottom2C0_0" departPos="5.10" departSpeed="0.00" departDelay="0.00" arrival="677.00" arrivalLane="D0bottom3_0" arrivalPos="286.40" arrivalSpeed="14.00" duration="77.00" routeLength="858.56" waitingTime="2.00" waitingCount="2" stopTime="0.00" timeLoss="17.82" rerouteNo="0" devices="tripinfo_123" vType="DEFAULT_VEHTYPE" speedFactor="1.07" vaporized=""/>
    <tripinfo id="73" depart="386.00" departLane="bottom2C0_0" departPos="5.10" departSpeed="0.00" departDelay="0.00" arrival="689.00" arrivalLane="D3right3_0" arrivalPos="286.40" arrivalSpeed="12.95" duration="303.00" routeLength="1780.11" waitingTime="148.00" waitingCount="2" stopTime="0.00" timeLoss="175.88" rerouteNo="0" devices="tripinfo_73" vType="DEFAULT_VEHTYPE" speedFactor="1.02" vaporized=""/>
    <tripinfo id="75" depart="413.00" departLane="top0A3_0" departPos="5.10" departSpeed="0.00" departDelay="0.00" arrival="690.00" arrivalLane="D2right2_1" arrivalPos="286.40" arrivalSpeed="14.48" duration="277.00" routeLength="1795.52" waitingTime="121.00" waitingCount="4" stopTime="0.00" timeLoss="153.15" rerouteNo="0" devices="tripinfo_75" vType="DEFAULT_VEHTYPE" speedFactor="1.05" vaporized=""/>
    <tripinfo id="40" depart="203.00" departLane="top0A3_0" departPos="5.10" departSpeed="0.00" departDelay="0.00" arrival="691.00" arrivalLane="D3right3_0" arrivalPos="286.40" arrivalSpeed="13.14" duration="488.00" routeLength="1495.35" waitingTime="348.00" waitingCount="4" stopTime="0.00" timeLoss="379.40" rerouteNo="0" devices="tripinfo_40" vType="DEFAULT_VEHTYPE" speedFactor="1.00" vaporized=""/>
    <tripinfo id="100" depart="495.00" departLane="bottom2C0_0" departPos="5.10" departSpeed="0.00" departDelay="0.00" arrival="691.00" arrivalLane="D2right2_0" arrivalPos="286.40" arrivalSpeed="12.23" duration="196.00" routeLength="1479.94" waitingTime="57.00" waitingCount="2" stopTime="0.00" timeLoss="79.49" rerouteNo="0" devices="tripinfo_100" vType="DEFAULT_VEHTYPE" speedFactor="0.93" vaporized=""/>
    <tripinfo id="45" depart="274.00" departLane="left2A2_0" departPos="5.10" departSpeed="0.00" departDelay="0.00" arrival="692.00" arrivalLane="D3right3_1" arrivalPos="286.40" arrivalSpeed="14.60" duration="418.00" routeLength="1782.59" waitingTime="263.00" waitingCount="3" stopTime="0.00" timeLoss="296.34" rerouteNo="0" devices="tripinfo_45" vType="DEFAULT_VEHTYPE" speedFactor="1.07" vaporized=""/>
    <tripinfo id="71" depart="375.00" departLane="bottom1B0_0" departPos="5.10" departSpeed="0.00" departDelay="0.00" arrival="693.00" arrivalLane="D2right2_0" arrivalPos="286.40" arrivalSpeed="13.41" duration="318.00" routeLength="1780.11" waitingTime="149.00" waitingCount="5" stopTime="0.00" timeLoss="184.66" rerouteNo="0" devices="tripinfo_71" vType="DEFAULT_VEHTYPE" speedFactor="0.97" vaporized=""/>
    <tripinfo id="130" depart="618.00" departLane="right0D0_0" departPos="5.10" departSpeed="0.00" departDelay="0.00" arrival="693.00" arrivalLane="D1right1_0" arrivalPos="286.40" arrivalSpeed="14.69" duration="75.00" routeLength="858.56" waitingTime="1.00" waitingCount="1" stopTime="0.00" timeLoss="16.05" rerouteNo="0" devices="tripinfo_130" vType="DEFAULT_VEHTYPE" speedFactor="1.08" vaporized=""/>
    <tripinfo id="43" depart="231.00" departLane="top3D3_0" departPos="5.10" departSpeed="0.00" departDelay="0.00" arrival="694.00" arrivalLane="A0bottom0_0" arrivalPos="286.40" arrivalSpeed="11.64" duration="463.00" routeLength="2382.93" waitingTime="216.00" waitingCount="5" stopTime="0.00" timeLoss="257.74" rerouteNo="0" devices="tripinfo_43" vType="DEFAULT_VEHTYPE" speedFactor="0.84" vaporized=""/>