<?xml version="1.0" encoding="UTF-8"?>

<!-- generated on 2023-08-30 13:43:12 by Eclipse SUMO libsumo Version 1.18.0
<configuration xmlns:xsi="http://www.w3.org/2001/XMLSchema-instance" xsi:noNamespaceSchemaLocation="http://sumo.dlr.de/xsd/libsumoConfiguration.xsd">

    <input>
        <net-file value="/home/stefan/RESCO/./environments/grid4x4/grid4x4.net.xml"/>
        <route-files value="/home/stefan/RESCO/./environments/grid4x4/grid4x4_75.rou.xml"/>
    </input>

    <output>
        <tripinfo-output value="/home/stefan/results/RAINBOW-tr0-grid4x4-0-drq_norm-wait_norm/tripinfo_75.xml"/>
        <tripinfo-output.write-unfinished value="true"/>
    </output>

    <processing>
        <time-to-teleport value="-1"/>
    </processing>

    <report>
        <no-warnings value="True"/>
        <no-step-log value="True"/>
    </report>

    <random_number>
        <random value="true"/>
    </random_number>

</configuration>
-->

<tripinfos xmlns:xsi="http://www.w3.org/2001/XMLSchema-instance" xsi:noNamespaceSchemaLocation="http://sumo.dlr.de/xsd/tripinfo_file.xsd">
    <tripinfo id="2" depart="22.00" departLane="left1A1_0" departPos="5.10" departSpeed="0.00" departDelay="0.00" arrival="97.00" arrivalLane="A0left0_0" arrivalPos="286.40" arrivalSpeed="13.76" duration="75.00" routeLength="858.56" waitingTime="1.00" waitingCount="1" stopTime="0.00" timeLoss="16.00" rerouteNo="0" devices="tripinfo_2" vType="DEFAULT_VEHTYPE" speedFactor="1.08" vaporized=""/>
    <tripinfo id="5" depart="35.00" departLane="left2A2_0" departPos="5.10" departSpeed="0.00" departDelay="0.00" arrival="117.00" arrivalLane="A1left1_0" arrivalPos="286.40" arrivalSpeed="12.47" duration="82.00" routeLength="858.56" waitingTime="1.00" waitingCount="1" stopTime="0.00" timeLoss="16.87" rerouteNo="0" devices="tripinfo_5" vType="DEFAULT_VEHTYPE" speedFactor="0.97" vaporized=""/>
    <tripinfo id="32" depart="178.00" departLane="left2A2_0" departPos="5.10" departSpeed="0.00" departDelay="0.00" arrival="270.00" arrivalLane="A0bottom0_0" arrivalPos="286.40" arrivalSpeed="13.94" duration="92.00" routeLength="1179.77" waitingTime="1.00" waitingCount="1" stopTime="0.00" timeLoss="13.09" rerouteNo="0" devices="tripinfo_32" vType="DEFAULT_VEHTYPE" speedFactor="1.09" vaporized=""/>
    <tripinfo id="42" depart="221.00" departLane="bottom2C0_0" departPos="5.10" departSpeed="0.00" departDelay="0.00" arrival="299.00" arrivalLane="D0bottom3_0" arrivalPos="286.40" arrivalSpeed="14.39" duration="78.00" routeLength="858.56" waitingTime="2.00" waitingCount="2" stopTime="0.00" timeLoss="21.02" rerouteNo="0" devices="tripinfo_42" vType="DEFAULT_VEHTYPE" speedFactor="1.11" vaporized=""/>
    <tripinfo id="18" depart="124.00" departLane="bottom2C0_0" departPos="5.10" departSpeed="0.00" departDelay="0.00" arrival="307.00" arrivalLane="B0bottom1_0" arrivalPos="286.40" arrivalSpeed="14.54" duration="183.00" routeLength="894.86" waitingTime="105.00" waitingCount="2" stopTime="0.00" timeLoss="124.06" rerouteNo="0" devices="tripinfo_18" vType="DEFAULT_VEHTYPE" speedFactor="1.11" vaporized=""/>
    <tripinfo id="0" depart="13.00" departLane="top0A3_0" departPos="5.10" departSpeed="0.00" departDelay="0.00" arrival="318.00" arrivalLane="D2right2_0" arrivalPos="286.40" arrivalSpeed="14.84" duration="305.00" routeLength="1795.52" waitingTime="165.00" waitingCount="2" stopTime="0.00" timeLoss="190.09" rerouteNo="0" devices="tripinfo_0" vType="DEFAULT_VEHTYPE" speedFactor="1.13" vaporized=""/>
    <tripinfo id="69" depart="318.00" departLane="right3D3_0" departPos="5.10" departSpeed="0.00" departDelay="0.00" arrival="404.00" arrivalLane="C3top2_0" arrivalPos="286.40" arrivalSpeed="14.23" duration="86.00" routeLength="876.90" waitingTime="9.00" waitingCount="2" stopTime="0.00" timeLoss="27.17" rerouteNo="0" devices="tripinfo_69" vType="DEFAULT_VEHTYPE" speedFactor="1.09" vaporized=""/>
    <tripinfo id="14" depart="110.00" departLane="bottom1B0_0" departPos="5.10" departSpeed="0.00" departDelay="0.00" arrival="406.00" arrivalLane="A1left1_0" arrivalPos="286.40" arrivalSpeed="16.12" duration="296.00" routeLength="1195.18" waitingTime="205.00" waitingCount="2" stopTime="0.00" timeLoss="224.23" rerouteNo="0" devices="tripinfo_14" vType="DEFAULT_VEHTYPE" speedFactor="1.21" vaporized=""/>
    <tripinfo id="101" depart="407.00" departLane="top0A3_0" departPos="5.10" departSpeed="0.00" departDelay="0.00" arrival="473.00" arrivalLane="A2left2_0" arrivalPos="286.40" arrivalSpeed="14.80" duration="66.00" routeLength="876.90" waitingTime="0.00" waitingCount="0" stopTime="0.00" timeLoss="8.87" rerouteNo="0" devices="tripinfo_101" vType="DEFAULT_VEHTYPE" speedFactor="1.12" vaporized=""/>
    <tripinfo id="7" depart="55.00" departLane="left1A1_0" departPos="5.10" departSpeed="0.00" departDelay="0.00" arrival="479.00" arrivalLane="B0bottom1_0" arrivalPos="286.40" arrivalSpeed="10.29" duration="424.00" routeLength="1179.77" waitingTime="295.00" waitingCount="2" stopTime="0.00" timeLoss="315.21" rerouteNo="0" devices="tripinfo_7" vType="DEFAULT_VEHTYPE" speedFactor="0.79" vaporized=""/>
    <tripinfo id="90" depart="386.00" departLane="top3D3_0" departPos="5.10" departSpeed="0.00" departDelay="0.00" arrival="479.00" arrivalLane="C3top2_0" arrivalPos="286.40" arrivalSpeed="10.83" duration="93.00" routeLength="858.56" waitingTime="2.00" waitingCount="2" stopTime="0.00" timeLoss="18.28" rerouteNo="0" devices="tripinfo_90" vType="DEFAULT_VEHTYPE" speedFactor="0.85" vaporized=""/>
    <tripinfo id="84" depart="366.00" departLane="top0A3_0" departPos="5.10" departSpeed="0.00" departDelay="0.00" arrival="500.00" arrivalLane="A0left0_0" arrivalPos="286.40" arrivalSpeed="13.07" duration="134.00" routeLength="1477.24" waitingTime="8.00" waitingCount="1" stopTime="0.00" timeLoss="25.30" rerouteNo="0" devices="tripinfo_84" vType="DEFAULT_VEHTYPE" speedFactor="0.98" vaporized=""/>
    <tripinfo id="100" depart="402.00" departLane="left2A2_0" departPos="5.10" departSpeed="0.00" departDelay="0.00" arrival="502.00" arrivalLane="A0left0_0" arrivalPos="286.40" arrivalSpeed="13.01" duration="100.00" routeLength="1161.43" waitingTime="3.00" waitingCount="1" stopTime="0.00" timeLoss="17.28" rerouteNo="0" devices="tripinfo_100" vType="DEFAULT_VEHTYPE" speedFactor="1.02" vaporized=""/>
    <tripinfo id="44" depart="226.00" departLane="left1A1_0" departPos="5.10" departSpeed="0.00" departDelay="0.00" arrival="523.00" arrivalLane="C0bottom2_0" arrivalPos="286.40" arrivalSpeed="13.74" duration="297.00" routeLength="1479.94" waitingTime="163.00" waitingCount="3" stopTime="0.00" timeLoss="189.28" rerouteNo="0" devices="tripinfo_44" vType="DEFAULT_VEHTYPE" speedFactor="1.00" vaporized=""/>
    <tripinfo id="125" depart="502.00" departLane="top0A3_0" departPos="5.10" departSpeed="0.00" departDelay="0.00" arrival="606.00" arrivalLane="A1left1_0" arrivalPos="286.40" arrivalSpeed="13.31" duration="104.00" routeLength="1177.07" waitingTime="2.00" waitingCount="1" stopTime="0.00" timeLoss="16.99" rerouteNo="0" devices="tripinfo_125" vType="DEFAULT_VEHTYPE" speedFactor="0.98" vaporized=""/>
    <tripinfo id="108" depart="436.00" departLane="top1B3_0" departPos="5.10" departSpeed="0.00" departDelay="0.00" arrival="608.00" arrivalLane="A0bottom0_0" arrivalPos="286.40" arrivalSpeed="10.58" duration="172.00" routeLength="1782.72" waitingTime="1.00" waitingCount="1" stopTime="0.00" timeLoss="17.27" rerouteNo="0" devices="tripinfo_108" vType="DEFAULT_VEHTYPE" speedFactor="0.84" vaporized=""/>
    <tripinfo id="138" depart="538.00" departLane="bottom0A0_0" departPos="5.10" departSpeed="0.00" departDelay="0.00" arrival="612.00" arrivalLane="B0bottom1_0" arrivalPos="286.40" arrivalSpeed="13.88" duration="74.00" routeLength="858.56" waitingTime="2.00" waitingCount="2" stopTime="0.00" timeLoss="15.09" rerouteNo="0" devices="tripinfo_138" vType="DEFAULT_VEHTYPE" speedFactor="1.07" vaporized=""/>
    <tripinfo id="111" depart="447.00" departLane="top0A3_0" departPos="5.10" departSpeed="0.00" departDelay="0.00" arrival="616.00" arrivalLane="A0bottom0_0" arrivalPos="286.40" arrivalSpeed="15.05" duration="169.00" routeLength="1495.58" waitingTime="55.00" waitingCount="2" stopTime="0.00" timeLoss="74.38" rerouteNo="0" devices="tripinfo_111" vType="DEFAULT_VEHTYPE" speedFactor="1.15" vaporized=""/>
    <tripinfo id="119" depart="487.00" departLane="bottom3D0_0" departPos="5.10" departSpeed="0.00" departDelay="0.00" arrival="678.00" arrivalLane="C0bottom2_0" arrivalPos="286.40" arrivalSpeed="13.41" duration="191.00" routeLength="894.86" waitingTime="118.00" waitingCount="1" stopTime="0.00" timeLoss="129.16" rerouteNo="0" devices="tripinfo_119" vType="DEFAULT_VEHTYPE" speedFactor="1.06" vaporized=""/>
    <tripinfo id="112" depart="449.00" departLane="left3A3_0" departPos="5.10" departSpeed="0.00" departDelay="0.00" arrival="680.00" arrivalLane="A3top0_0" arrivalPos="286.40" arrivalSpeed="13.94" duration="231.00" routeLength="597.55" waitingTime="177.00" waitingCount="1" stopTime="0.00" timeLoss="187.89" rerouteNo="0" devices="tripinfo_112" vType="DEFAULT_VEHTYPE" speedFactor="1.03" vaporized=""/>
    <tripinfo id="110" depart="443.00" departLane="right3D3_0" departPos="5.10" departSpeed="0.00" departDelay="0.00" arrival="689.00" arrivalLane="C3top2_0" arrivalPos="286.40" arrivalSpeed="13.42" duration="246.00" routeLength="876.90" waitingTime="164.00" waitingCount="2" stopTime="0.00" timeLoss="183.19" rerouteNo="0" devices="tripinfo_110" vType="DEFAULT_VEHTYPE" speedFactor="1.01" vaporized=""/>
    <tripinfo id="122" depart="495.00" departLane="bottom2C0_0" departPos="5.10" departSpeed="0.00" departDelay="0.00" arrival="699.00" arrivalLane="B0bottom1_0" arrivalPos="286.40" arrivalSpeed="13.56" duration="204.00" routeLength="894.86" waitingTime="123.00" waitingCount="2" stopTime="0.00" timeLoss="141.66" rerouteNo="0" devices="tripinfo_122" vType="DEFAULT_VEHTYPE" speedFactor="1.05" vaporized=""/>
    <tripinfo id="41" depart="216.00" departLane="left3A3_0" departPos="5.10" departSpeed="0.00" departDelay="0.00" arrival="701.00" arrivalLane="B3top1_0" arrivalPos="286.40" arrivalSpeed="15.01" duration="485.00" routeLength="897.72" waitingTime="413.00" waitingCount="1" stopTime="0.00" timeLoss="424.46" rerouteNo="0" devices="tripinfo_41" vType="DEFAULT_VEHTYPE" speedFactor="1.09" vaporized=""/>
    <tripinfo id="24" depart="156.00" departLane="bottom0A0_0" departPos="5.10" departSpeed="0.00" departDelay="0.00" arrival="716.00" arrivalLane="D0bottom3_0" arrivalPos="286.40" arrivalSpeed="14.57" duration="560.00" routeLength="1461.60" waitingTime="425.00" waitingCount="3" stopTime="0.00" timeLoss="458.27" rerouteNo="0" devices="tripinfo_24" vType="DEFAULT_VEHTYPE" speedFactor="1.05" vaporized=""/>
    <tripinfo id="65" depart="304.00" departLane="bottom1B0_0" departPos="5.10" departSpeed="0.00" departDelay="0.00" arrival="724.00" arrivalLane="D0bottom3_0" arrivalPos="286.40" arrivalSpeed="13.72" duration="420.00" routeLength="1161.43" waitingTime="305.00" waitingCount="3" stopTime="0.00" timeLoss="334.47" rerouteNo="0" devices="tripinfo_65" vType="DEFAULT_VEHTYPE" speedFactor="0.99" vaporized=""/>
    <tripinfo id="79" depart="346.00" departLane="right1D1_0" departPos="5.10" departSpeed="0.00" departDelay="0.00" arrival="750.00" arrivalLane="D3right3_0" arrivalPos="286.40" arrivalSpeed="12.46" duration="404.00" routeLength="1161.43" waitingTime="291.00" waitingCount="3" stopTime="0.00" timeLoss="313.51" rerouteNo="0" devices="tripinfo_79" vType="DEFAULT_VEHTYPE" speedFactor="0.94" vaporized=""/>
    <tripinfo id="188" depart="703.00" departLane="right3D3_0" departPos="5.10" departSpeed="0.00" departDelay="0.00" arrival="753.00" arrivalLane="D3top3_0" arrivalPos="286.40" arrivalSpeed="13.75" duration="50.00" routeLength="576.73" waitingTime="0.00" waitingCount="0" stopTime="0.00" timeLoss="7.09" rerouteNo="0" devices="tripinfo_188" vType="DEFAULT_VEHTYPE" speedFactor="0.99" vaporized=""/>
    <tripinfo id="30" depart="168.00" departLane="right0D0_0" departPos="5.10" departSpeed="0.00" departDelay="0.00" arrival="756.00" arrivalLane="D3right3_0" arrivalPos="286.40" arrivalSpeed="12.67" duration="588.00" routeLength="1461.60" waitingTime="442.00" waitingCount="5" stopTime="0.00" timeLoss="479.35" rerouteNo="0" devices="tripinfo_30" vType="DEFAULT_VEHTYPE" speedFactor="0.99" vaporized=""/>
    <tripinfo id="190" depart="710.00" departLane="top0A3_0" departPos="5.10" departSpeed="0.00" departDelay="0.00" arrival="758.00" arrivalLane="A3left3_0" arrivalPos="286.40" arrivalSpeed="14.00" duration="48.00" routeLength="576.73" waitingTime="0.00" waitingCount="0" stopTime="0.00" timeLoss="7.07" rerouteNo="0" devices="tripinfo_190" vType="DEFAULT_VEHTYPE" speedFactor="1.03" vaporized=""/>
    <tripinfo id="77" depart="339.00" departLane="top1B3_0" departPos="5.10" departSpeed="0.00" departDelay="0.00" arrival="760.00" arrivalLane="D3top3_0" arrivalPos="286.40" arrivalSpeed="12.65" duration="421.00" routeLength="1197.66" waitingTime="310.00" waitingCount="2" stopTime="0.00" timeLoss="331.31" rerouteNo="0" devices="tripinfo_77" vType="DEFAULT_VEHTYPE" speedFactor="0.97" vaporized=""/>
    <tripinfo id="74" depart="337.00" departLane="right0D0_0" departPos="5.10" departSpeed="0.00" departDelay="0.00" arrival="763.00" arrivalLane="D3right3_0" arrivalPos="286.40" arrivalSpeed="13.44" duration="426.00" routeLength="1461.60" waitingTime="271.00" waitingCount="4" stopTime="0.00" timeLoss="315.48" rerouteNo="0" devices="tripinfo_74" vType="DEFAULT_VEHTYPE" speedFactor="0.97" vaporized=""/>
    <tripinfo id="126" depart="506.00" departLane="right1D1_0" departPos="5.10" departSpeed="0.00" departDelay="0.00" arrival="767.00" arrivalLane="D3right3_0" arrivalPos="286.40" arrivalSpeed="12.43" duration="261.00" routeLength="1161.43" waitingTime="140.00" waitingCount="2" stopTime="0.00" timeLoss="173.02" rerouteNo="0" devices="tripinfo_126" vType="DEFAULT_VEHTYPE" speedFactor="0.97" vaporized=""/>
    <tripinfo id="173" depart="646.00" departLane="left3A3_0" departPos="5.10" departSpeed="0.00" departDelay="2.00" arrival="787.00" arrivalLane="A0bottom0_1" arrivalPos="286.40" arrivalSpeed="12.95" duration="141.00" routeLength="1479.94" waitingTime="6.00" waitingCount="1" stopTime="0.00" timeLoss="31.75" rerouteNo="0" devices="tripinfo_173" vType="DEFAULT_VEHTYPE" speedFactor="0.98" vaporized=""/>
    <tripinfo id="174" depart="647.00" departLane="top0A3_0" departPos="5.10" departSpeed="0.00" departDelay="0.00" arrival="790.00" arrivalLane="A0bottom0_0" arrivalPos="286.40" arrivalSpeed="10.33" duration="143.00" routeLength="1495.58" waitingTime="0.00" waitingCount="0" stopTime="0.00" timeLoss="10.94" rerouteNo="0" devices="tripinfo_174" vType="DEFAULT_VEHTYPE" speedFactor="0.82" vaporized=""/>
    <tripinfo id="88" depart="382.00" departLane="right0D0_0" departPos="5.10" departSpeed="0.00" departDelay="0.00" arrival="797.00" arrivalLane="D3right3_0" arrivalPos="286.40" arrivalSpeed="12.63" duration="415.00" routeLength="1461.60" waitingTime="274.00" waitingCount="3" stopTime="0.00" timeLoss="297.90" rerouteNo="0" devices="tripinfo_88" vType="DEFAULT_VEHTYPE" speedFactor="0.92" vaporized=""/>
    <tripinfo id="153" depart="582.00" departLane="top3D3_0" departPos="5.10" departSpeed="0.00" departDelay="0.00" arrival="811.00" arrivalLane="A3top0_0" arrivalPos="286.40" arrivalSpeed="11.89" duration="229.00" routeLength="1461.60" waitingTime="84.00" waitingCount="4" stopTime="0.00" timeLoss="115.16" rerouteNo="0" devices="tripinfo_153" vType="DEFAULT_VEHTYPE" speedFactor="0.94" vaporized=""/>
    <tripinfo id="131" depart="516.00" departLane="right3D3_0" departPos="5.10" departSpeed="0.00" departDelay="0.00" arrival="816.00" arrivalLane="A3top0_0" arrivalPos="286.40" arrivalSpeed="13.41" duration="300.00" routeLength="1477.24" waitingTime="154.00" waitingCount="4" stopTime="0.00" timeLoss="193.09" rerouteNo="0" devices="tripinfo_131" vType="DEFAULT_VEHTYPE" speedFactor="1.00" vaporized=""/>
    <tripinfo id="39" depart="213.00" departLane="top2C3_0" departPos="5.10" departSpeed="0.00" departDelay="0.00" arrival="850.00" arrivalLane="A3left3_0" arrivalPos="286.40" arrivalSpeed="12.42" duration="637.00" routeLength="1179.77" waitingTime="527.00" waitingCount="2" stopTime="0.00" timeLoss="548.62" rerouteNo="0" devices="tripinfo_39" vType="DEFAULT_VEHTYPE" speedFactor="0.98" vaporized=""/>
    <tripinfo id="204" depart="745.00" departLane="top0A3_0" departPos="5.10" departSpeed="0.00" departDelay="0.00" arrival="854.00" arrivalLane="A0left0_0" arrivalPos="286.40" arrivalSpeed="13.77" duration="109.00" routeLength="1477.24" waitingTime="0.00" waitingCount="0" stopTime="0.00" timeLoss="10.14" rerouteNo="0" devices="tripinfo_204" vType="DEFAULT_VEHTYPE" speedFactor="1.08" vaporized=""/>
    <tripinfo id="181" depart="678.00" departLane="right1D1_0" departPos="5.10" departSpeed="0.00" departDelay="0.00" arrival="861.00" arrivalLane="D1right1_0" arrivalPos="286.40" arrivalSpeed="12.71" duration="183.00" routeLength="1748.75" waitingTime="15.00" waitingCount="4" stopTime="0.00" timeLoss="44.73" rerouteNo="0" devices="tripinfo_181" vType="DEFAULT_VEHTYPE" speedFactor="0.93" vaporized=""/>
    <tripinfo id="202" depart="742.00" departLane="top3D3_0" departPos="5.10" departSpeed="0.00" departDelay="2.00" arrival="866.00" arrivalLane="B3top1_0" arrivalPos="286.40" arrivalSpeed="14.70" duration="124.00" routeLength="1161.43" waitingTime="24.00" waitingCount="2" stopTime="0.00" timeLoss="47.13" rerouteNo="0" devices="tripinfo_202" vType="DEFAULT_VEHTYPE" speedFactor="1.11" vaporized=""/>
    <tripinfo id="81" depart="355.00" departLane="left3A3_0" departPos="5.10" departSpeed="0.00" departDelay="0.00" arrival="878.00" arrivalLane="B3top1_0" arrivalPos="286.40" arrivalSpeed="15.32" duration="523.00" routeLength="897.72" waitingTime="437.00" waitingCount="3" stopTime="0.00" timeLoss="463.53" rerouteNo="0" devices="tripinfo_81" vType="DEFAULT_VEHTYPE" speedFactor="1.11" vaporized=""/>
    <tripinfo id="49" depart="249.00" departLane="right0D0_0" departPos="5.10" departSpeed="0.00" departDelay="1.00" arrival="879.00" arrivalLane="D0bottom3_0" arrivalPos="286.40" arrivalSpeed="13.69" duration="630.00" routeLength="597.55" waitingTime="576.00" waitingCount="1" stopTime="0.00" timeLoss="586.94" rerouteNo="0" devices="tripinfo_49" vType="DEFAULT_VEHTYPE" speedFactor="1.02" vaporized=""/>
    <tripinfo id="45" depart="229.00" departLane="right0D0_0" departPos="5.10" departSpeed="0.00" departDelay="0.00" arrival="892.00" arrivalLane="D0right0_0" arrivalPos="286.40" arrivalSpeed="12.05" duration="663.00" routeLength="1748.75" waitingTime="490.00" waitingCount="3" stopTime="0.00" timeLoss="519.10" rerouteNo="0" devices="tripinfo_45" vType="DEFAULT_VEHTYPE" speedFactor="0.89" vaporized=""/>
    <tripinfo id="179" depart="667.00" departLane="right3D3_0" departPos="5.10" departSpeed="0.00" departDelay="0.00" arrival="898.00" arrivalLane="A3top0_0" arrivalPos="286.40" arrivalSpeed="14.03" duration="231.00" routeLength="1477.24" waitingTime="93.00" waitingCount="4" stopTime="0.00" timeLoss="125.01" rerouteNo="0" devices="tripinfo_179" vType="DEFAULT_VEHTYPE" speedFactor="1.02" vaporized=""/>
    <tripinfo id="180" depart="674.00" departLane="right3D3_0" departPos="5.10" departSpeed="0.00" departDelay="0.00" arrival="905.00" arrivalLane="A3top0_0" arrivalPos="286.40" arrivalSpeed="11.87" duration="231.00" routeLength="1477.24" waitingTime="83.00" waitingCount="3" stopTime="0.00" timeLoss="116.11" rerouteNo="0" devices="tripinfo_180" vType="DEFAULT_VEHTYPE" speedFactor="0.93" vaporized=""/>
    <tripinfo id="232" depart="847.00" departLane="left0A0_0" departPos="5.10" departSpeed="0.00" departDelay="0.00" arrival="905.00" arrivalLane="A0bottom0_0" arrivalPos="286.40" arrivalSpeed="11.48" duration="58.00" routeLength="576.73" waitingTime="1.00" waitingCount="1" stopTime="0.00" timeLoss="11.29" rerouteNo="0" devices="tripinfo_232" vType="DEFAULT_VEHTYPE" speedFactor="0.91" vaporized=""/>
    <tripinfo id="205" depart="755.00" departLane="bottom1B0_0" departPos="5.10" departSpeed="0.00" departDelay="0.00" arrival="917.00" arrivalLane="D0bottom3_0" arrivalPos="286.40" arrivalSpeed="13.34" duration="162.00" routeLength="1161.43" waitingTime="55.00" waitingCount="2" stopTime="0.00" timeLoss="75.78" rerouteNo="0" devices="tripinfo_205" vType="DEFAULT_VEHTYPE" speedFactor="0.99" vaporized=""/>
    <tripinfo id="242" depart="876.00" departLane="top0A3_0" departPos="5.10" departSpeed="0.00" departDelay="0.00" arrival="927.00" arrivalLane="A3left3_0" arrivalPos="286.40" arrivalSpeed="12.87" duration="51.00" routeLength="576.73" waitingTime="0.00" waitingCount="0" stopTime="0.00" timeLoss="7.46" rerouteNo="0" devices="tripinfo_242" vType="DEFAULT_VEHTYPE" speedFactor="0.98" vaporized=""/>
    <tripinfo id="229" depart="842.00" departLane="bottom1B0_0" departPos="5.10" departSpeed="0.00" departDelay="0.00" arrival="931.00" arrivalLane="D0bottom3_0" arrivalPos="286.40" arrivalSpeed="15.30" duration="89.00" routeLength="1161.43" waitingTime="1.00" waitingCount="1" stopTime="0.00" timeLoss="15.71" rerouteNo="0" devices="tripinfo_229" vType="DEFAULT_VEHTYPE" speedFactor="1.17" vaporized=""/>
    <tripinfo id="240" depart="865.00" departLane="bottom2C0_0" departPos="5.10" departSpeed="0.00" departDelay="0.00" arrival="945.00" arrivalLane="D0bottom3_0" arrivalPos="286.40" arrivalSpeed="13.09" duration="80.00" routeLength="858.56" waitingTime="2.00" waitingCount="2" stopTime="0.00" timeLoss="19.09" rerouteNo="0" devices="tripinfo_240" vType="DEFAULT_VEHTYPE" speedFactor="1.03" vaporized=""/>
    <tripinfo id="256" depart="910.00" departLane="top0A3_0" departPos="5.10" departSpeed="0.00" departDelay="0.00" arrival="958.00" arrivalLane="A3left3_0" arrivalPos="286.40" arrivalSpeed="14.38" duration="48.00" routeLength="576.73" waitingTime="0.00" waitingCount="0" stopTime="0.00" timeLoss="7.20" rerouteNo="0" devices="tripinfo_256" vType="DEFAULT_VEHTYPE" speedFactor="1.05" vaporized=""/>
    <tripinfo id="199" depart="739.00" departLane="top3D3_0" departPos="5.10" departSpeed="0.00" departDelay="0.00" arrival="969.00" arrivalLane="D3right3_0" arrivalPos="286.40" arrivalSpeed="12.81" duration="230.00" routeLength="597.55" waitingTime="177.00" waitingCount="1" stopTime="0.00" timeLoss="186.85" rerouteNo="0" devices="tripinfo_199" vType="DEFAULT_VEHTYPE" speedFactor="1.01" vaporized=""/>
    <tripinfo id="247" depart="889.00" departLane="right1D1_0" departPos="5.10" departSpeed="0.00" departDelay="0.00" arrival="969.00" arrivalLane="D0right0_0" arrivalPos="286.40" arrivalSpeed="11.56" duration="80.00" routeLength="894.86" waitingTime="0.00" waitingCount="0" stopTime="0.00" timeLoss="7.18" rerouteNo="0" devices="tripinfo_247" vType="DEFAULT_VEHTYPE" speedFactor="0.90" vaporized=""/>
    <tripinfo id="258" depart="921.00" departLane="right3D3_0" departPos="5.10" departSpeed="0.00" departDelay="0.00" arrival="975.00" arrivalLane="D3top3_0" arrivalPos="286.40" arrivalSpeed="13.61" duration="54.00" routeLength="576.73" waitingTime="1.00" waitingCount="1" stopTime="0.00" timeLoss="11.39" rerouteNo="0" devices="tripinfo_258" vType="DEFAULT_VEHTYPE" speedFactor="1.00" vaporized=""/>
    <tripinfo id="1" depart="17.00" departLane="left3A3_0" departPos="5.10" departSpeed="0.00" departDelay="0.00" arrival="987.00" arrivalLane="B0bottom1_1" arrivalPos="286.40" arrivalSpeed="15.27" duration="970.00" routeLength="1780.11" waitingTime="815.00" waitingCount="4" stopTime="0.00" timeLoss="856.33" rerouteNo="0" devices="tripinfo_1" vType="DEFAULT_VEHTYPE" speedFactor="1.14" vaporized=""/>
    <tripinfo id="4" depart="31.00" departLane="right2D2_0" departPos="5.10" departSpeed="0.00" departDelay="0.00" arrival="991.00" arrivalLane="B0bottom1_1" arrivalPos="286.40" arrivalSpeed="15.30" duration="960.00" routeLength="1795.52" waitingTime="809.00" waitingCount="3" stopTime="0.00" timeLoss="848.28" rerouteNo="0" devices="tripinfo_4" vType="DEFAULT_VEHTYPE" speedFactor="1.17" vaporized=""/>
    <tripinfo id="43" depart="224.00" departLane="left2A2_0" departPos="5.10" departSpeed="0.00" departDelay="0.00" arrival="992.00" arrivalLane="B0bottom1_0" arrivalPos="286.40" arrivalSpeed="10.66" duration="768.00" routeLength="1479.94" waitingTime="618.00" waitingCount="3" stopTime="0.00" timeLoss="641.13" rerouteNo="0" devices="tripinfo_43" vType="DEFAULT_VEHTYPE" speedFactor="0.85" vaporized=""/>
    <tripinfo id="169" depart="637.00" departLane="top2C3_0" departPos="5.10" departSpeed="0.00" departDelay="0.00" arrival="994.00" arrivalLane="B0bottom1_1" arrivalPos="286.40" arrivalSpeed="12.73" duration="357.00" routeLength="1782.72" waitingTime="194.00" waitingCount="2" stopTime="0.00" timeLoss="217.89" rerouteNo="0" devices="tripinfo_169" vType="DEFAULT_VEHTYPE" speedFactor="0.94" vaporized=""/>
    <tripinfo id="146" depart="559.00" departLane="top1B3_0" departPos="5.10" departSpeed="0.00" departDelay="0.00" arrival="996.00" arrivalLane="B0bottom1_0" arrivalPos="286.40" arrivalSpeed="12.09" duration="437.00" routeLength="1495.58" waitingTime="286.00" waitingCount="3" stopTime="0.00" timeLoss="324.98" rerouteNo="0" devices="tripinfo_146" vType="DEFAULT_VEHTYPE" speedFactor="0.96" vaporized=""/>
    <tripinfo id="257" depart="918.00" departLane="right0D0_0" departPos="5.10" departSpeed="0.00" departDelay="0.00" arrival="997.00" arrivalLane="D1right1_0" arrivalPos="286.40" arrivalSpeed="13.58" duration="79.00" routeLength="858.56" waitingTime="2.00" waitingCount="2" stopTime="0.00" timeLoss="16.23" rerouteNo="0" devices="tripinfo_257" vType="DEFAULT_VEHTYPE" speedFactor="1.00" vaporized=""/>
    <tripinfo id="243" depart="879.00" departLane="left3A3_0" departPos="5.10" departSpeed="0.00" departDelay="0.00" arrival="1002.00" arrivalLane="A0left0_0" arrivalPos="286.40" arrivalSpeed="12.80" duration="123.00" routeLength="1461.60" waitingTime="1.00" waitingCount="1" stopTime="0.00" timeLoss="16.14" rerouteNo="0" devices="tripinfo_243" vType="DEFAULT_VEHTYPE" speedFactor="1.00" vaporized=""/>
    <tripinfo id="259" depart="921.00" departLane="bottom1B0_0" departPos="5.10" departSpeed="0.00" departDelay="0.00" arrival="1013.00" arrivalLane="D0bottom3_0" arrivalPos="286.40" arrivalSpeed="14.06" duration="92.00" routeLength="1161.43" waitingTime="1.00" waitingCount="1" stopTime="0.00" timeLoss="13.92" rerouteNo="0" devices="tripinfo_259" vType="DEFAULT_VEHTYPE" speedFactor="1.09" vaporized=""/>
    <tripinfo id="31" depart="175.00" departLane="bottom1B0_0" departPos="5.10" departSpeed="0.00" departDelay="0.00" arrival="1030.00" arrivalLane="A3top0_0" arrivalPos="286.40" arrivalSpeed="12.34" duration="855.00" routeLength="1782.59" waitingTime="694.00" waitingCount="3" stopTime="0.00" timeLoss="722.51" rerouteNo="0" devices="tripinfo_31" vType="DEFAULT_VEHTYPE" speedFactor="0.98" vaporized=""/>
    <tripinfo id="264" depart="937.00" departLane="left3A3_0" departPos="5.10" departSpeed="0.00" departDelay="0.00" arrival="1031.00" arrivalLane="A1left1_0" arrivalPos="286.40" arrivalSpeed="14.79" duration="94.00" routeLength="1161.43" waitingTime="1.00" waitingCount="1" stopTime="0.00" timeLoss="16.19" rerouteNo="0" devices="tripinfo_264" vType="DEFAULT_VEHTYPE" speedFactor="1.10" vaporized=""/>
    <tripinfo id="87" depart="381.00" departLane="bottom3D0_0" departPos="5.10" departSpeed="0.00" departDelay="0.00" arrival="1032.00" arrivalLane="A3top0_0" arrivalPos="286.40" arrivalSpeed="13.34" duration="651.00" routeLength="2380.22" waitingTime="438.00" waitingCount="4" stopTime="0.00" timeLoss="473.46" rerouteNo="0" devices="tripinfo_87" vType="DEFAULT_VEHTYPE" speedFactor="0.97" vaporized=""/>
    <tripinfo id="219" depart="813.00" departLane="bottom1B0_0" departPos="5.10" departSpeed="0.00" departDelay="0.00" arrival="1035.00" arrivalLane="A3top0_0" arrivalPos="286.40" arrivalSpeed="12.46" duration="222.00" routeLength="1782.59" waitingTime="61.00" waitingCount="2" stopTime="0.00" timeLoss="81.39" rerouteNo="0" devices="tripinfo_219" vType="DEFAULT_VEHTYPE" speedFactor="0.92" vaporized=""/>
    <tripinfo id="194" depart="727.00" departLane="top0A3_0" departPos="5.10" departSpeed="0.00" departDelay="0.00" arrival="1039.00" arrivalLane="C3top2_0" arrivalPos="286.40" arrivalSpeed="13.78" duration="312.00" routeLength="1197.66" waitingTime="207.00" waitingCount="2" stopTime="0.00" timeLoss="225.92" rerouteNo="0" devices="tripinfo_194" vType="DEFAULT_VEHTYPE" speedFactor="1.01" vaporized=""/>
    <tripinfo id="35" depart="204.00" departLane="bottom1B0_0" departPos="5.10" departSpeed="0.00" departDelay="0.00" arrival="1040.00" arrivalLane="D2right2_0" arrivalPos="286.40" arrivalSpeed="12.73" duration="836.00" routeLength="1780.11" waitingTime="677.00" waitingCount="3" stopTime="0.00" timeLoss="704.74" rerouteNo="0" devices="tripinfo_35" vType="DEFAULT_VEHTYPE" speedFactor="0.98" vaporized=""/>
    <tripinfo id="53" depart="261.00" departLane="bottom1B0_0" departPos="5.10" departSpeed="0.00" departDelay="0.00" arrival="1040.00" arrivalLane="D2right2_1" arrivalPos="286.40" arrivalSpeed="13.91" duration="779.00" routeLength="1780.11" waitingTime="620.00" waitingCount="4" stopTime="0.00" timeLoss="658.91" rerouteNo="0" devices="tripinfo_53" vType="DEFAULT_VEHTYPE" speedFactor="1.07" vaporized=""/>
    <tripinfo id="261" depart="928.00" departLane="top0A3_0" departPos="5.10" departSpeed="0.00" departDelay="0.00" arrival="1052.00" arrivalLane="A0bottom0_0" arrivalPos="286.40" arrivalSpeed="13.00" duration="124.00" routeLength="1495.58" waitingTime="0.00" waitingCount="0" stopTime="0.00" timeLoss="9.54" rerouteNo="0" devices="tripinfo_261" vType="DEFAULT_VEHTYPE" speedFactor="0.95" vaporized=""/>