<?xml version="1.0" encoding="UTF-8"?>

<!-- generated on 2023-08-30 13:30:18 by Eclipse SUMO libsumo Version 1.18.0
<configuration xmlns:xsi="http://www.w3.org/2001/XMLSchema-instance" xsi:noNamespaceSchemaLocation="http://sumo.dlr.de/xsd/libsumoConfiguration.xsd">

    <input>
        <net-file value="/home/stefan/RESCO/./environments/grid4x4/grid4x4.net.xml"/>
        <route-files value="/home/stefan/RESCO/./environments/grid4x4/grid4x4_56.rou.xml"/>
    </input>

    <output>
        <tripinfo-output value="/home/stefan/results/RAINBOW-tr0-grid4x4-0-drq_norm-wait_norm/tripinfo_56.xml"/>
        <tripinfo-output.write-unfinished value="true"/>
    </output>

    <processing>
        <time-to-teleport value="-1"/>
    </processing>

    <report>
        <no-warnings value="True"/>
        <no-step-log value="True"/>
    </report>

    <random_number>
        <random value="true"/>
    </random_number>

</configuration>
-->

<tripinfos xmlns:xsi="http://www.w3.org/2001/XMLSchema-instance" xsi:noNamespaceSchemaLocation="http://sumo.dlr.de/xsd/tripinfo_file.xsd">
    <tripinfo id="6" depart="12.00" departLane="left1A1_0" departPos="5.10" departSpeed="0.00" departDelay="0.00" arrival="93.00" arrivalLane="A0left0_0" arrivalPos="286.40" arrivalSpeed="11.43" duration="81.00" routeLength="858.56" waitingTime="0.00" waitingCount="0" stopTime="0.00" timeLoss="9.31" rerouteNo="0" devices="tripinfo_6" vType="DEFAULT_VEHTYPE" speedFactor="0.88" vaporized=""/>
    <tripinfo id="20" depart="65.00" departLane="bottom3D0_0" departPos="5.10" departSpeed="0.00" departDelay="0.00" arrival="124.00" arrivalLane="D0right0_0" arrivalPos="286.40" arrivalSpeed="10.68" duration="59.00" routeLength="576.73" waitingTime="1.00" waitingCount="1" stopTime="0.00" timeLoss="9.13" rerouteNo="0" devices="tripinfo_20" vType="DEFAULT_VEHTYPE" speedFactor="0.85" vaporized=""/>
    <tripinfo id="15" depart="52.00" departLane="right2D2_0" departPos="5.10" departSpeed="0.00" departDelay="0.00" arrival="136.00" arrivalLane="D3top3_0" arrivalPos="286.40" arrivalSpeed="11.64" duration="84.00" routeLength="879.60" waitingTime="1.00" waitingCount="1" stopTime="0.00" timeLoss="11.68" rerouteNo="0" devices="tripinfo_15" vType="DEFAULT_VEHTYPE" speedFactor="0.89" vaporized=""/>
    <tripinfo id="14" depart="51.00" departLane="top0A3_0" departPos="5.10" departSpeed="0.00" departDelay="0.00" arrival="139.00" arrivalLane="B3top1_0" arrivalPos="286.40" arrivalSpeed="14.02" duration="88.00" routeLength="894.86" waitingTime="17.00" waitingCount="1" stopTime="0.00" timeLoss="26.99" rerouteNo="0" devices="tripinfo_14" vType="DEFAULT_VEHTYPE" speedFactor="1.08" vaporized=""/>
    <tripinfo id="19" depart="64.00" departLane="bottom2C0_0" departPos="5.10" departSpeed="0.00" departDelay="0.00" arrival="147.00" arrivalLane="D0bottom3_0" arrivalPos="286.40" arrivalSpeed="12.51" duration="83.00" routeLength="858.56" waitingTime="1.00" waitingCount="1" stopTime="0.00" timeLoss="13.10" rerouteNo="0" devices="tripinfo_19" vType="DEFAULT_VEHTYPE" speedFactor="0.91" vaporized=""/>
    <tripinfo id="1" depart="0.00" departLane="bottom0A0_0" departPos="5.10" departSpeed="0.00" departDelay="0.00" arrival="149.00" arrivalLane="A3top0_0" arrivalPos="286.40" arrivalSpeed="14.06" duration="149.00" routeLength="1495.58" waitingTime="27.00" waitingCount="2" stopTime="0.00" timeLoss="44.05" rerouteNo="0" devices="tripinfo_1" vType="DEFAULT_VEHTYPE" speedFactor="1.03" vaporized=""/>
    <tripinfo id="32" depart="148.00" departLane="left0A0_0" departPos="5.10" departSpeed="0.00" departDelay="0.00" arrival="197.00" arrivalLane="A0bottom0_0" arrivalPos="286.40" arrivalSpeed="13.90" duration="49.00" routeLength="576.73" waitingTime="1.00" waitingCount="1" stopTime="0.00" timeLoss="9.52" rerouteNo="0" devices="tripinfo_32" vType="DEFAULT_VEHTYPE" speedFactor="1.07" vaporized=""/>
    <tripinfo id="27" depart="114.00" departLane="top3D3_0" departPos="5.10" departSpeed="0.00" departDelay="0.00" arrival="208.00" arrivalLane="D1right1_0" arrivalPos="286.40" arrivalSpeed="13.85" duration="94.00" routeLength="1197.89" waitingTime="0.00" waitingCount="0" stopTime="0.00" timeLoss="7.40" rerouteNo="0" devices="tripinfo_27" vType="DEFAULT_VEHTYPE" speedFactor="1.01" vaporized=""/>
    <tripinfo id="10" depart="26.00" departLane="right2D2_0" departPos="5.10" departSpeed="0.00" departDelay="0.00" arrival="227.00" arrivalLane="C0bottom2_0" arrivalPos="286.40" arrivalSpeed="15.47" duration="201.00" routeLength="1495.35" waitingTime="83.00" waitingCount="2" stopTime="0.00" timeLoss="103.15" rerouteNo="0" devices="tripinfo_10" vType="DEFAULT_VEHTYPE" speedFactor="1.12" vaporized=""/>
    <tripinfo id="0" depart="0.00" departLane="top1B3_0" departPos="5.10" departSpeed="0.00" departDelay="0.00" arrival="239.00" arrivalLane="B3top1_0" arrivalPos="286.40" arrivalSpeed="13.60" duration="239.00" routeLength="1748.75" waitingTime="90.00" waitingCount="3" stopTime="0.00" timeLoss="113.40" rerouteNo="0" devices="tripinfo_0" vType="DEFAULT_VEHTYPE" speedFactor="1.03" vaporized=""/>
    <tripinfo id="36" depart="179.00" departLane="left3A3_0" departPos="5.10" departSpeed="0.00" departDelay="0.00" arrival="256.00" arrivalLane="A2left2_0" arrivalPos="286.40" arrivalSpeed="15.17" duration="77.00" routeLength="858.56" waitingTime="2.00" waitingCount="2" stopTime="0.00" timeLoss="18.95" rerouteNo="0" devices="tripinfo_36" vType="DEFAULT_VEHTYPE" speedFactor="1.10" vaporized=""/>
    <tripinfo id="37" depart="179.00" departLane="left1A1_0" departPos="5.10" departSpeed="0.00" departDelay="0.00" arrival="267.00" arrivalLane="A0bottom0_0" arrivalPos="286.40" arrivalSpeed="11.21" duration="88.00" routeLength="879.60" waitingTime="1.00" waitingCount="1" stopTime="0.00" timeLoss="12.21" rerouteNo="0" devices="tripinfo_37" vType="DEFAULT_VEHTYPE" speedFactor="0.86" vaporized=""/>
    <tripinfo id="23" depart="77.00" departLane="right0D0_0" departPos="5.10" departSpeed="0.00" departDelay="0.00" arrival="277.00" arrivalLane="D0right0_0" arrivalPos="286.40" arrivalSpeed="14.38" duration="200.00" routeLength="1748.75" waitingTime="53.00" waitingCount="4" stopTime="0.00" timeLoss="83.46" rerouteNo="0" devices="tripinfo_23" vType="DEFAULT_VEHTYPE" speedFactor="1.10" vaporized=""/>
    <tripinfo id="45" depart="202.00" departLane="top3D3_0" departPos="5.10" departSpeed="0.00" departDelay="0.00" arrival="281.00" arrivalLane="C3top2_0" arrivalPos="286.40" arrivalSpeed="12.82" duration="79.00" routeLength="858.56" waitingTime="1.00" waitingCount="1" stopTime="0.00" timeLoss="11.46" rerouteNo="0" devices="tripinfo_45" vType="DEFAULT_VEHTYPE" speedFactor="0.95" vaporized=""/>
    <tripinfo id="5" depart="9.00" departLane="bottom0A0_0" departPos="5.10" departSpeed="0.00" departDelay="0.00" arrival="291.00" arrivalLane="A0bottom0_0" arrivalPos="286.40" arrivalSpeed="11.55" duration="282.00" routeLength="1748.75" waitingTime="118.00" waitingCount="3" stopTime="0.00" timeLoss="140.90" rerouteNo="0" devices="tripinfo_5" vType="DEFAULT_VEHTYPE" speedFactor="0.91" vaporized=""/>
    <tripinfo id="51" depart="220.00" departLane="right2D2_0" departPos="5.10" departSpeed="0.00" departDelay="0.00" arrival="294.00" arrivalLane="D3right3_0" arrivalPos="286.40" arrivalSpeed="14.09" duration="74.00" routeLength="858.56" waitingTime="1.00" waitingCount="1" stopTime="0.00" timeLoss="12.55" rerouteNo="0" devices="tripinfo_51" vType="DEFAULT_VEHTYPE" speedFactor="1.03" vaporized=""/>
    <tripinfo id="9" depart="21.00" departLane="top2C3_0" departPos="5.10" departSpeed="0.00" departDelay="0.00" arrival="308.00" arrivalLane="C3top2_0" arrivalPos="286.40" arrivalSpeed="14.53" duration="287.00" routeLength="1748.75" waitingTime="132.00" waitingCount="5" stopTime="0.00" timeLoss="167.77" rerouteNo="0" devices="tripinfo_9" vType="DEFAULT_VEHTYPE" speedFactor="1.08" vaporized=""/>
    <tripinfo id="24" depart="79.00" departLane="bottom1B0_0" departPos="5.10" departSpeed="0.00" departDelay="0.00" arrival="321.00" arrivalLane="A2left2_0" arrivalPos="286.40" arrivalSpeed="13.61" duration="242.00" routeLength="1495.35" waitingTime="115.00" waitingCount="2" stopTime="0.00" timeLoss="136.04" rerouteNo="0" devices="tripinfo_24" vType="DEFAULT_VEHTYPE" speedFactor="1.03" vaporized=""/>
    <tripinfo id="8" depart="16.00" departLane="top1B3_0" departPos="5.10" departSpeed="0.00" departDelay="0.00" arrival="330.00" arrivalLane="D0right0_1" arrivalPos="286.40" arrivalSpeed="14.25" duration="314.00" routeLength="2095.69" waitingTime="138.00" waitingCount="4" stopTime="0.00" timeLoss="171.11" rerouteNo="0" devices="tripinfo_8" vType="DEFAULT_VEHTYPE" speedFactor="1.06" vaporized=""/>
    <tripinfo id="28" depart="130.00" departLane="left0A0_0" departPos="5.10" departSpeed="0.00" departDelay="0.00" arrival="331.00" arrivalLane="D0right0_0" arrivalPos="286.40" arrivalSpeed="12.24" duration="201.00" routeLength="1495.58" waitingTime="62.00" waitingCount="3" stopTime="0.00" timeLoss="84.40" rerouteNo="0" devices="tripinfo_28" vType="DEFAULT_VEHTYPE" speedFactor="0.93" vaporized=""/>
    <tripinfo id="38" depart="182.00" departLane="right0D0_0" departPos="5.10" departSpeed="0.00" departDelay="0.00" arrival="336.00" arrivalLane="D0bottom3_0" arrivalPos="286.40" arrivalSpeed="15.45" duration="154.00" routeLength="597.55" waitingTime="107.00" waitingCount="1" stopTime="0.00" timeLoss="116.84" rerouteNo="0" devices="tripinfo_38" vType="DEFAULT_VEHTYPE" speedFactor="1.19" vaporized=""/>
    <tripinfo id="3" depart="5.00" departLane="left1A1_0" departPos="5.10" departSpeed="0.00" departDelay="0.00" arrival="340.00" arrivalLane="B3top1_0" arrivalPos="286.40" arrivalSpeed="13.34" duration="335.00" routeLength="1495.35" waitingTime="201.00" waitingCount="3" stopTime="0.00" timeLoss="224.19" rerouteNo="0" devices="tripinfo_3" vType="DEFAULT_VEHTYPE" speedFactor="0.98" vaporized=""/>
    <tripinfo id="2" depart="4.00" departLane="top0A3_0" departPos="5.10" departSpeed="0.00" departDelay="0.00" arrival="370.00" arrivalLane="A0left0_0" arrivalPos="286.40" arrivalSpeed="14.99" duration="366.00" routeLength="1477.24" waitingTime="247.00" waitingCount="2" stopTime="0.00" timeLoss="266.79" rerouteNo="0" devices="tripinfo_2" vType="DEFAULT_VEHTYPE" speedFactor="1.08" vaporized=""/>
    <tripinfo id="17" depart="61.00" departLane="top2C3_0" departPos="5.10" departSpeed="0.00" departDelay="0.00" arrival="385.00" arrivalLane="A2left2_0" arrivalPos="286.40" arrivalSpeed="12.47" duration="324.00" routeLength="1479.94" waitingTime="184.00" waitingCount="3" stopTime="0.00" timeLoss="208.36" rerouteNo="0" devices="tripinfo_17" vType="DEFAULT_VEHTYPE" speedFactor="0.93" vaporized=""/>
    <tripinfo id="54" depart="233.00" departLane="bottom1B0_0" departPos="5.10" departSpeed="0.00" departDelay="0.00" arrival="388.00" arrivalLane="D0right0_0" arrivalPos="286.40" arrivalSpeed="14.96" duration="155.00" routeLength="1179.77" waitingTime="51.00" waitingCount="3" stopTime="0.00" timeLoss="74.91" rerouteNo="0" devices="tripinfo_54" vType="DEFAULT_VEHTYPE" speedFactor="1.08" vaporized=""/>
    <tripinfo id="30" depart="141.00" departLane="bottom3D0_0" departPos="5.10" departSpeed="0.00" departDelay="0.00" arrival="390.00" arrivalLane="D2right2_0" arrivalPos="286.40" arrivalSpeed="13.90" duration="249.00" routeLength="1177.07" waitingTime="150.00" waitingCount="2" stopTime="0.00" timeLoss="168.53" rerouteNo="0" devices="tripinfo_30" vType="DEFAULT_VEHTYPE" speedFactor="1.07" vaporized=""/>
    <tripinfo id="63" depart="284.00" departLane="bottom1B0_0" departPos="5.10" departSpeed="0.00" departDelay="0.00" arrival="392.00" arrivalLane="D0right0_0" arrivalPos="286.40" arrivalSpeed="12.71" duration="108.00" routeLength="1179.77" waitingTime="2.00" waitingCount="2" stopTime="0.00" timeLoss="18.17" rerouteNo="0" devices="tripinfo_63" vType="DEFAULT_VEHTYPE" speedFactor="0.95" vaporized=""/>
    <tripinfo id="33" depart="157.00" departLane="right0D0_0" departPos="5.10" departSpeed="0.00" departDelay="0.00" arrival="420.00" arrivalLane="A1left1_0" arrivalPos="286.40" arrivalSpeed="13.62" duration="263.00" routeLength="1782.72" waitingTime="121.00" waitingCount="1" stopTime="0.00" timeLoss="138.37" rerouteNo="0" devices="tripinfo_33" vType="DEFAULT_VEHTYPE" speedFactor="1.04" vaporized=""/>
    <tripinfo id="72" depart="333.00" departLane="top0A3_0" departPos="5.10" departSpeed="0.00" departDelay="0.00" arrival="427.00" arrivalLane="A1left1_0" arrivalPos="286.40" arrivalSpeed="14.54" duration="94.00" routeLength="1177.07" waitingTime="1.00" waitingCount="1" stopTime="0.00" timeLoss="14.18" rerouteNo="0" devices="tripinfo_72" vType="DEFAULT_VEHTYPE" speedFactor="1.07" vaporized=""/>
    <tripinfo id="83" depart="357.00" departLane="top0A3_0" departPos="5.10" departSpeed="0.00" departDelay="0.00" arrival="428.00" arrivalLane="A2left2_0" arrivalPos="286.40" arrivalSpeed="13.12" duration="71.00" routeLength="876.90" waitingTime="0.00" waitingCount="0" stopTime="0.00" timeLoss="7.53" rerouteNo="0" devices="tripinfo_83" vType="DEFAULT_VEHTYPE" speedFactor="1.01" vaporized=""/>
    <tripinfo id="75" depart="340.00" departLane="left0A0_0" departPos="5.10" departSpeed="0.00" departDelay="0.00" arrival="435.00" arrivalLane="C0bottom2_0" arrivalPos="286.40" arrivalSpeed="13.48" duration="95.00" routeLength="1177.07" waitingTime="1.00" waitingCount="1" stopTime="0.00" timeLoss="10.48" rerouteNo="0" devices="tripinfo_75" vType="DEFAULT_VEHTYPE" speedFactor="1.01" vaporized=""/>
    <tripinfo id="48" depart="210.00" departLane="bottom2C0_0" departPos="5.10" departSpeed="0.00" departDelay="0.00" arrival="438.00" arrivalLane="A0left0_0" arrivalPos="286.40" arrivalSpeed="13.87" duration="228.00" routeLength="1195.18" waitingTime="127.00" waitingCount="2" stopTime="0.00" timeLoss="143.81" rerouteNo="0" devices="tripinfo_48" vType="DEFAULT_VEHTYPE" speedFactor="1.03" vaporized=""/>
    <tripinfo id="59" depart="261.00" departLane="bottom2C0_0" departPos="5.10" departSpeed="0.00" departDelay="0.00" arrival="444.00" arrivalLane="A0bottom0_0" arrivalPos="286.40" arrivalSpeed="11.34" duration="183.00" routeLength="1197.66" waitingTime="67.00" waitingCount="1" stopTime="0.00" timeLoss="79.73" rerouteNo="0" devices="tripinfo_59" vType="DEFAULT_VEHTYPE" speedFactor="0.85" vaporized=""/>
    <tripinfo id="90" depart="375.00" departLane="left0A0_0" departPos="5.10" departSpeed="0.00" departDelay="0.00" arrival="451.00" arrivalLane="B0bottom1_0" arrivalPos="286.40" arrivalSpeed="14.12" duration="76.00" routeLength="876.90" waitingTime="0.00" waitingCount="0" stopTime="0.00" timeLoss="13.88" rerouteNo="0" devices="tripinfo_90" vType="DEFAULT_VEHTYPE" speedFactor="1.03" vaporized=""/>
    <tripinfo id="92" depart="377.00" departLane="bottom0A0_0" departPos="5.10" departSpeed="0.00" departDelay="0.00" arrival="455.00" arrivalLane="B0bottom1_0" arrivalPos="286.40" arrivalSpeed="13.49" duration="78.00" routeLength="858.56" waitingTime="3.00" waitingCount="1" stopTime="0.00" timeLoss="17.40" rerouteNo="0" devices="tripinfo_92" vType="DEFAULT_VEHTYPE" speedFactor="1.05" vaporized=""/>
    <tripinfo id="87" depart="367.00" departLane="bottom2C0_0" departPos="5.10" departSpeed="0.00" departDelay="0.00" arrival="457.00" arrivalLane="D1right1_0" arrivalPos="286.40" arrivalSpeed="15.97" duration="90.00" routeLength="1179.77" waitingTime="1.00" waitingCount="1" stopTime="0.00" timeLoss="15.99" rerouteNo="0" devices="tripinfo_87" vType="DEFAULT_VEHTYPE" speedFactor="1.17" vaporized=""/>
    <tripinfo id="62" depart="280.00" departLane="left2A2_0" departPos="5.10" departSpeed="0.00" departDelay="0.00" arrival="462.00" arrivalLane="A3left3_1" arrivalPos="286.40" arrivalSpeed="14.94" duration="182.00" routeLength="894.86" waitingTime="109.00" waitingCount="1" stopTime="0.00" timeLoss="125.21" rerouteNo="0" devices="tripinfo_62" vType="DEFAULT_VEHTYPE" speedFactor="1.15" vaporized=""/>
    <tripinfo id="52" depart="225.00" departLane="left2A2_0" departPos="5.10" departSpeed="0.00" departDelay="0.00" arrival="464.00" arrivalLane="A3left3_0" arrivalPos="286.40" arrivalSpeed="13.51" duration="239.00" routeLength="894.86" waitingTime="161.00" waitingCount="1" stopTime="0.00" timeLoss="171.29" rerouteNo="0" devices="tripinfo_52" vType="DEFAULT_VEHTYPE" speedFactor="0.97" vaporized=""/>
    <tripinfo id="74" depart="338.00" departLane="bottom2C0_0" departPos="5.10" departSpeed="0.00" departDelay="0.00" arrival="470.00" arrivalLane="A1left1_0" arrivalPos="286.40" arrivalSpeed="12.22" duration="132.00" routeLength="1495.35" waitingTime="3.00" waitingCount="1" stopTime="0.00" timeLoss="16.63" rerouteNo="0" devices="tripinfo_74" vType="DEFAULT_VEHTYPE" speedFactor="0.94" vaporized=""/>
    <tripinfo id="56" depart="245.00" departLane="bottom2C0_0" departPos="5.10" departSpeed="0.00" departDelay="0.00" arrival="473.00" arrivalLane="D3right3_0" arrivalPos="286.40" arrivalSpeed="11.71" duration="228.00" routeLength="1780.11" waitingTime="52.00" waitingCount="3" stopTime="0.00" timeLoss="76.33" rerouteNo="0" devices="tripinfo_56" vType="DEFAULT_VEHTYPE" speedFactor="0.85" vaporized=""/>
    <tripinfo id="97" depart="400.00" departLane="top1B3_0" departPos="5.10" departSpeed="0.00" departDelay="0.00" arrival="485.00" arrivalLane="A3top0_0" arrivalPos="286.40" arrivalSpeed="12.04" duration="85.00" routeLength="858.56" waitingTime="1.00" waitingCount="1" stopTime="0.00" timeLoss="13.27" rerouteNo="0" devices="tripinfo_97" vType="DEFAULT_VEHTYPE" speedFactor="0.89" vaporized=""/>
    <tripinfo id="85" depart="363.00" departLane="left2A2_0" departPos="5.10" departSpeed="0.00" departDelay="0.00" arrival="490.00" arrivalLane="A3left3_0" arrivalPos="286.40" arrivalSpeed="12.79" duration="127.00" routeLength="894.86" waitingTime="41.00" waitingCount="2" stopTime="0.00" timeLoss="58.79" rerouteNo="0" devices="tripinfo_85" vType="DEFAULT_VEHTYPE" speedFactor="0.97" vaporized=""/>
    <tripinfo id="103" depart="424.00" departLane="top3D3_0" departPos="5.10" departSpeed="0.00" departDelay="0.00" arrival="490.00" arrivalLane="D3right3_0" arrivalPos="286.40" arrivalSpeed="13.08" duration="66.00" routeLength="597.55" waitingTime="12.00" waitingCount="1" stopTime="0.00" timeLoss="19.87" rerouteNo="0" devices="tripinfo_103" vType="DEFAULT_VEHTYPE" speedFactor="0.95" vaporized=""/>
    <tripinfo id="47" depart="209.00" departLane="bottom0A0_0" departPos="5.10" departSpeed="0.00" departDelay="0.00" arrival="508.00" arrivalLane="D2right2_0" arrivalPos="286.40" arrivalSpeed="14.64" duration="299.00" routeLength="2080.28" waitingTime="120.00" waitingCount="5" stopTime="0.00" timeLoss="158.50" rerouteNo="0" devices="tripinfo_47" vType="DEFAULT_VEHTYPE" speedFactor="1.07" vaporized=""/>
    <tripinfo id="29" depart="136.00" departLane="right0D0_0" departPos="5.10" departSpeed="0.00" departDelay="0.00" arrival="530.00" arrivalLane="A2left2_0" arrivalPos="286.40" arrivalSpeed="13.76" duration="394.00" routeLength="2082.76" waitingTime="205.00" waitingCount="5" stopTime="0.00" timeLoss="241.68" rerouteNo="0" devices="tripinfo_29" vType="DEFAULT_VEHTYPE" speedFactor="1.00" vaporized=""/>
    <tripinfo id="78" depart="346.00" departLane="left1A1_0" departPos="5.10" departSpeed="0.00" departDelay="0.00" arrival="549.00" arrivalLane="C0bottom2_1" arrivalPos="286.40" arrivalSpeed="15.27" duration="203.00" routeLength="1479.94" waitingTime="56.00" waitingCount="4" stopTime="0.00" timeLoss="107.78" rerouteNo="0" devices="tripinfo_78" vType="DEFAULT_VEHTYPE" speedFactor="1.14" vaporized=""/>
    <tripinfo id="18" depart="64.00" departLane="top2C3_0" departPos="5.10" departSpeed="0.00" departDelay="2.00" arrival="550.00" arrivalLane="C0bottom2_1" arrivalPos="286.40" arrivalSpeed="15.87" duration="486.00" routeLength="1495.58" waitingTime="362.00" waitingCount="3" stopTime="0.00" timeLoss="398.49" rerouteNo="0" devices="tripinfo_18" vType="DEFAULT_VEHTYPE" speedFactor="1.23" vaporized=""/>
    <tripinfo id="65" depart="287.00" departLane="left0A0_0" departPos="5.10" departSpeed="0.00" departDelay="0.00" arrival="550.00" arrivalLane="A3top0_0" arrivalPos="286.40" arrivalSpeed="12.52" duration="263.00" routeLength="1495.35" waitingTime="126.00" waitingCount="3" stopTime="0.00" timeLoss="148.91" rerouteNo="0" devices="tripinfo_65" vType="DEFAULT_VEHTYPE" speedFactor="0.95" vaporized=""/>
    <tripinfo id="114" depart="467.00" departLane="top3D3_0" departPos="5.10" departSpeed="0.00" departDelay="0.00" arrival="550.00" arrivalLane="C3top2_0" arrivalPos="286.40" arrivalSpeed="11.39" duration="83.00" routeLength="858.56" waitingTime="1.00" waitingCount="1" stopTime="0.00" timeLoss="13.26" rerouteNo="0" devices="tripinfo_114" vType="DEFAULT_VEHTYPE" speedFactor="0.91" vaporized=""/>
    <tripinfo id="25" depart="79.00" departLane="left1A1_0" departPos="5.10" departSpeed="0.00" departDelay="0.00" arrival="553.00" arrivalLane="C0bottom2_0" arrivalPos="286.40" arrivalSpeed="11.24" duration="474.00" routeLength="1479.94" waitingTime="319.00" waitingCount="4" stopTime="0.00" timeLoss="346.12" rerouteNo="0" devices="tripinfo_25" vType="DEFAULT_VEHTYPE" speedFactor="0.84" vaporized=""/>
    <tripinfo id="41" depart="189.00" departLane="right2D2_0" departPos="5.10" departSpeed="0.00" departDelay="0.00" arrival="560.00" arrivalLane="D2right2_0" arrivalPos="286.40" arrivalSpeed="12.46" duration="371.00" routeLength="1748.75" waitingTime="207.00" waitingCount="5" stopTime="0.00" timeLoss="237.58" rerouteNo="0" devices="tripinfo_41" vType="DEFAULT_VEHTYPE" speedFactor="0.96" vaporized=""/>
    <tripinfo id="43" depart="193.00" departLane="right2D2_0" departPos="5.10" departSpeed="0.00" departDelay="0.00" arrival="562.00" arrivalLane="D2right2_0" arrivalPos="286.40" arrivalSpeed="13.49" duration="369.00" routeLength="1748.75" waitingTime="199.00" waitingCount="5" stopTime="0.00" timeLoss="237.06" rerouteNo="0" devices="tripinfo_43" vType="DEFAULT_VEHTYPE" speedFactor="0.97" vaporized=""/>
    <tripinfo id="35" depart="175.00" departLane="top0A3_0" departPos="5.10" departSpeed="0.00" departDelay="0.00" arrival="569.00" arrivalLane="D0right0_0" arrivalPos="286.40" arrivalSpeed="13.26" duration="394.00" routeLength="2395.86" waitingTime="182.00" waitingCount="4" stopTime="0.00" timeLoss="220.34" rerouteNo="0" devices="tripinfo_35" vType="DEFAULT_VEHTYPE" speedFactor="1.00" vaporized=""/>
    <tripinfo id="98" depart="407.00" departLane="right0D0_0" departPos="5.10" departSpeed="0.00" departDelay="0.00" arrival="569.00" arrivalLane="D2right2_0" arrivalPos="286.40" arrivalSpeed="11.68" duration="162.00" routeLength="1161.43" waitingTime="48.00" waitingCount="3" stopTime="0.00" timeLoss="70.61" rerouteNo="0" devices="tripinfo_98" vType="DEFAULT_VEHTYPE" speedFactor="0.93" vaporized=""/>
    <tripinfo id="7" depart="12.00" departLane="bottom1B0_0" departPos="5.10" departSpeed="0.00" departDelay="0.00" arrival="570.00" arrivalLane="C3top2_0" arrivalPos="286.40" arrivalSpeed="12.89" duration="558.00" routeLength="1782.72" waitingTime="393.00" waitingCount="4" stopTime="0.00" timeLoss="423.33" rerouteNo="0" devices="tripinfo_7" vType="DEFAULT_VEHTYPE" speedFactor="0.97" vaporized=""/>
    <tripinfo id="46" depart="207.00" departLane="bottom3D0_0" departPos="5.10" departSpeed="0.00" departDelay="0.00" arrival="572.00" arrivalLane="D3top3_1" arrivalPos="286.40" arrivalSpeed="12.36" duration="365.00" routeLength="1495.58" waitingTime="225.00" waitingCount="4" stopTime="0.00" timeLoss="253.18" rerouteNo="0" devices="tripinfo_46" vType="DEFAULT_VEHTYPE" speedFactor="0.97" vaporized=""/>
    <tripinfo id="31" depart="142.00" departLane="left2A2_0" departPos="5.10" departSpeed="0.00" departDelay="0.00" arrival="573.00" arrivalLane="D3top3_2" arrivalPos="286.40" arrivalSpeed="13.91" duration="431.00" routeLength="1795.52" waitingTime="279.00" waitingCount="3" stopTime="0.00" timeLoss="305.02" rerouteNo="0" devices="tripinfo_31" vType="DEFAULT_VEHTYPE" speedFactor="1.03" vaporized=""/>
    <tripinfo id="60" depart="268.00" departLane="right1D1_0" departPos="5.10" departSpeed="0.00" departDelay="0.00" arrival="574.00" arrivalLane="D3top3_0" arrivalPos="286.40" arrivalSpeed="10.56" duration="306.00" routeLength="1179.77" waitingTime="187.00" waitingCount="2" stopTime="0.00" timeLoss="200.30" rerouteNo="0" devices="tripinfo_60" vType="DEFAULT_VEHTYPE" speedFactor="0.81" vaporized=""/>
    <tripinfo id="126" depart="526.00" departLane="right2D2_0" departPos="5.10" departSpeed="0.00" departDelay="0.00" arrival="605.00" arrivalLane="D3right3_0" arrivalPos="286.40" arrivalSpeed="14.42" duration="79.00" routeLength="858.56" waitingTime="2.00" waitingCount="2" stopTime="0.00" timeLoss="18.89" rerouteNo="0" devices="tripinfo_126" vType="DEFAULT_VEHTYPE" speedFactor="1.06" vaporized=""/>
    <tripinfo id="111" depart="454.00" departLane="bottom2C0_0" departPos="5.10" departSpeed="0.00" departDelay="0.00" arrival="617.00" arrivalLane="C0bottom2_0" arrivalPos="286.40" arrivalSpeed="14.25" duration="163.00" routeLength="1748.75" waitingTime="18.00" waitingCount="4" stopTime="0.00" timeLoss="45.69" rerouteNo="0" devices="tripinfo_111" vType="DEFAULT_VEHTYPE" speedFactor="1.09" vaporized=""/>
    <tripinfo id="44" depart="195.00" departLane="top2C3_0" departPos="5.10" departSpeed="0.00" departDelay="0.00" arrival="623.00" arrivalLane="D3right3_0" arrivalPos="286.40" arrivalSpeed="11.42" duration="428.00" routeLength="895.01" waitingTime="337.00" waitingCount="2" stopTime="0.00" timeLoss="350.68" rerouteNo="0" devices="tripinfo_44" vType="DEFAULT_VEHTYPE" speedFactor="0.84" vaporized=""/>
    <tripinfo id="127" depart="534.00" departLane="right1D1_0" departPos="5.10" departSpeed="0.00" departDelay="0.00" arrival="625.00" arrivalLane="D2right2_0" arrivalPos="286.40" arrivalSpeed="10.73" duration="91.00" routeLength="858.56" waitingTime="1.00" waitingCount="1" stopTime="0.00" timeLoss="13.08" rerouteNo="0" devices="tripinfo_127" vType="DEFAULT_VEHTYPE" speedFactor="0.81" vaporized=""/>
    <tripinfo id="50" depart="218.00" departLane="top3D3_0" departPos="5.10" departSpeed="0.00" departDelay="0.00" arrival="629.00" arrivalLane="D0bottom3_0" arrivalPos="286.40" arrivalSpeed="12.59" duration="411.00" routeLength="1495.58" waitingTime="267.00" waitingCount="3" stopTime="0.00" timeLoss="299.99" rerouteNo="0" devices="tripinfo_50" vType="DEFAULT_VEHTYPE" speedFactor="0.97" vaporized=""/>
    <tripinfo id="94" depart="383.00" departLane="top1B3_0" departPos="5.10" departSpeed="0.00" departDelay="0.00" arrival="629.00" arrivalLane="A2left2_0" arrivalPos="286.40" arrivalSpeed="14.51" duration="246.00" routeLength="1179.77" waitingTime="147.00" waitingCount="2" stopTime="0.00" timeLoss="164.26" rerouteNo="0" devices="tripinfo_94" vType="DEFAULT_VEHTYPE" speedFactor="1.05" vaporized=""/>
    <tripinfo id="21" depart="71.00" departLane="left1A1_0" departPos="5.10" departSpeed="0.00" departDelay="0.00" arrival="633.00" arrivalLane="D0bottom3_0" arrivalPos="286.40" arrivalSpeed="11.89" duration="562.00" routeLength="1780.11" waitingTime="388.00" waitingCount="5" stopTime="0.00" timeLoss="420.75" rerouteNo="0" devices="tripinfo_21" vType="DEFAULT_VEHTYPE" speedFactor="0.92" vaporized=""/>
    <tripinfo id="22" depart="76.00" departLane="bottom1B0_0" departPos="5.10" departSpeed="0.00" departDelay="0.00" arrival="642.00" arrivalLane="A3left3_0" arrivalPos="286.40" arrivalSpeed="12.47" duration="566.00" routeLength="1795.52" waitingTime="395.00" waitingCount="3" stopTime="0.00" timeLoss="421.02" rerouteNo="0" devices="tripinfo_22" vType="DEFAULT_VEHTYPE" speedFactor="0.90" vaporized=""/>
    <tripinfo id="123" depart="519.00" departLane="left2A2_0" departPos="5.10" departSpeed="0.00" departDelay="0.00" arrival="645.00" arrivalLane="A0left0_0" arrivalPos="286.40" arrivalSpeed="13.83" duration="126.00" routeLength="1161.43" waitingTime="18.00" waitingCount="4" stopTime="0.00" timeLoss="47.07" rerouteNo="0" devices="tripinfo_123" vType="DEFAULT_VEHTYPE" speedFactor="1.07" vaporized=""/>
    <tripinfo id="61" depart="269.00" departLane="top0A3_0" departPos="5.10" departSpeed="0.00" departDelay="0.00" arrival="647.00" arrivalLane="D2right2_0" arrivalPos="286.40" arrivalSpeed="14.80" duration="378.00" routeLength="1795.52" waitingTime="236.00" waitingCount="2" stopTime="0.00" timeLoss="258.02" rerouteNo="0" devices="tripinfo_61" vType="DEFAULT_VEHTYPE" speedFactor="1.08" vaporized=""/>
    <tripinfo id="11" depart="36.00" departLane="left1A1_0" departPos="5.10" departSpeed="0.00" departDelay="0.00" arrival="650.00" arrivalLane="B0bottom1_0" arrivalPos="286.40" arrivalSpeed="13.29" duration="614.00" routeLength="1179.77" waitingTime="508.00" waitingCount="3" stopTime="0.00" timeLoss="527.80" rerouteNo="0" devices="tripinfo_11" vType="DEFAULT_VEHTYPE" speedFactor="1.00" vaporized=""/>
    <tripinfo id="70" depart="318.00" departLane="top1B3_0" departPos="5.10" departSpeed="0.00" departDelay="0.00" arrival="650.00" arrivalLane="B3top1_0" arrivalPos="286.40" arrivalSpeed="13.50" duration="332.00" routeLength="1748.75" waitingTime="175.00" waitingCount="3" stopTime="0.00" timeLoss="200.34" rerouteNo="0" devices="tripinfo_70" vType="DEFAULT_VEHTYPE" speedFactor="0.98" vaporized=""/>
    <tripinfo id="68" depart="303.00" departLane="bottom0A0_0" departPos="5.10" departSpeed="0.00" departDelay="0.00" arrival="652.00" arrivalLane="D2right2_0" arrivalPos="286.40" arrivalSpeed="12.65" duration="349.00" routeLength="2080.28" waitingTime="159.00" waitingCount="4" stopTime="0.00" timeLoss="190.92" rerouteNo="0" devices="tripinfo_68" vType="DEFAULT_VEHTYPE" speedFactor="0.96" vaporized=""/>