<?xml version="1.0" encoding="UTF-8"?>

<!-- generated on 2023-08-30 13:43:55 by Eclipse SUMO libsumo Version 1.18.0
<configuration xmlns:xsi="http://www.w3.org/2001/XMLSchema-instance" xsi:noNamespaceSchemaLocation="http://sumo.dlr.de/xsd/libsumoConfiguration.xsd">

    <input>
        <net-file value="/home/stefan/RESCO/./environments/grid4x4/grid4x4.net.xml"/>
        <route-files value="/home/stefan/RESCO/./environments/grid4x4/grid4x4_76.rou.xml"/>
    </input>

    <output>
        <tripinfo-output value="/home/stefan/results/RAINBOW-tr0-grid4x4-0-drq_norm-wait_norm/tripinfo_76.xml"/>
        <tripinfo-output.write-unfinished value="true"/>
    </output>

    <processing>
        <time-to-teleport value="-1"/>
    </processing>

    <report>
        <no-warnings value="True"/>
        <no-step-log value="True"/>
    </report>

    <random_number>
        <random value="true"/>
    </random_number>

</configuration>
-->

<tripinfos xmlns:xsi="http://www.w3.org/2001/XMLSchema-instance" xsi:noNamespaceSchemaLocation="http://sumo.dlr.de/xsd/tripinfo_file.xsd">
    <tripinfo id="13" depart="108.00" departLane="right0D0_0" departPos="5.10" departSpeed="0.00" departDelay="0.00" arrival="197.00" arrivalLane="D1right1_0" arrivalPos="286.40" arrivalSpeed="12.41" duration="89.00" routeLength="858.56" waitingTime="2.00" waitingCount="2" stopTime="0.00" timeLoss="19.77" rerouteNo="0" devices="tripinfo_13" vType="DEFAULT_VEHTYPE" speedFactor="0.91" vaporized=""/>
    <tripinfo id="20" depart="147.00" departLane="bottom3D0_0" departPos="5.10" departSpeed="0.00" departDelay="0.00" arrival="210.00" arrivalLane="D0right0_0" arrivalPos="286.40" arrivalSpeed="11.02" duration="63.00" routeLength="576.73" waitingTime="1.00" waitingCount="1" stopTime="0.00" timeLoss="11.44" rerouteNo="0" devices="tripinfo_20" vType="DEFAULT_VEHTYPE" speedFactor="0.83" vaporized=""/>
    <tripinfo id="12" depart="104.00" departLane="left2A2_0" departPos="5.10" departSpeed="0.00" departDelay="0.00" arrival="214.00" arrivalLane="A3left3_0" arrivalPos="286.40" arrivalSpeed="11.43" duration="110.00" routeLength="894.86" waitingTime="18.00" waitingCount="1" stopTime="0.00" timeLoss="30.87" rerouteNo="0" devices="tripinfo_12" vType="DEFAULT_VEHTYPE" speedFactor="0.83" vaporized=""/>
    <tripinfo id="29" depart="201.00" departLane="bottom0A0_0" departPos="5.10" departSpeed="0.00" departDelay="0.00" arrival="293.00" arrivalLane="B0bottom1_0" arrivalPos="286.40" arrivalSpeed="11.47" duration="92.00" routeLength="858.56" waitingTime="2.00" waitingCount="2" stopTime="0.00" timeLoss="16.44" rerouteNo="0" devices="tripinfo_29" vType="DEFAULT_VEHTYPE" speedFactor="0.84" vaporized=""/>
    <tripinfo id="33" depart="234.00" departLane="right2D2_0" departPos="5.10" departSpeed="0.00" departDelay="0.00" arrival="305.00" arrivalLane="D3right3_0" arrivalPos="286.40" arrivalSpeed="15.04" duration="71.00" routeLength="858.56" waitingTime="1.00" waitingCount="1" stopTime="0.00" timeLoss="14.40" rerouteNo="0" devices="tripinfo_33" vType="DEFAULT_VEHTYPE" speedFactor="1.13" vaporized=""/>
    <tripinfo id="40" depart="259.00" departLane="left1A1_0" departPos="5.10" departSpeed="0.00" departDelay="0.00" arrival="337.00" arrivalLane="A0left0_0" arrivalPos="286.40" arrivalSpeed="12.98" duration="78.00" routeLength="858.56" waitingTime="1.00" waitingCount="1" stopTime="0.00" timeLoss="12.88" rerouteNo="0" devices="tripinfo_40" vType="DEFAULT_VEHTYPE" speedFactor="0.96" vaporized=""/>
    <tripinfo id="41" depart="262.00" departLane="left1A1_0" departPos="5.10" departSpeed="0.00" departDelay="2.00" arrival="344.00" arrivalLane="A0left0_0" arrivalPos="286.40" arrivalSpeed="13.13" duration="82.00" routeLength="858.56" waitingTime="1.00" waitingCount="1" stopTime="0.00" timeLoss="17.49" rerouteNo="0" devices="tripinfo_41" vType="DEFAULT_VEHTYPE" speedFactor="0.98" vaporized=""/>
    <tripinfo id="10" depart="98.00" departLane="top0A3_0" departPos="5.10" departSpeed="0.00" departDelay="0.00" arrival="360.00" arrivalLane="A1left1_0" arrivalPos="286.40" arrivalSpeed="12.09" duration="262.00" routeLength="1177.07" waitingTime="152.00" waitingCount="2" stopTime="0.00" timeLoss="170.57" rerouteNo="0" devices="tripinfo_10" vType="DEFAULT_VEHTYPE" speedFactor="0.94" vaporized=""/>
    <tripinfo id="79" depart="400.00" departLane="right2D2_0" departPos="5.10" departSpeed="0.00" departDelay="0.00" arrival="482.00" arrivalLane="D3right3_0" arrivalPos="286.40" arrivalSpeed="12.28" duration="82.00" routeLength="858.56" waitingTime="1.00" waitingCount="1" stopTime="0.00" timeLoss="13.57" rerouteNo="0" devices="tripinfo_79" vType="DEFAULT_VEHTYPE" speedFactor="0.93" vaporized=""/>
    <tripinfo id="86" depart="419.00" departLane="right0D0_0" departPos="5.10" departSpeed="0.00" departDelay="0.00" arrival="521.00" arrivalLane="D2right2_0" arrivalPos="286.40" arrivalSpeed="14.25" duration="102.00" routeLength="1161.43" waitingTime="2.00" waitingCount="2" stopTime="0.00" timeLoss="21.16" rerouteNo="0" devices="tripinfo_86" vType="DEFAULT_VEHTYPE" speedFactor="1.06" vaporized=""/>
    <tripinfo id="1" depart="31.00" departLane="top1B3_0" departPos="5.10" departSpeed="0.00" departDelay="0.00" arrival="549.00" arrivalLane="A2left2_0" arrivalPos="286.40" arrivalSpeed="12.74" duration="518.00" routeLength="1179.77" waitingTime="413.00" waitingCount="2" stopTime="0.00" timeLoss="432.29" rerouteNo="0" devices="tripinfo_1" vType="DEFAULT_VEHTYPE" speedFactor="1.00" vaporized=""/>
    <tripinfo id="101" depart="483.00" departLane="right0D0_0" departPos="5.10" departSpeed="0.00" departDelay="0.00" arrival="573.00" arrivalLane="D1right1_0" arrivalPos="286.40" arrivalSpeed="11.91" duration="90.00" routeLength="858.56" waitingTime="2.00" waitingCount="2" stopTime="0.00" timeLoss="16.89" rerouteNo="0" devices="tripinfo_101" vType="DEFAULT_VEHTYPE" speedFactor="0.87" vaporized=""/>
    <tripinfo id="51" depart="290.00" departLane="right2D2_0" departPos="5.10" departSpeed="0.00" departDelay="0.00" arrival="574.00" arrivalLane="D1right1_1" arrivalPos="286.40" arrivalSpeed="12.14" duration="284.00" routeLength="894.86" waitingTime="198.00" waitingCount="1" stopTime="0.00" timeLoss="211.64" rerouteNo="0" devices="tripinfo_51" vType="DEFAULT_VEHTYPE" speedFactor="0.91" vaporized=""/>
    <tripinfo id="0" depart="12.00" departLane="right2D2_0" departPos="5.10" departSpeed="0.00" departDelay="0.00" arrival="613.00" arrivalLane="B3top1_0" arrivalPos="286.40" arrivalSpeed="10.82" duration="601.00" routeLength="1479.94" waitingTime="453.00" waitingCount="3" stopTime="0.00" timeLoss="476.64" rerouteNo="0" devices="tripinfo_0" vType="DEFAULT_VEHTYPE" speedFactor="0.86" vaporized=""/>
    <tripinfo id="117" depart="552.00" departLane="right2D2_0" departPos="5.10" departSpeed="0.00" departDelay="0.00" arrival="628.00" arrivalLane="D1right1_0" arrivalPos="286.40" arrivalSpeed="12.89" duration="76.00" routeLength="894.86" waitingTime="0.00" waitingCount="0" stopTime="0.00" timeLoss="6.93" rerouteNo="0" devices="tripinfo_117" vType="DEFAULT_VEHTYPE" speedFactor="0.95" vaporized=""/>
    <tripinfo id="66" depart="338.00" departLane="bottom1B0_0" departPos="5.10" departSpeed="0.00" departDelay="0.00" arrival="639.00" arrivalLane="B0bottom1_0" arrivalPos="286.40" arrivalSpeed="14.45" duration="301.00" routeLength="1748.75" waitingTime="150.00" waitingCount="4" stopTime="0.00" timeLoss="177.31" rerouteNo="0" devices="tripinfo_66" vType="DEFAULT_VEHTYPE" speedFactor="1.04" vaporized=""/>
    <tripinfo id="53" depart="298.00" departLane="left3A3_0" departPos="5.10" departSpeed="0.00" departDelay="0.00" arrival="641.00" arrivalLane="B3top1_1" arrivalPos="286.40" arrivalSpeed="14.10" duration="343.00" routeLength="897.72" waitingTime="262.00" waitingCount="2" stopTime="0.00" timeLoss="278.90" rerouteNo="0" devices="tripinfo_53" vType="DEFAULT_VEHTYPE" speedFactor="1.02" vaporized=""/>
    <tripinfo id="43" depart="268.00" departLane="left0A0_0" departPos="5.10" departSpeed="0.00" departDelay="0.00" arrival="642.00" arrivalLane="C0bottom2_0" arrivalPos="286.40" arrivalSpeed="14.15" duration="374.00" routeLength="1177.07" waitingTime="275.00" waitingCount="1" stopTime="0.00" timeLoss="290.59" rerouteNo="0" devices="tripinfo_43" vType="DEFAULT_VEHTYPE" speedFactor="1.02" vaporized=""/>
    <tripinfo id="50" depart="288.00" departLane="top0A3_0" departPos="5.10" departSpeed="0.00" departDelay="0.00" arrival="642.00" arrivalLane="B3top1_0" arrivalPos="286.40" arrivalSpeed="11.50" duration="354.00" routeLength="894.86" waitingTime="271.00" waitingCount="1" stopTime="0.00" timeLoss="282.04" rerouteNo="0" devices="tripinfo_50" vType="DEFAULT_VEHTYPE" speedFactor="0.92" vaporized=""/>
    <tripinfo id="48" depart="281.00" departLane="bottom0A0_0" departPos="5.10" departSpeed="0.00" departDelay="0.00" arrival="645.00" arrivalLane="C0bottom2_0" arrivalPos="286.40" arrivalSpeed="14.52" duration="364.00" routeLength="1161.43" waitingTime="262.00" waitingCount="2" stopTime="0.00" timeLoss="281.76" rerouteNo="0" devices="tripinfo_48" vType="DEFAULT_VEHTYPE" speedFactor="1.05" vaporized=""/>
    <tripinfo id="103" depart="504.00" departLane="left1A1_0" departPos="5.10" departSpeed="0.00" departDelay="0.00" arrival="659.00" arrivalLane="A0bottom0_0" arrivalPos="286.40" arrivalSpeed="12.97" duration="155.00" routeLength="879.60" waitingTime="77.00" waitingCount="1" stopTime="0.00" timeLoss="89.21" rerouteNo="0" devices="tripinfo_103" vType="DEFAULT_VEHTYPE" speedFactor="0.97" vaporized=""/>
    <tripinfo id="25" depart="179.00" departLane="left1A1_0" departPos="5.10" departSpeed="0.00" departDelay="0.00" arrival="709.00" arrivalLane="D1right1_0" arrivalPos="286.40" arrivalSpeed="13.47" duration="530.00" routeLength="1495.58" waitingTime="401.00" waitingCount="2" stopTime="0.00" timeLoss="420.55" rerouteNo="0" devices="tripinfo_25" vType="DEFAULT_VEHTYPE" speedFactor="0.99" vaporized=""/>
    <tripinfo id="135" depart="614.00" departLane="bottom0A0_0" departPos="5.10" departSpeed="0.00" departDelay="0.00" arrival="711.00" arrivalLane="C0bottom2_0" arrivalPos="286.40" arrivalSpeed="14.00" duration="97.00" routeLength="1161.43" waitingTime="1.00" waitingCount="1" stopTime="0.00" timeLoss="15.29" rerouteNo="0" devices="tripinfo_135" vType="DEFAULT_VEHTYPE" speedFactor="1.04" vaporized=""/>
    <tripinfo id="114" depart="544.00" departLane="right2D2_0" departPos="5.10" departSpeed="0.00" departDelay="0.00" arrival="729.00" arrivalLane="D0right0_0" arrivalPos="286.40" arrivalSpeed="11.95" duration="185.00" routeLength="1197.66" waitingTime="72.00" waitingCount="1" stopTime="0.00" timeLoss="84.45" rerouteNo="0" devices="tripinfo_114" vType="DEFAULT_VEHTYPE" speedFactor="0.88" vaporized=""/>
    <tripinfo id="78" depart="399.00" departLane="top3D3_0" departPos="5.10" departSpeed="0.00" departDelay="0.00" arrival="738.00" arrivalLane="D2right2_0" arrivalPos="286.40" arrivalSpeed="14.38" duration="339.00" routeLength="897.72" waitingTime="260.00" waitingCount="2" stopTime="0.00" timeLoss="276.80" rerouteNo="0" devices="tripinfo_78" vType="DEFAULT_VEHTYPE" speedFactor="1.05" vaporized=""/>
    <tripinfo id="46" depart="276.00" departLane="right2D2_0" departPos="5.10" departSpeed="0.00" departDelay="0.00" arrival="745.00" arrivalLane="D2right2_0" arrivalPos="286.40" arrivalSpeed="12.18" duration="469.00" routeLength="1748.75" waitingTime="296.00" waitingCount="4" stopTime="0.00" timeLoss="325.81" rerouteNo="0" devices="tripinfo_46" vType="DEFAULT_VEHTYPE" speedFactor="0.90" vaporized=""/>
    <tripinfo id="158" depart="684.00" departLane="left3A3_0" departPos="5.10" departSpeed="0.00" departDelay="0.00" arrival="761.00" arrivalLane="A2left2_0" arrivalPos="286.40" arrivalSpeed="14.93" duration="77.00" routeLength="858.56" waitingTime="2.00" waitingCount="2" stopTime="0.00" timeLoss="18.96" rerouteNo="0" devices="tripinfo_158" vType="DEFAULT_VEHTYPE" speedFactor="1.09" vaporized=""/>
    <tripinfo id="15" depart="120.00" departLane="right1D1_0" departPos="5.10" departSpeed="0.00" departDelay="0.00" arrival="803.00" arrivalLane="B0bottom1_0" arrivalPos="286.40" arrivalSpeed="10.81" duration="683.00" routeLength="1495.35" waitingTime="538.00" waitingCount="2" stopTime="0.00" timeLoss="557.07" rerouteNo="0" devices="tripinfo_15" vType="DEFAULT_VEHTYPE" speedFactor="0.86" vaporized=""/>
    <tripinfo id="68" depart="344.00" departLane="bottom2C0_0" departPos="5.10" departSpeed="0.00" departDelay="0.00" arrival="828.00" arrivalLane="B3top1_0" arrivalPos="286.40" arrivalSpeed="14.99" duration="484.00" routeLength="1782.59" waitingTime="335.00" waitingCount="3" stopTime="0.00" timeLoss="364.05" rerouteNo="0" devices="tripinfo_68" vType="DEFAULT_VEHTYPE" speedFactor="1.08" vaporized=""/>
    <tripinfo id="2" depart="33.00" departLane="left2A2_0" departPos="5.10" departSpeed="0.00" departDelay="0.00" arrival="851.00" arrivalLane="A0left0_0" arrivalPos="286.40" arrivalSpeed="12.07" duration="818.00" routeLength="1161.43" waitingTime="704.00" waitingCount="3" stopTime="0.00" timeLoss="725.31" rerouteNo="0" devices="tripinfo_2" vType="DEFAULT_VEHTYPE" speedFactor="0.92" vaporized=""/>
    <tripinfo id="149" depart="661.00" departLane="top1B3_0" departPos="5.10" departSpeed="0.00" departDelay="0.00" arrival="879.00" arrivalLane="A2left2_0" arrivalPos="286.40" arrivalSpeed="12.88" duration="218.00" routeLength="1179.77" waitingTime="120.00" waitingCount="1" stopTime="0.00" timeLoss="132.40" rerouteNo="0" devices="tripinfo_149" vType="DEFAULT_VEHTYPE" speedFactor="1.01" vaporized=""/>
    <tripinfo id="44" depart="272.00" departLane="right1D1_0" departPos="5.10" departSpeed="0.00" departDelay="0.00" arrival="880.00" arrivalLane="D0right0_0" arrivalPos="286.40" arrivalSpeed="14.81" duration="608.00" routeLength="894.86" waitingTime="534.00" waitingCount="1" stopTime="0.00" timeLoss="546.06" rerouteNo="0" devices="tripinfo_44" vType="DEFAULT_VEHTYPE" speedFactor="1.07" vaporized=""/>
    <tripinfo id="72" depart="379.00" departLane="top3D3_0" departPos="5.10" departSpeed="0.00" departDelay="0.00" arrival="910.00" arrivalLane="D3top3_0" arrivalPos="286.40" arrivalSpeed="12.16" duration="531.00" routeLength="1748.75" waitingTime="366.00" waitingCount="4" stopTime="0.00" timeLoss="397.90" rerouteNo="0" devices="tripinfo_72" vType="DEFAULT_VEHTYPE" speedFactor="0.97" vaporized=""/>
    <tripinfo id="196" depart="829.00" departLane="right1D1_0" departPos="5.10" departSpeed="0.00" departDelay="0.00" arrival="915.00" arrivalLane="D0right0_0" arrivalPos="286.40" arrivalSpeed="10.54" duration="86.00" routeLength="894.86" waitingTime="0.00" waitingCount="0" stopTime="0.00" timeLoss="7.94" rerouteNo="0" devices="tripinfo_196" vType="DEFAULT_VEHTYPE" speedFactor="0.85" vaporized=""/>
    <tripinfo id="176" depart="759.00" departLane="left2A2_0" departPos="5.10" departSpeed="0.00" departDelay="0.00" arrival="930.00" arrivalLane="B3top1_0" arrivalPos="286.40" arrivalSpeed="12.68" duration="171.00" routeLength="1195.18" waitingTime="69.00" waitingCount="1" stopTime="0.00" timeLoss="82.85" rerouteNo="0" devices="tripinfo_176" vType="DEFAULT_VEHTYPE" speedFactor="0.99" vaporized=""/>
    <tripinfo id="204" depart="859.00" departLane="left1A1_0" departPos="5.10" departSpeed="0.00" departDelay="0.00" arrival="941.00" arrivalLane="A0left0_0" arrivalPos="286.40" arrivalSpeed="13.28" duration="82.00" routeLength="858.56" waitingTime="2.00" waitingCount="2" stopTime="0.00" timeLoss="17.33" rerouteNo="0" devices="tripinfo_204" vType="DEFAULT_VEHTYPE" speedFactor="0.97" vaporized=""/>
    <tripinfo id="192" depart="817.00" departLane="left1A1_0" departPos="5.10" departSpeed="0.00" departDelay="0.00" arrival="947.00" arrivalLane="B3top1_0" arrivalPos="286.40" arrivalSpeed="15.24" duration="130.00" routeLength="1495.35" waitingTime="20.00" waitingCount="1" stopTime="0.00" timeLoss="32.79" rerouteNo="0" devices="tripinfo_192" vType="DEFAULT_VEHTYPE" speedFactor="1.12" vaporized=""/>
    <tripinfo id="19" depart="145.00" departLane="right1D1_0" departPos="5.10" departSpeed="0.00" departDelay="0.00" arrival="957.00" arrivalLane="A3top0_0" arrivalPos="286.40" arrivalSpeed="15.58" duration="812.00" routeLength="2080.28" waitingTime="648.00" waitingCount="4" stopTime="0.00" timeLoss="680.04" rerouteNo="0" devices="tripinfo_19" vType="DEFAULT_VEHTYPE" speedFactor="1.14" vaporized=""/>
    <tripinfo id="58" depart="312.00" departLane="bottom1B0_0" departPos="5.10" departSpeed="0.00" departDelay="0.00" arrival="958.00" arrivalLane="A3top0_0" arrivalPos="286.40" arrivalSpeed="16.66" duration="646.00" routeLength="1782.59" waitingTime="508.00" waitingCount="3" stopTime="0.00" timeLoss="538.38" rerouteNo="0" devices="tripinfo_58" vType="DEFAULT_VEHTYPE" speedFactor="1.20" vaporized=""/>
    <tripinfo id="120" depart="555.00" departLane="top1B3_0" departPos="5.10" departSpeed="0.00" departDelay="0.00" arrival="964.00" arrivalLane="C3top2_0" arrivalPos="286.40" arrivalSpeed="10.47" duration="409.00" routeLength="894.86" waitingTime="316.00" waitingCount="2" stopTime="0.00" timeLoss="330.82" rerouteNo="0" devices="tripinfo_120" vType="DEFAULT_VEHTYPE" speedFactor="0.84" vaporized=""/>
    <tripinfo id="215" depart="909.00" departLane="right0D0_0" departPos="5.10" departSpeed="0.00" departDelay="0.00" arrival="991.00" arrivalLane="D1right1_0" arrivalPos="286.40" arrivalSpeed="13.23" duration="82.00" routeLength="858.56" waitingTime="2.00" waitingCount="2" stopTime="0.00" timeLoss="18.65" rerouteNo="0" devices="tripinfo_215" vType="DEFAULT_VEHTYPE" speedFactor="1.00" vaporized=""/>
    <tripinfo id="71" depart="373.00" departLane="bottom1B0_0" departPos="5.10" departSpeed="0.00" departDelay="0.00" arrival="999.00" arrivalLane="A0bottom0_0" arrivalPos="286.40" arrivalSpeed="13.43" duration="626.00" routeLength="894.86" waitingTime="548.00" waitingCount="1" stopTime="0.00" timeLoss="560.84" rerouteNo="0" devices="tripinfo_71" vType="DEFAULT_VEHTYPE" speedFactor="1.01" vaporized=""/>
    <tripinfo id="65" depart="337.00" departLane="bottom2C0_0" departPos="5.10" departSpeed="0.00" departDelay="0.00" arrival="1001.00" arrivalLane="A0bottom0_0" arrivalPos="286.40" arrivalSpeed="13.84" duration="664.00" routeLength="1197.66" waitingTime="555.00" waitingCount="3" stopTime="0.00" timeLoss="577.97" rerouteNo="0" devices="tripinfo_65" vType="DEFAULT_VEHTYPE" speedFactor="1.02" vaporized=""/>
    <tripinfo id="73" depart="381.00" departLane="bottom2C0_0" departPos="5.10" departSpeed="0.00" departDelay="0.00" arrival="1002.00" arrivalLane="A0bottom0_1" arrivalPos="286.40" arrivalSpeed="14.06" duration="621.00" routeLength="1197.66" waitingTime="512.00" waitingCount="3" stopTime="0.00" timeLoss="540.05" rerouteNo="0" devices="tripinfo_73" vType="DEFAULT_VEHTYPE" speedFactor="1.08" vaporized=""/>
    <tripinfo id="88" depart="426.00" departLane="bottom2C0_0" departPos="5.10" departSpeed="0.00" departDelay="0.00" arrival="1002.00" arrivalLane="A0left0_0" arrivalPos="286.40" arrivalSpeed="11.70" duration="576.00" routeLength="1195.18" waitingTime="455.00" waitingCount="3" stopTime="0.00" timeLoss="476.64" rerouteNo="0" devices="tripinfo_88" vType="DEFAULT_VEHTYPE" speedFactor="0.87" vaporized=""/>
    <tripinfo id="128" depart="597.00" departLane="bottom1B0_0" departPos="5.10" departSpeed="0.00" departDelay="0.00" arrival="1008.00" arrivalLane="A0bottom0_0" arrivalPos="286.40" arrivalSpeed="11.28" duration="411.00" routeLength="894.86" waitingTime="320.00" waitingCount="2" stopTime="0.00" timeLoss="338.38" rerouteNo="0" devices="tripinfo_128" vType="DEFAULT_VEHTYPE" speedFactor="0.90" vaporized=""/>
    <tripinfo id="232" depart="961.00" departLane="right2D2_0" departPos="5.10" departSpeed="0.00" departDelay="0.00" arrival="1046.00" arrivalLane="D3right3_0" arrivalPos="286.40" arrivalSpeed="12.31" duration="85.00" routeLength="858.56" waitingTime="2.00" waitingCount="2" stopTime="0.00" timeLoss="19.11" rerouteNo="0" devices="tripinfo_232" vType="DEFAULT_VEHTYPE" speedFactor="0.96" vaporized=""/>
    <tripinfo id="161" depart="704.00" departLane="bottom2C0_0" departPos="5.10" departSpeed="0.00" departDelay="0.00" arrival="1050.00" arrivalLane="B0bottom1_0" arrivalPos="286.40" arrivalSpeed="12.24" duration="346.00" routeLength="894.86" waitingTime="259.00" waitingCount="2" stopTime="0.00" timeLoss="277.91" rerouteNo="0" devices="tripinfo_161" vType="DEFAULT_VEHTYPE" speedFactor="0.96" vaporized=""/>
    <tripinfo id="37" depart="245.00" departLane="right2D2_0" departPos="5.10" departSpeed="0.00" departDelay="0.00" arrival="1074.00" arrivalLane="A0left0_1" arrivalPos="286.40" arrivalSpeed="15.05" duration="829.00" routeLength="2080.05" waitingTime="649.00" waitingCount="3" stopTime="0.00" timeLoss="690.13" rerouteNo="0" devices="tripinfo_37" vType="DEFAULT_VEHTYPE" speedFactor="1.09" vaporized=""/>
    <tripinfo id="5" depart="53.00" departLane="right2D2_0" departPos="5.10" departSpeed="0.00" departDelay="0.00" arrival="1076.00" arrivalLane="A0left0_0" arrivalPos="286.40" arrivalSpeed="11.61" duration="1023.00" routeLength="2080.05" waitingTime="822.00" waitingCount="4" stopTime="0.00" timeLoss="856.19" rerouteNo="0" devices="tripinfo_5" vType="DEFAULT_VEHTYPE" speedFactor="0.91" vaporized=""/>
    <tripinfo id="160" depart="700.00" departLane="bottom2C0_0" departPos="5.10" departSpeed="0.00" departDelay="0.00" arrival="1077.00" arrivalLane="A0bottom0_0" arrivalPos="286.40" arrivalSpeed="12.68" duration="377.00" routeLength="1197.66" waitingTime="270.00" waitingCount="2" stopTime="0.00" timeLoss="289.05" rerouteNo="0" devices="tripinfo_160" vType="DEFAULT_VEHTYPE" speedFactor="0.99" vaporized=""/>
    <tripinfo id="252" depart="1007.00" departLane="right3D3_0" departPos="5.10" departSpeed="0.00" departDelay="0.00" arrival="1101.00" arrivalLane="C3top2_0" arrivalPos="286.40" arrivalSpeed="9.23" duration="94.00" routeLength="876.90" waitingTime="0.00" waitingCount="0" stopTime="0.00" timeLoss="8.62" rerouteNo="0" devices="tripinfo_252" vType="DEFAULT_VEHTYPE" speedFactor="0.75" vaporized=""/>
    <tripinfo id="186" depart="808.00" departLane="top1B3_0" departPos="5.10" departSpeed="0.00" departDelay="0.00" arrival="1125.00" arrivalLane="A2left2_0" arrivalPos="286.40" arrivalSpeed="15.42" duration="317.00" routeLength="1179.77" waitingTime="226.00" waitingCount="2" stopTime="0.00" timeLoss="244.86" rerouteNo="0" devices="tripinfo_186" vType="DEFAULT_VEHTYPE" speedFactor="1.19" vaporized=""/>
    <tripinfo id="236" depart="972.00" departLane="left2A2_0" departPos="5.10" departSpeed="0.00" departDelay="0.00" arrival="1126.00" arrivalLane="A0left0_0" arrivalPos="286.40" arrivalSpeed="12.82" duration="154.00" routeLength="1161.43" waitingTime="42.00" waitingCount="3" stopTime="0.00" timeLoss="65.20" rerouteNo="0" devices="tripinfo_236" vType="DEFAULT_VEHTYPE" speedFactor="0.96" vaporized=""/>
    <tripinfo id="275" depart="1076.00" departLane="top0A3_0" departPos="5.10" departSpeed="0.00" departDelay="0.00" arrival="1126.00" arrivalLane="A3left3_0" arrivalPos="286.40" arrivalSpeed="13.55" duration="50.00" routeLength="576.73" waitingTime="0.00" waitingCount="0" stopTime="0.00" timeLoss="6.79" rerouteNo="0" devices="tripinfo_275" vType="DEFAULT_VEHTYPE" speedFactor="0.98" vaporized=""/>
    <tripinfo id="108" depart="526.00" departLane="left2A2_0" departPos="5.10" departSpeed="0.00" departDelay="0.00" arrival="1131.00" arrivalLane="A0bottom0_0" arrivalPos="286.40" arrivalSpeed="11.73" duration="605.00" routeLength="1179.77" waitingTime="488.00" waitingCount="3" stopTime="0.00" timeLoss="510.47" rerouteNo="0" devices="tripinfo_108" vType="DEFAULT_VEHTYPE" speedFactor="0.90" vaporized=""/>
    <tripinfo id="31" depart="218.00" departLane="top1B3_0" departPos="5.10" departSpeed="0.00" departDelay="0.00" arrival="1137.00" arrivalLane="A0left0_0" arrivalPos="286.40" arrivalSpeed="13.10" duration="919.00" routeLength="1780.11" waitingTime="765.00" waitingCount="4" stopTime="0.00" timeLoss="792.18" rerouteNo="0" devices="tripinfo_31" vType="DEFAULT_VEHTYPE" speedFactor="1.01" vaporized=""/>
    <tripinfo id="197" depart="832.00" departLane="right1D1_0" departPos="5.10" departSpeed="0.00" departDelay="1.00" arrival="1152.00" arrivalLane="D1right1_0" arrivalPos="286.40" arrivalSpeed="11.69" duration="320.00" routeLength="1748.75" waitingTime="149.00" waitingCount="3" stopTime="0.00" timeLoss="176.12" rerouteNo="0" devices="tripinfo_197" vType="DEFAULT_VEHTYPE" speedFactor="0.89" vaporized=""/>
    <tripinfo id="272" depart="1068.00" departLane="right0D0_0" departPos="5.10" departSpeed="0.00" departDelay="0.00" arrival="1163.00" arrivalLane="D1right1_0" arrivalPos="286.40" arrivalSpeed="10.25" duration="95.00" routeLength="858.56" waitingTime="2.00" waitingCount="2" stopTime="0.00" timeLoss="17.24" rerouteNo="0" devices="tripinfo_272" vType="DEFAULT_VEHTYPE" speedFactor="0.81" vaporized=""/>
    <tripinfo id="231" depart="960.00" departLane="top1B3_0" departPos="5.10" departSpeed="0.00" departDelay="0.00" arrival="1179.00" arrivalLane="A3left3_0" arrivalPos="286.40" arrivalSpeed="13.89" duration="219.00" routeLength="879.60" waitingTime="141.00" waitingCount="1" stopTime="0.00" timeLoss="155.29" rerouteNo="0" devices="tripinfo_231" vType="DEFAULT_VEHTYPE" speedFactor="1.01" vaporized=""/>
    <tripinfo id="235" depart="966.00" departLane="top1B3_0" departPos="5.10" departSpeed="0.00" departDelay="0.00" arrival="1180.00" arrivalLane="A3left3_1" arrivalPos="286.40" arrivalSpeed="14.09" duration="214.00" routeLength="879.60" waitingTime="139.00" waitingCount="1" stopTime="0.00" timeLoss="152.36" rerouteNo="0" devices="tripinfo_235" vType="DEFAULT_VEHTYPE" speedFactor="1.04" vaporized=""/>
    <tripinfo id="125" depart="582.00" departLane="right0D0_0" departPos="5.10" departSpeed="0.00" departDelay="0.00" arrival="1185.00" arrivalLane="A1left1_0" arrivalPos="286.40" arrivalSpeed="16.41" duration="603.00" routeLength="1782.72" waitingTime="466.00" waitingCount="4" stopTime="0.00" timeLoss="499.29" rerouteNo="0" devices="tripinfo_125" vType="DEFAULT_VEHTYPE" speedFactor="1.26" vaporized=""/>
    <tripinfo id="304" depart="1146.00" departLane="bottom1B0_0" departPos="5.10" departSpeed="0.00" departDelay="0.00" arrival="1213.00" arrivalLane="A0left0_0" arrivalPos="286.40" arrivalSpeed="13.76" duration="67.00" routeLength="895.01" waitingTime="0.00" waitingCount="0" stopTime="0.00" timeLoss="6.67" rerouteNo="0" devices="tripinfo_304" vType="DEFAULT_VEHTYPE" speedFactor="1.08" vaporized=""/>
    <tripinfo id="307" depart="1153.00" departLane="right2D2_0" departPos="5.10" departSpeed="0.00" departDelay="0.00" arrival="1237.00" arrivalLane="D3right3_0" arrivalPos="286.40" arrivalSpeed="12.57" duration="84.00" routeLength="858.56" waitingTime="2.00" waitingCount="2" stopTime="0.00" timeLoss="18.93" rerouteNo="0" devices="tripinfo_307" vType="DEFAULT_VEHTYPE" speedFactor="0.98" vaporized=""/>
    <tripinfo id="241" depart="978.00" departLane="right1D1_0" departPos="5.10" departSpeed="0.00" departDelay="0.00" arrival="1243.00" arrivalLane="D3right3_0" arrivalPos="286.40" arrivalSpeed="12.66" duration="265.00" routeLength="1161.43" waitingTime="157.00" waitingCount="2" stopTime="0.00" timeLoss="176.01" rerouteNo="0" devices="tripinfo_241" vType="DEFAULT_VEHTYPE" speedFactor="0.96" vaporized=""/>
    <tripinfo id="217" depart="911.00" departLane="right1D1_0" departPos="5.10" departSpeed="0.00" departDelay="0.00" arrival="1256.00" arrivalLane="A0left0_0" arrivalPos="286.40" arrivalSpeed="15.19" duration="345.00" routeLength="1782.59" waitingTime="204.00" waitingCount="3" stopTime="0.00" timeLoss="230.07" rerouteNo="0" devices="tripinfo_217" vType="DEFAULT_VEHTYPE" speedFactor="1.13" vaporized=""/>
    <tripinfo id="336" depart="1210.00" departLane="right3D3_0" departPos="5.10" departSpeed="0.00" departDelay="0.00" arrival="1257.00" arrivalLane="D3top3_0" arrivalPos="286.40" arrivalSpeed="14.01" duration="47.00" routeLength="576.73" waitingTime="0.00" waitingCount="0" stopTime="0.00" timeLoss="7.09" rerouteNo="0" devices="tripinfo_336" vType="DEFAULT_VEHTYPE" speedFactor="1.07" vaporized=""/>
    <tripinfo id="319" depart="1182.00" departLane="left2A2_0" departPos="5.10" departSpeed="0.00" departDelay="0.00" arrival="1260.00" arrivalLane="A1left1_0" arrivalPos="286.40" arrivalSpeed="14.89" duration="78.00" routeLength="858.56" waitingTime="2.00" waitingCount="2" stopTime="0.00" timeLoss="18.81" rerouteNo="0" devices="tripinfo_319" vType="DEFAULT_VEHTYPE" speedFactor="1.07" vaporized=""/>
    <tripinfo id="184" depart="799.00" departLane="bottom3D0_0" departPos="5.10" departSpeed="0.00" departDelay="0.00" arrival="1265.00" arrivalLane="A0left0_0" arrivalPos="286.40" arrivalSpeed="12.58" duration="466.00" routeLength="1495.35" waitingTime="333.00" waitingCount="2" stopTime="0.00" timeLoss="353.75" rerouteNo="0" devices="tripinfo_184" vType="DEFAULT_VEHTYPE" speedFactor="0.96" vaporized=""/>
    <tripinfo id="258" depart="1028.00" departLane="bottom3D0_0" departPos="5.10" departSpeed="0.00" departDelay="0.00" arrival="1267.00" arrivalLane="A0bottom0_0" arrivalPos="286.40" arrivalSpeed="12.64" duration="239.00" routeLength="1497.83" waitingTime="107.00" waitingCount="2" stopTime="0.00" timeLoss="128.71" rerouteNo="0" devices="tripinfo_258" vType="DEFAULT_VEHTYPE" speedFactor="0.99" vaporized=""/>
    <tripinfo id="253" depart="1007.00" departLane="right2D2_0" departPos="5.10" departSpeed="0.00" departDelay="0.00" arrival="1281.00" arrivalLane="D1right1_0" arrivalPos="286.40" arrivalSpeed="14.12" duration="274.00" routeLength="894.86" waitingTime="199.00" waitingCount="1" stopTime="0.00" timeLoss="210.22" rerouteNo="0" devices="tripinfo_253" vType="DEFAULT_VEHTYPE" speedFactor="1.03" vaporized=""/>