<?xml version="1.0" encoding="UTF-8"?>

<!-- generated on 2023-08-30 13:32:53 by Eclipse SUMO libsumo Version 1.18.0
<configuration xmlns:xsi="http://www.w3.org/2001/XMLSchema-instance" xsi:noNamespaceSchemaLocation="http://sumo.dlr.de/xsd/libsumoConfiguration.xsd">

    <input>
        <net-file value="/home/stefan/RESCO/./environments/grid4x4/grid4x4.net.xml"/>
        <route-files value="/home/stefan/RESCO/./environments/grid4x4/grid4x4_60.rou.xml"/>
    </input>

    <output>
        <tripinfo-output value="/home/stefan/results/RAINBOW-tr0-grid4x4-0-drq_norm-wait_norm/tripinfo_60.xml"/>
        <tripinfo-output.write-unfinished value="true"/>
    </output>

    <processing>
        <time-to-teleport value="-1"/>
    </processing>

    <report>
        <no-warnings value="True"/>
        <no-step-log value="True"/>
    </report>

    <random_number>
        <random value="true"/>
    </random_number>

</configuration>
-->

<tripinfos xmlns:xsi="http://www.w3.org/2001/XMLSchema-instance" xsi:noNamespaceSchemaLocation="http://sumo.dlr.de/xsd/tripinfo_file.xsd">
    <tripinfo id="5" depart="46.00" departLane="bottom3D0_0" departPos="5.10" departSpeed="0.00" departDelay="0.00" arrival="116.00" arrivalLane="C0bottom2_0" arrivalPos="286.40" arrivalSpeed="14.56" duration="70.00" routeLength="894.86" waitingTime="0.00" waitingCount="0" stopTime="0.00" timeLoss="8.30" rerouteNo="0" devices="tripinfo_5" vType="DEFAULT_VEHTYPE" speedFactor="1.07" vaporized=""/>
    <tripinfo id="1" depart="15.00" departLane="left1A1_0" departPos="5.10" departSpeed="0.00" departDelay="0.00" arrival="168.00" arrivalLane="A1left1_0" arrivalPos="286.40" arrivalSpeed="14.48" duration="153.00" routeLength="1748.75" waitingTime="7.00" waitingCount="3" stopTime="0.00" timeLoss="35.10" rerouteNo="0" devices="tripinfo_1" vType="DEFAULT_VEHTYPE" speedFactor="1.09" vaporized=""/>
    <tripinfo id="11" depart="65.00" departLane="bottom1B0_0" departPos="5.10" departSpeed="0.00" departDelay="0.00" arrival="183.00" arrivalLane="A1left1_0" arrivalPos="286.40" arrivalSpeed="13.40" duration="118.00" routeLength="1195.18" waitingTime="9.00" waitingCount="1" stopTime="0.00" timeLoss="28.36" rerouteNo="0" devices="tripinfo_11" vType="DEFAULT_VEHTYPE" speedFactor="0.97" vaporized=""/>
    <tripinfo id="12" depart="73.00" departLane="right1D1_0" departPos="5.10" departSpeed="0.00" departDelay="0.00" arrival="183.00" arrivalLane="D3right3_0" arrivalPos="286.40" arrivalSpeed="12.75" duration="110.00" routeLength="1161.43" waitingTime="2.00" waitingCount="2" stopTime="0.00" timeLoss="21.32" rerouteNo="0" devices="tripinfo_12" vType="DEFAULT_VEHTYPE" speedFactor="0.96" vaporized=""/>
    <tripinfo id="23" depart="94.00" departLane="bottom2C0_0" departPos="5.10" departSpeed="0.00" departDelay="0.00" arrival="191.00" arrivalLane="B0bottom1_0" arrivalPos="286.40" arrivalSpeed="12.25" duration="97.00" routeLength="894.86" waitingTime="11.00" waitingCount="1" stopTime="0.00" timeLoss="26.12" rerouteNo="0" devices="tripinfo_23" vType="DEFAULT_VEHTYPE" speedFactor="0.93" vaporized=""/>
    <tripinfo id="31" depart="127.00" departLane="bottom2C0_0" departPos="5.10" departSpeed="0.00" departDelay="0.00" arrival="193.00" arrivalLane="D0bottom3_0" arrivalPos="286.40" arrivalSpeed="17.16" duration="66.00" routeLength="858.56" waitingTime="1.00" waitingCount="1" stopTime="0.00" timeLoss="14.62" rerouteNo="0" devices="tripinfo_31" vType="DEFAULT_VEHTYPE" speedFactor="1.25" vaporized=""/>
    <tripinfo id="21" depart="92.00" departLane="top1B3_0" departPos="5.10" departSpeed="0.00" departDelay="0.00" arrival="207.00" arrivalLane="D3top3_0" arrivalPos="286.40" arrivalSpeed="14.45" duration="115.00" routeLength="1197.66" waitingTime="17.00" waitingCount="2" stopTime="0.00" timeLoss="36.65" rerouteNo="0" devices="tripinfo_21" vType="DEFAULT_VEHTYPE" speedFactor="1.12" vaporized=""/>
    <tripinfo id="26" depart="98.00" departLane="bottom0A0_0" departPos="5.10" departSpeed="0.00" departDelay="0.00" arrival="223.00" arrivalLane="D0bottom3_0" arrivalPos="286.40" arrivalSpeed="13.18" duration="125.00" routeLength="1461.60" waitingTime="2.00" waitingCount="2" stopTime="0.00" timeLoss="20.46" rerouteNo="0" devices="tripinfo_26" vType="DEFAULT_VEHTYPE" speedFactor="1.02" vaporized=""/>
    <tripinfo id="32" depart="135.00" departLane="top0A3_0" departPos="5.10" departSpeed="0.00" departDelay="0.00" arrival="236.00" arrivalLane="A1left1_0" arrivalPos="286.40" arrivalSpeed="12.79" duration="101.00" routeLength="1177.07" waitingTime="1.00" waitingCount="1" stopTime="0.00" timeLoss="13.23" rerouteNo="0" devices="tripinfo_32" vType="DEFAULT_VEHTYPE" speedFactor="0.97" vaporized=""/>
    <tripinfo id="2" depart="25.00" departLane="top3D3_0" departPos="5.10" departSpeed="0.00" departDelay="0.00" arrival="239.00" arrivalLane="D3right3_0" arrivalPos="286.40" arrivalSpeed="13.28" duration="214.00" routeLength="597.55" waitingTime="159.00" waitingCount="1" stopTime="0.00" timeLoss="171.08" rerouteNo="0" devices="tripinfo_2" vType="DEFAULT_VEHTYPE" speedFactor="1.02" vaporized=""/>
    <tripinfo id="6" depart="49.00" departLane="bottom2C0_0" departPos="5.10" departSpeed="0.00" departDelay="0.00" arrival="247.00" arrivalLane="D0right0_0" arrivalPos="286.40" arrivalSpeed="14.99" duration="198.00" routeLength="879.60" waitingTime="122.00" waitingCount="2" stopTime="0.00" timeLoss="140.36" rerouteNo="0" devices="tripinfo_6" vType="DEFAULT_VEHTYPE" speedFactor="1.11" vaporized=""/>
    <tripinfo id="15" depart="78.00" departLane="left1A1_0" departPos="5.10" departSpeed="0.00" departDelay="0.00" arrival="256.00" arrivalLane="A3top0_0" arrivalPos="286.40" arrivalSpeed="15.12" duration="178.00" routeLength="1195.18" waitingTime="90.00" waitingCount="1" stopTime="0.00" timeLoss="101.92" rerouteNo="0" devices="tripinfo_15" vType="DEFAULT_VEHTYPE" speedFactor="1.14" vaporized=""/>
    <tripinfo id="41" depart="168.00" departLane="left1A1_0" departPos="5.10" departSpeed="0.00" departDelay="0.00" arrival="280.00" arrivalLane="A2left2_0" arrivalPos="286.40" arrivalSpeed="13.09" duration="112.00" routeLength="894.86" waitingTime="30.00" waitingCount="1" stopTime="0.00" timeLoss="47.01" rerouteNo="0" devices="tripinfo_41" vType="DEFAULT_VEHTYPE" speedFactor="1.01" vaporized=""/>
    <tripinfo id="63" depart="232.00" departLane="left0A0_0" departPos="5.10" departSpeed="0.00" departDelay="0.00" arrival="282.00" arrivalLane="A0bottom0_0" arrivalPos="286.40" arrivalSpeed="15.00" duration="50.00" routeLength="576.73" waitingTime="1.00" waitingCount="1" stopTime="0.00" timeLoss="12.32" rerouteNo="0" devices="tripinfo_63" vType="DEFAULT_VEHTYPE" speedFactor="1.13" vaporized=""/>
    <tripinfo id="8" depart="58.00" departLane="left3A3_0" departPos="5.10" departSpeed="0.00" departDelay="0.00" arrival="283.00" arrivalLane="B3top1_0" arrivalPos="286.40" arrivalSpeed="10.98" duration="225.00" routeLength="897.72" waitingTime="136.00" waitingCount="1" stopTime="0.00" timeLoss="148.87" rerouteNo="0" devices="tripinfo_8" vType="DEFAULT_VEHTYPE" speedFactor="0.86" vaporized=""/>
    <tripinfo id="25" depart="98.00" departLane="bottom3D0_0" departPos="5.10" departSpeed="0.00" departDelay="0.00" arrival="309.00" arrivalLane="C3top2_0" arrivalPos="286.40" arrivalSpeed="13.81" duration="211.00" routeLength="1782.59" waitingTime="59.00" waitingCount="2" stopTime="0.00" timeLoss="81.18" rerouteNo="0" devices="tripinfo_25" vType="DEFAULT_VEHTYPE" speedFactor="1.00" vaporized=""/>
    <tripinfo id="67" depart="248.00" departLane="right3D3_0" departPos="5.10" departSpeed="0.00" departDelay="0.00" arrival="317.00" arrivalLane="C3top2_0" arrivalPos="286.40" arrivalSpeed="15.25" duration="69.00" routeLength="876.90" waitingTime="1.00" waitingCount="1" stopTime="0.00" timeLoss="11.86" rerouteNo="0" devices="tripinfo_67" vType="DEFAULT_VEHTYPE" speedFactor="1.12" vaporized=""/>
    <tripinfo id="28" depart="120.00" departLane="bottom0A0_0" departPos="5.10" departSpeed="0.00" departDelay="0.00" arrival="321.00" arrivalLane="A1left1_0" arrivalPos="286.40" arrivalSpeed="11.57" duration="201.00" routeLength="897.72" waitingTime="116.00" waitingCount="1" stopTime="0.00" timeLoss="127.33" rerouteNo="0" devices="tripinfo_28" vType="DEFAULT_VEHTYPE" speedFactor="0.89" vaporized=""/>
    <tripinfo id="39" depart="161.00" departLane="top3D3_0" departPos="5.10" departSpeed="0.00" departDelay="0.00" arrival="326.00" arrivalLane="B3top1_0" arrivalPos="286.40" arrivalSpeed="13.06" duration="165.00" routeLength="1161.43" waitingTime="59.00" waitingCount="3" stopTime="0.00" timeLoss="82.52" rerouteNo="0" devices="tripinfo_39" vType="DEFAULT_VEHTYPE" speedFactor="1.03" vaporized=""/>
    <tripinfo id="29" depart="121.00" departLane="left0A0_0" departPos="5.10" departSpeed="0.00" departDelay="0.00" arrival="339.00" arrivalLane="A0left0_0" arrivalPos="286.40" arrivalSpeed="12.96" duration="218.00" routeLength="1745.91" waitingTime="58.00" waitingCount="4" stopTime="0.00" timeLoss="89.16" rerouteNo="0" devices="tripinfo_29" vType="DEFAULT_VEHTYPE" speedFactor="1.00" vaporized=""/>
    <tripinfo id="20" depart="92.00" departLane="right3D3_0" departPos="5.10" departSpeed="0.00" departDelay="0.00" arrival="351.00" arrivalLane="B0bottom1_0" arrivalPos="286.40" arrivalSpeed="14.54" duration="259.00" routeLength="2095.69" waitingTime="91.00" waitingCount="3" stopTime="0.00" timeLoss="117.32" rerouteNo="0" devices="tripinfo_20" vType="DEFAULT_VEHTYPE" speedFactor="1.07" vaporized=""/>
    <tripinfo id="57" depart="211.00" departLane="left0A0_0" departPos="5.10" departSpeed="0.00" departDelay="0.00" arrival="356.00" arrivalLane="B0bottom1_0" arrivalPos="286.40" arrivalSpeed="13.13" duration="145.00" routeLength="876.90" waitingTime="66.00" waitingCount="2" stopTime="0.00" timeLoss="82.74" rerouteNo="0" devices="tripinfo_57" vType="DEFAULT_VEHTYPE" speedFactor="1.03" vaporized=""/>
    <tripinfo id="44" depart="170.00" departLane="bottom0A0_0" departPos="5.10" departSpeed="0.00" departDelay="0.00" arrival="362.00" arrivalLane="A3left3_0" arrivalPos="286.40" arrivalSpeed="13.90" duration="192.00" routeLength="1498.06" waitingTime="71.00" waitingCount="1" stopTime="0.00" timeLoss="92.16" rerouteNo="0" devices="tripinfo_44" vType="DEFAULT_VEHTYPE" speedFactor="1.09" vaporized=""/>
    <tripinfo id="76" depart="293.00" departLane="left3A3_0" departPos="5.10" departSpeed="0.00" departDelay="0.00" arrival="373.00" arrivalLane="A2left2_0" arrivalPos="286.40" arrivalSpeed="12.01" duration="80.00" routeLength="858.56" waitingTime="0.00" waitingCount="0" stopTime="0.00" timeLoss="9.50" rerouteNo="0" devices="tripinfo_76" vType="DEFAULT_VEHTYPE" speedFactor="0.91" vaporized=""/>
    <tripinfo id="81" depart="308.00" departLane="right2D2_0" departPos="5.10" departSpeed="0.00" departDelay="0.00" arrival="377.00" arrivalLane="D3right3_0" arrivalPos="286.40" arrivalSpeed="16.23" duration="69.00" routeLength="858.56" waitingTime="1.00" waitingCount="1" stopTime="0.00" timeLoss="14.97" rerouteNo="0" devices="tripinfo_81" vType="DEFAULT_VEHTYPE" speedFactor="1.18" vaporized=""/>
    <tripinfo id="54" depart="205.00" departLane="bottom3D0_0" departPos="5.10" departSpeed="0.00" departDelay="0.00" arrival="381.00" arrivalLane="C3top2_0" arrivalPos="286.40" arrivalSpeed="12.31" duration="176.00" routeLength="1782.59" waitingTime="10.00" waitingCount="1" stopTime="0.00" timeLoss="31.69" rerouteNo="0" devices="tripinfo_54" vType="DEFAULT_VEHTYPE" speedFactor="0.90" vaporized=""/>
    <tripinfo id="50" depart="194.00" departLane="left1A1_0" departPos="5.10" departSpeed="0.00" departDelay="0.00" arrival="385.00" arrivalLane="A3top0_0" arrivalPos="286.40" arrivalSpeed="9.78" duration="191.00" routeLength="1195.18" waitingTime="63.00" waitingCount="2" stopTime="0.00" timeLoss="82.09" rerouteNo="0" devices="tripinfo_50" vType="DEFAULT_VEHTYPE" speedFactor="0.80" vaporized=""/>
    <tripinfo id="40" depart="164.00" departLane="right2D2_0" departPos="5.10" departSpeed="0.00" departDelay="0.00" arrival="398.00" arrivalLane="C3top2_0" arrivalPos="286.40" arrivalSpeed="13.82" duration="234.00" routeLength="1179.77" waitingTime="135.00" waitingCount="2" stopTime="0.00" timeLoss="153.04" rerouteNo="0" devices="tripinfo_40" vType="DEFAULT_VEHTYPE" speedFactor="1.07" vaporized=""/>
    <tripinfo id="68" depart="258.00" departLane="top3D3_0" departPos="5.10" departSpeed="0.00" departDelay="0.00" arrival="405.00" arrivalLane="B3top1_0" arrivalPos="286.40" arrivalSpeed="10.81" duration="147.00" routeLength="1161.43" waitingTime="25.00" waitingCount="3" stopTime="0.00" timeLoss="45.38" rerouteNo="0" devices="tripinfo_68" vType="DEFAULT_VEHTYPE" speedFactor="0.83" vaporized=""/>
    <tripinfo id="10" depart="60.00" departLane="top0A3_0" departPos="5.10" departSpeed="0.00" departDelay="0.00" arrival="411.00" arrivalLane="A3top0_0" arrivalPos="286.40" arrivalSpeed="12.46" duration="351.00" routeLength="1745.91" waitingTime="188.00" waitingCount="4" stopTime="0.00" timeLoss="217.09" rerouteNo="0" devices="tripinfo_10" vType="DEFAULT_VEHTYPE" speedFactor="0.96" vaporized=""/>
    <tripinfo id="52" depart="197.00" departLane="left0A0_0" departPos="5.10" departSpeed="0.00" departDelay="0.00" arrival="411.00" arrivalLane="C0bottom2_0" arrivalPos="286.40" arrivalSpeed="10.71" duration="214.00" routeLength="1177.07" waitingTime="95.00" waitingCount="2" stopTime="0.00" timeLoss="113.39" rerouteNo="0" devices="tripinfo_52" vType="DEFAULT_VEHTYPE" speedFactor="0.86" vaporized=""/>
    <tripinfo id="33" depart="138.00" departLane="left0A0_0" departPos="5.10" departSpeed="0.00" departDelay="0.00" arrival="417.00" arrivalLane="D2right2_0" arrivalPos="286.40" arrivalSpeed="14.46" duration="279.00" routeLength="2080.05" waitingTime="114.00" waitingCount="3" stopTime="0.00" timeLoss="143.00" rerouteNo="0" devices="tripinfo_33" vType="DEFAULT_VEHTYPE" speedFactor="1.11" vaporized=""/>
    <tripinfo id="75" depart="290.00" departLane="top0A3_0" departPos="5.10" departSpeed="0.00" departDelay="0.00" arrival="417.00" arrivalLane="A2left2_0" arrivalPos="286.40" arrivalSpeed="14.37" duration="127.00" routeLength="876.90" waitingTime="48.00" waitingCount="1" stopTime="0.00" timeLoss="66.24" rerouteNo="0" devices="tripinfo_75" vType="DEFAULT_VEHTYPE" speedFactor="1.05" vaporized=""/>
    <tripinfo id="61" depart="226.00" departLane="bottom1B0_0" departPos="5.10" departSpeed="0.00" departDelay="1.00" arrival="422.00" arrivalLane="D2right2_0" arrivalPos="286.40" arrivalSpeed="13.93" duration="196.00" routeLength="1780.11" waitingTime="43.00" waitingCount="3" stopTime="0.00" timeLoss="71.74" rerouteNo="0" devices="tripinfo_61" vType="DEFAULT_VEHTYPE" speedFactor="1.04" vaporized=""/>
    <tripinfo id="98" depart="359.00" departLane="left1A1_0" departPos="5.10" departSpeed="0.00" departDelay="0.00" arrival="437.00" arrivalLane="A0bottom0_0" arrivalPos="286.40" arrivalSpeed="13.80" duration="78.00" routeLength="879.60" waitingTime="1.00" waitingCount="1" stopTime="0.00" timeLoss="15.14" rerouteNo="0" devices="tripinfo_98" vType="DEFAULT_VEHTYPE" speedFactor="1.02" vaporized=""/>
    <tripinfo id="3" depart="25.00" departLane="top1B3_0" departPos="5.10" departSpeed="0.00" departDelay="0.00" arrival="442.00" arrivalLane="A1left1_0" arrivalPos="286.40" arrivalSpeed="12.00" duration="417.00" routeLength="1479.94" waitingTime="267.00" waitingCount="3" stopTime="0.00" timeLoss="293.64" rerouteNo="0" devices="tripinfo_3" vType="DEFAULT_VEHTYPE" speedFactor="0.87" vaporized=""/>
    <tripinfo id="53" depart="204.00" departLane="right1D1_0" departPos="5.10" departSpeed="0.00" departDelay="0.00" arrival="446.00" arrivalLane="A1left1_0" arrivalPos="286.40" arrivalSpeed="10.17" duration="242.00" routeLength="1495.58" waitingTime="87.00" waitingCount="3" stopTime="0.00" timeLoss="108.52" rerouteNo="0" devices="tripinfo_53" vType="DEFAULT_VEHTYPE" speedFactor="0.81" vaporized=""/>
    <tripinfo id="24" depart="95.00" departLane="left3A3_0" departPos="5.10" departSpeed="0.00" departDelay="0.00" arrival="452.00" arrivalLane="B3top1_0" arrivalPos="286.40" arrivalSpeed="12.25" duration="357.00" routeLength="897.72" waitingTime="269.00" waitingCount="2" stopTime="0.00" timeLoss="285.69" rerouteNo="0" devices="tripinfo_24" vType="DEFAULT_VEHTYPE" speedFactor="0.92" vaporized=""/>
    <tripinfo id="48" depart="192.00" departLane="left0A0_0" departPos="5.10" departSpeed="0.00" departDelay="0.00" arrival="452.00" arrivalLane="A0left0_0" arrivalPos="286.40" arrivalSpeed="12.02" duration="260.00" routeLength="1745.91" waitingTime="78.00" waitingCount="4" stopTime="0.00" timeLoss="111.73" rerouteNo="0" devices="tripinfo_48" vType="DEFAULT_VEHTYPE" speedFactor="0.87" vaporized=""/>
    <tripinfo id="90" depart="337.00" departLane="right1D1_0" departPos="5.10" departSpeed="0.00" departDelay="0.00" arrival="456.00" arrivalLane="D3top3_0" arrivalPos="286.40" arrivalSpeed="11.48" duration="119.00" routeLength="1179.77" waitingTime="6.00" waitingCount="2" stopTime="0.00" timeLoss="24.42" rerouteNo="0" devices="tripinfo_90" vType="DEFAULT_VEHTYPE" speedFactor="0.91" vaporized=""/>
    <tripinfo id="43" depart="170.00" departLane="left3A3_0" departPos="5.10" departSpeed="0.00" departDelay="0.00" arrival="461.00" arrivalLane="A3left3_0" arrivalPos="286.40" arrivalSpeed="12.99" duration="291.00" routeLength="1748.75" waitingTime="122.00" waitingCount="4" stopTime="0.00" timeLoss="153.72" rerouteNo="0" devices="tripinfo_43" vType="DEFAULT_VEHTYPE" speedFactor="0.94" vaporized=""/>
    <tripinfo id="35" depart="144.00" departLane="bottom2C0_0" departPos="5.10" departSpeed="0.00" departDelay="0.00" arrival="462.00" arrivalLane="A0left0_0" arrivalPos="286.40" arrivalSpeed="13.46" duration="318.00" routeLength="1195.18" waitingTime="214.00" waitingCount="2" stopTime="0.00" timeLoss="231.03" rerouteNo="0" devices="tripinfo_35" vType="DEFAULT_VEHTYPE" speedFactor="1.00" vaporized=""/>
    <tripinfo id="78" depart="295.00" departLane="bottom3D0_0" departPos="5.10" departSpeed="0.00" departDelay="0.00" arrival="462.00" arrivalLane="A0left0_1" arrivalPos="286.40" arrivalSpeed="14.66" duration="167.00" routeLength="1495.35" waitingTime="50.00" waitingCount="1" stopTime="0.00" timeLoss="66.78" rerouteNo="0" devices="tripinfo_78" vType="DEFAULT_VEHTYPE" speedFactor="1.08" vaporized=""/>
    <tripinfo id="0" depart="9.00" departLane="top0A3_0" departPos="5.10" departSpeed="0.00" departDelay="0.00" arrival="467.00" arrivalLane="C0bottom2_0" arrivalPos="286.40" arrivalSpeed="14.75" duration="458.00" routeLength="2080.05" waitingTime="292.00" waitingCount="4" stopTime="0.00" timeLoss="326.42" rerouteNo="0" devices="tripinfo_0" vType="DEFAULT_VEHTYPE" speedFactor="1.15" vaporized=""/>
    <tripinfo id="79" depart="300.00" departLane="left0A0_0" departPos="5.10" departSpeed="0.00" departDelay="0.00" arrival="467.00" arrivalLane="B0bottom1_0" arrivalPos="286.40" arrivalSpeed="11.76" duration="167.00" routeLength="876.90" waitingTime="72.00" waitingCount="2" stopTime="0.00" timeLoss="90.99" rerouteNo="0" devices="tripinfo_79" vType="DEFAULT_VEHTYPE" speedFactor="0.85" vaporized=""/>
    <tripinfo id="106" depart="385.00" departLane="left3A3_0" departPos="5.10" departSpeed="0.00" departDelay="0.00" arrival="467.00" arrivalLane="A2left2_0" arrivalPos="286.40" arrivalSpeed="12.05" duration="82.00" routeLength="858.56" waitingTime="1.00" waitingCount="1" stopTime="0.00" timeLoss="14.11" rerouteNo="0" devices="tripinfo_106" vType="DEFAULT_VEHTYPE" speedFactor="0.93" vaporized=""/>
    <tripinfo id="110" depart="405.00" departLane="top1B3_0" departPos="5.10" departSpeed="0.00" departDelay="0.00" arrival="483.00" arrivalLane="A3top0_0" arrivalPos="286.40" arrivalSpeed="12.71" duration="78.00" routeLength="858.56" waitingTime="0.00" waitingCount="0" stopTime="0.00" timeLoss="11.45" rerouteNo="0" devices="tripinfo_110" vType="DEFAULT_VEHTYPE" speedFactor="0.95" vaporized=""/>
    <tripinfo id="65" depart="233.00" departLane="right1D1_0" departPos="5.10" departSpeed="0.00" departDelay="0.00" arrival="488.00" arrivalLane="B0bottom1_0" arrivalPos="286.40" arrivalSpeed="14.21" duration="255.00" routeLength="1495.35" waitingTime="122.00" waitingCount="3" stopTime="0.00" timeLoss="154.33" rerouteNo="0" devices="tripinfo_65" vType="DEFAULT_VEHTYPE" speedFactor="1.08" vaporized=""/>
    <tripinfo id="55" depart="207.00" departLane="top3D3_0" departPos="5.10" departSpeed="0.00" departDelay="0.00" arrival="507.00" arrivalLane="A3top0_0" arrivalPos="286.40" arrivalSpeed="14.95" duration="300.00" routeLength="1461.60" waitingTime="178.00" waitingCount="3" stopTime="0.00" timeLoss="206.52" rerouteNo="0" devices="tripinfo_55" vType="DEFAULT_VEHTYPE" speedFactor="1.14" vaporized=""/>
    <tripinfo id="113" depart="420.00" departLane="top2C3_0" departPos="5.10" departSpeed="0.00" departDelay="0.00" arrival="507.00" arrivalLane="D3top3_0" arrivalPos="286.40" arrivalSpeed="10.42" duration="87.00" routeLength="894.86" waitingTime="0.00" waitingCount="0" stopTime="0.00" timeLoss="7.75" rerouteNo="0" devices="tripinfo_113" vType="DEFAULT_VEHTYPE" speedFactor="0.83" vaporized=""/>
    <tripinfo id="17" depart="82.00" departLane="right2D2_0" departPos="5.10" departSpeed="0.00" departDelay="0.00" arrival="508.00" arrivalLane="A3left3_0" arrivalPos="286.40" arrivalSpeed="15.60" duration="426.00" routeLength="1782.72" waitingTime="282.00" waitingCount="4" stopTime="0.00" timeLoss="311.12" rerouteNo="0" devices="tripinfo_17" vType="DEFAULT_VEHTYPE" speedFactor="1.13" vaporized=""/>
    <tripinfo id="60" depart="225.00" departLane="left2A2_0" departPos="5.10" departSpeed="0.00" departDelay="0.00" arrival="513.00" arrivalLane="A0left0_0" arrivalPos="286.40" arrivalSpeed="12.08" duration="288.00" routeLength="1161.43" waitingTime="176.00" waitingCount="3" stopTime="0.00" timeLoss="198.13" rerouteNo="0" devices="tripinfo_60" vType="DEFAULT_VEHTYPE" speedFactor="0.95" vaporized=""/>
    <tripinfo id="58" depart="215.00" departLane="right3D3_0" departPos="5.10" departSpeed="0.00" departDelay="0.00" arrival="519.00" arrivalLane="D0bottom3_0" arrivalPos="286.40" arrivalSpeed="13.10" duration="304.00" routeLength="1495.35" waitingTime="176.00" waitingCount="2" stopTime="0.00" timeLoss="194.01" rerouteNo="0" devices="tripinfo_58" vType="DEFAULT_VEHTYPE" speedFactor="0.99" vaporized=""/>
    <tripinfo id="115" depart="423.00" departLane="top1B3_0" departPos="5.10" departSpeed="0.00" departDelay="0.00" arrival="519.00" arrivalLane="D3top3_0" arrivalPos="286.40" arrivalSpeed="14.84" duration="96.00" routeLength="1197.66" waitingTime="3.00" waitingCount="1" stopTime="0.00" timeLoss="15.03" rerouteNo="0" devices="tripinfo_115" vType="DEFAULT_VEHTYPE" speedFactor="1.09" vaporized=""/>
    <tripinfo id="47" depart="182.00" departLane="bottom1B0_0" departPos="5.10" departSpeed="0.00" departDelay="0.00" arrival="533.00" arrivalLane="A2left2_0" arrivalPos="286.40" arrivalSpeed="13.25" duration="351.00" routeLength="1495.35" waitingTime="215.00" waitingCount="3" stopTime="0.00" timeLoss="240.65" rerouteNo="0" devices="tripinfo_47" vType="DEFAULT_VEHTYPE" speedFactor="0.99" vaporized=""/>
    <tripinfo id="14" depart="77.00" departLane="top1B3_0" departPos="5.10" departSpeed="0.00" departDelay="0.00" arrival="538.00" arrivalLane="C0bottom2_0" arrivalPos="286.40" arrivalSpeed="15.18" duration="461.00" routeLength="1782.59" waitingTime="306.00" waitingCount="5" stopTime="0.00" timeLoss="343.61" rerouteNo="0" devices="tripinfo_14" vType="DEFAULT_VEHTYPE" speedFactor="1.11" vaporized=""/>
    <tripinfo id="86" depart="315.00" departLane="top1B3_0" departPos="5.10" departSpeed="0.00" departDelay="0.00" arrival="545.00" arrivalLane="C0bottom2_1" arrivalPos="286.40" arrivalSpeed="13.03" duration="230.00" routeLength="1782.59" waitingTime="58.00" waitingCount="3" stopTime="0.00" timeLoss="95.33" rerouteNo="0" devices="tripinfo_86" vType="DEFAULT_VEHTYPE" speedFactor="0.97" vaporized=""/>
    <tripinfo id="19" depart="90.00" departLane="top3D3_0" departPos="5.10" departSpeed="0.00" departDelay="0.00" arrival="548.00" arrivalLane="C0bottom2_0" arrivalPos="286.40" arrivalSpeed="10.55" duration="458.00" routeLength="1782.72" waitingTime="253.00" waitingCount="5" stopTime="0.00" timeLoss="289.67" rerouteNo="0" devices="tripinfo_19" vType="DEFAULT_VEHTYPE" speedFactor="0.77" vaporized=""/>
    <tripinfo id="89" depart="335.00" departLane="left3A3_0" departPos="5.10" departSpeed="0.00" departDelay="0.00" arrival="557.00" arrivalLane="A3top0_0" arrivalPos="286.40" arrivalSpeed="14.75" duration="222.00" routeLength="597.55" waitingTime="173.00" waitingCount="1" stopTime="0.00" timeLoss="183.32" rerouteNo="0" devices="tripinfo_89" vType="DEFAULT_VEHTYPE" speedFactor="1.13" vaporized=""/>
    <tripinfo id="122" depart="441.00" departLane="top3D3_0" departPos="5.10" departSpeed="0.00" departDelay="0.00" arrival="571.00" arrivalLane="D3right3_0" arrivalPos="286.40" arrivalSpeed="12.50" duration="130.00" routeLength="597.55" waitingTime="74.00" waitingCount="1" stopTime="0.00" timeLoss="83.99" rerouteNo="0" devices="tripinfo_122" vType="DEFAULT_VEHTYPE" speedFactor="0.96" vaporized=""/>
    <tripinfo id="9" depart="59.00" departLane="bottom0A0_0" departPos="5.10" departSpeed="0.00" departDelay="0.00" arrival="574.00" arrivalLane="B3top1_0" arrivalPos="286.40" arrivalSpeed="16.34" duration="515.00" routeLength="1782.72" waitingTime="372.00" waitingCount="4" stopTime="0.00" timeLoss="408.38" rerouteNo="0" devices="tripinfo_9" vType="DEFAULT_VEHTYPE" speedFactor="1.22" vaporized=""/>
    <tripinfo id="136" depart="486.00" departLane="bottom3D0_0" departPos="5.10" departSpeed="0.00" departDelay="0.00" arrival="581.00" arrivalLane="D1right1_0" arrivalPos="286.40" arrivalSpeed="11.73" duration="95.00" routeLength="876.90" waitingTime="8.00" waitingCount="2" stopTime="0.00" timeLoss="24.26" rerouteNo="0" devices="tripinfo_136" vType="DEFAULT_VEHTYPE" speedFactor="0.90" vaporized=""/>
    <tripinfo id="13" depart="76.00" departLane="top3D3_0" departPos="5.10" departSpeed="0.00" departDelay="0.00" arrival="582.00" arrivalLane="A0left0_0" arrivalPos="286.40" arrivalSpeed="13.56" duration="506.00" routeLength="2380.45" waitingTime="307.00" waitingCount="4" stopTime="0.00" timeLoss="341.22" rerouteNo="0" devices="tripinfo_13" vType="DEFAULT_VEHTYPE" speedFactor="1.05" vaporized=""/>
    <tripinfo id="4" depart="32.00" departLane="right2D2_0" departPos="5.10" departSpeed="0.00" departDelay="0.00" arrival="586.00" arrivalLane="A0left0_0" arrivalPos="286.40" arrivalSpeed="12.71" duration="554.00" routeLength="2080.05" waitingTime="373.00" waitingCount="2" stopTime="0.00" timeLoss="403.33" rerouteNo="0" devices="tripinfo_4" vType="DEFAULT_VEHTYPE" speedFactor="1.00" vaporized=""/>
    <tripinfo id="77" depart="294.00" departLane="left0A0_0" departPos="5.10" departSpeed="0.00" departDelay="0.00" arrival="595.00" arrivalLane="A2left2_0" arrivalPos="286.40" arrivalSpeed="10.26" duration="301.00" routeLength="1197.66" waitingTime="177.00" waitingCount="2" stopTime="0.00" timeLoss="193.10" rerouteNo="0" devices="tripinfo_77" vType="DEFAULT_VEHTYPE" speedFactor="0.81" vaporized=""/>
    <tripinfo id="95" depart="349.00" departLane="right3D3_0" departPos="5.10" departSpeed="0.00" departDelay="0.00" arrival="596.00" arrivalLane="D2right2_0" arrivalPos="286.40" arrivalSpeed="9.99" duration="247.00" routeLength="894.86" waitingTime="148.00" waitingCount="2" stopTime="0.00" timeLoss="164.04" rerouteNo="0" devices="tripinfo_95" vType="DEFAULT_VEHTYPE" speedFactor="0.80" vaporized=""/>
    <tripinfo id="130" depart="469.00" departLane="bottom0A0_0" departPos="5.10" departSpeed="0.00" departDelay="0.00" arrival="599.00" arrivalLane="C0bottom2_0" arrivalPos="286.40" arrivalSpeed="15.25" duration="130.00" routeLength="1161.43" waitingTime="36.00" waitingCount="2" stopTime="0.00" timeLoss="56.47" rerouteNo="0" devices="tripinfo_130" vType="DEFAULT_VEHTYPE" speedFactor="1.16" vaporized=""/>
    <tripinfo id="131" depart="475.00" departLane="left2A2_0" departPos="5.10" departSpeed="0.00" departDelay="0.00" arrival="607.00" arrivalLane="A0left0_0" arrivalPos="286.40" arrivalSpeed="15.19" duration="132.00" routeLength="1161.43" waitingTime="31.00" waitingCount="3" stopTime="0.00" timeLoss="54.94" rerouteNo="0" devices="tripinfo_131" vType="DEFAULT_VEHTYPE" speedFactor="1.11" vaporized=""/>
    <tripinfo id="7" depart="53.00" departLane="left2A2_0" departPos="5.10" departSpeed="0.00" departDelay="0.00" arrival="621.00" arrivalLane="A3left3_0" arrivalPos="286.40" arrivalSpeed="11.64" duration="568.00" routeLength="894.86" waitingTime="481.00" waitingCount="2" stopTime="0.00" timeLoss="497.35" rerouteNo="0" devices="tripinfo_7" vType="DEFAULT_VEHTYPE" speedFactor="0.93" vaporized=""/>
    <tripinfo id="146" depart="539.00" departLane="right2D2_0" departPos="5.10" departSpeed="0.00" departDelay="0.00" arrival="621.00" arrivalLane="D1right1_0" arrivalPos="286.40" arrivalSpeed="14.36" duration="82.00" routeLength="894.86" waitingTime="6.00" waitingCount="1" stopTime="0.00" timeLoss="18.59" rerouteNo="0" devices="tripinfo_146" vType="DEFAULT_VEHTYPE" speedFactor="1.05" vaporized=""/>
    <tripinfo id="93" depart="346.00" departLane="left2A2_0" departPos="5.10" departSpeed="0.00" departDelay="2.00" arrival="623.00" arrivalLane="A3left3_1" arrivalPos="286.40" arrivalSpeed="13.55" duration="277.00" routeLength="894.86" waitingTime="188.00" waitingCount="2" stopTime="0.00" timeLoss="214.35" rerouteNo="0" devices="tripinfo_93" vType="DEFAULT_VEHTYPE" speedFactor="1.06" vaporized=""/>