<?xml version="1.0" encoding="UTF-8"?>

<!-- generated on 2023-08-30 13:22:15 by Eclipse SUMO libsumo Version 1.18.0
<configuration xmlns:xsi="http://www.w3.org/2001/XMLSchema-instance" xsi:noNamespaceSchemaLocation="http://sumo.dlr.de/xsd/libsumoConfiguration.xsd">

    <input>
        <net-file value="/home/stefan/RESCO/./environments/grid4x4/grid4x4.net.xml"/>
        <route-files value="/home/stefan/RESCO/./environments/grid4x4/grid4x4_44.rou.xml"/>
    </input>

    <output>
        <tripinfo-output value="/home/stefan/results/RAINBOW-tr0-grid4x4-0-drq_norm-wait_norm/tripinfo_44.xml"/>
        <tripinfo-output.write-unfinished value="true"/>
    </output>

    <processing>
        <time-to-teleport value="-1"/>
    </processing>

    <report>
        <no-warnings value="True"/>
        <no-step-log value="True"/>
    </report>

    <random_number>
        <random value="true"/>
    </random_number>

</configuration>
-->

<tripinfos xmlns:xsi="http://www.w3.org/2001/XMLSchema-instance" xsi:noNamespaceSchemaLocation="http://sumo.dlr.de/xsd/tripinfo_file.xsd">
    <tripinfo id="13" depart="40.00" departLane="bottom2C0_0" departPos="5.10" departSpeed="0.00" departDelay="0.00" arrival="128.00" arrivalLane="D1right1_0" arrivalPos="286.40" arrivalSpeed="13.87" duration="88.00" routeLength="1179.77" waitingTime="0.00" waitingCount="0" stopTime="0.00" timeLoss="8.03" rerouteNo="0" devices="tripinfo_13" vType="DEFAULT_VEHTYPE" speedFactor="1.07" vaporized=""/>
    <tripinfo id="9" depart="30.00" departLane="bottom0A0_0" departPos="5.10" departSpeed="0.00" departDelay="0.00" arrival="150.00" arrivalLane="A1left1_0" arrivalPos="286.40" arrivalSpeed="13.08" duration="120.00" routeLength="897.72" waitingTime="35.00" waitingCount="2" stopTime="0.00" timeLoss="51.74" rerouteNo="0" devices="tripinfo_9" vType="DEFAULT_VEHTYPE" speedFactor="0.95" vaporized=""/>
    <tripinfo id="7" depart="24.00" departLane="right2D2_0" departPos="5.10" departSpeed="0.00" departDelay="0.00" arrival="157.00" arrivalLane="C3top2_0" arrivalPos="286.40" arrivalSpeed="14.37" duration="133.00" routeLength="1179.77" waitingTime="31.00" waitingCount="3" stopTime="0.00" timeLoss="55.16" rerouteNo="0" devices="tripinfo_7" vType="DEFAULT_VEHTYPE" speedFactor="1.10" vaporized=""/>
    <tripinfo id="0" depart="0.00" departLane="right2D2_0" departPos="5.10" departSpeed="0.00" departDelay="0.00" arrival="159.00" arrivalLane="B0bottom1_0" arrivalPos="286.40" arrivalSpeed="14.18" duration="159.00" routeLength="1795.52" waitingTime="18.00" waitingCount="2" stopTime="0.00" timeLoss="39.49" rerouteNo="0" devices="tripinfo_0" vType="DEFAULT_VEHTYPE" speedFactor="1.09" vaporized=""/>
    <tripinfo id="30" depart="138.00" departLane="bottom3D0_0" departPos="5.10" departSpeed="0.00" departDelay="0.00" arrival="192.00" arrivalLane="D0right0_0" arrivalPos="286.40" arrivalSpeed="12.73" duration="54.00" routeLength="576.73" waitingTime="1.00" waitingCount="1" stopTime="0.00" timeLoss="10.36" rerouteNo="0" devices="tripinfo_30" vType="DEFAULT_VEHTYPE" speedFactor="0.97" vaporized=""/>
    <tripinfo id="25" depart="119.00" departLane="top0A3_0" departPos="5.10" departSpeed="0.00" departDelay="0.00" arrival="203.00" arrivalLane="A2left2_0" arrivalPos="286.40" arrivalSpeed="14.70" duration="84.00" routeLength="876.90" waitingTime="9.00" waitingCount="2" stopTime="0.00" timeLoss="23.63" rerouteNo="0" devices="tripinfo_25" vType="DEFAULT_VEHTYPE" speedFactor="1.07" vaporized=""/>
    <tripinfo id="28" depart="129.00" departLane="left3A3_0" departPos="5.10" departSpeed="0.00" departDelay="0.00" arrival="206.00" arrivalLane="A2left2_0" arrivalPos="286.40" arrivalSpeed="13.23" duration="77.00" routeLength="858.56" waitingTime="1.00" waitingCount="1" stopTime="0.00" timeLoss="15.74" rerouteNo="0" devices="tripinfo_28" vType="DEFAULT_VEHTYPE" speedFactor="1.03" vaporized=""/>
    <tripinfo id="16" depart="66.00" departLane="top1B3_0" departPos="5.10" departSpeed="0.00" departDelay="0.00" arrival="241.00" arrivalLane="A0bottom0_0" arrivalPos="286.40" arrivalSpeed="12.12" duration="175.00" routeLength="1782.72" waitingTime="3.00" waitingCount="3" stopTime="0.00" timeLoss="35.41" rerouteNo="0" devices="tripinfo_16" vType="DEFAULT_VEHTYPE" speedFactor="0.93" vaporized=""/>
    <tripinfo id="2" depart="8.00" departLane="bottom1B0_0" departPos="5.10" departSpeed="0.00" departDelay="0.00" arrival="249.00" arrivalLane="B0bottom1_1" arrivalPos="286.40" arrivalSpeed="15.17" duration="241.00" routeLength="1748.75" waitingTime="90.00" waitingCount="5" stopTime="0.00" timeLoss="126.01" rerouteNo="0" devices="tripinfo_2" vType="DEFAULT_VEHTYPE" speedFactor="1.11" vaporized=""/>
    <tripinfo id="14" depart="46.00" departLane="bottom3D0_0" departPos="5.10" departSpeed="0.00" departDelay="0.00" arrival="249.00" arrivalLane="B0bottom1_0" arrivalPos="286.40" arrivalSpeed="13.72" duration="203.00" routeLength="1197.66" waitingTime="96.00" waitingCount="2" stopTime="0.00" timeLoss="115.44" rerouteNo="0" devices="tripinfo_14" vType="DEFAULT_VEHTYPE" speedFactor="1.00" vaporized=""/>
    <tripinfo id="24" depart="107.00" departLane="top3D3_0" departPos="5.10" departSpeed="0.00" departDelay="0.00" arrival="259.00" arrivalLane="D1right1_0" arrivalPos="286.40" arrivalSpeed="13.63" duration="152.00" routeLength="1197.89" waitingTime="50.00" waitingCount="1" stopTime="0.00" timeLoss="64.57" rerouteNo="0" devices="tripinfo_24" vType="DEFAULT_VEHTYPE" speedFactor="0.99" vaporized=""/>
    <tripinfo id="35" depart="173.00" departLane="top2C3_0" departPos="5.10" departSpeed="0.00" departDelay="0.00" arrival="269.00" arrivalLane="D3top3_0" arrivalPos="286.40" arrivalSpeed="9.45" duration="96.00" routeLength="894.86" waitingTime="0.00" waitingCount="0" stopTime="0.00" timeLoss="8.84" rerouteNo="0" devices="tripinfo_35" vType="DEFAULT_VEHTYPE" speedFactor="0.75" vaporized=""/>
    <tripinfo id="23" depart="101.00" departLane="right3D3_0" departPos="5.10" departSpeed="0.00" departDelay="0.00" arrival="287.00" arrivalLane="D0right0_0" arrivalPos="286.40" arrivalSpeed="11.65" duration="186.00" routeLength="1497.83" waitingTime="51.00" waitingCount="1" stopTime="0.00" timeLoss="66.81" rerouteNo="0" devices="tripinfo_23" vType="DEFAULT_VEHTYPE" speedFactor="0.91" vaporized=""/>
    <tripinfo id="8" depart="29.00" departLane="right1D1_0" departPos="5.10" departSpeed="0.00" departDelay="0.00" arrival="299.00" arrivalLane="A3left3_0" arrivalPos="286.40" arrivalSpeed="14.31" duration="270.00" routeLength="2082.76" waitingTime="100.00" waitingCount="2" stopTime="0.00" timeLoss="122.62" rerouteNo="0" devices="tripinfo_8" vType="DEFAULT_VEHTYPE" speedFactor="1.03" vaporized=""/>
    <tripinfo id="29" depart="135.00" departLane="right3D3_0" departPos="5.10" departSpeed="0.00" departDelay="0.00" arrival="299.00" arrivalLane="D0right0_0" arrivalPos="286.40" arrivalSpeed="13.24" duration="164.00" routeLength="1497.83" waitingTime="30.00" waitingCount="3" stopTime="0.00" timeLoss="55.53" rerouteNo="0" devices="tripinfo_29" vType="DEFAULT_VEHTYPE" speedFactor="1.01" vaporized=""/>
    <tripinfo id="18" depart="77.00" departLane="left2A2_0" departPos="5.10" departSpeed="0.00" departDelay="0.00" arrival="307.00" arrivalLane="B3top1_0" arrivalPos="286.40" arrivalSpeed="13.68" duration="230.00" routeLength="1195.18" waitingTime="129.00" waitingCount="1" stopTime="0.00" timeLoss="143.17" rerouteNo="0" devices="tripinfo_18" vType="DEFAULT_VEHTYPE" speedFactor="1.00" vaporized=""/>
    <tripinfo id="15" depart="62.00" departLane="right1D1_0" departPos="5.10" departSpeed="0.00" departDelay="0.00" arrival="316.00" arrivalLane="A0left0_0" arrivalPos="286.40" arrivalSpeed="15.67" duration="254.00" routeLength="1782.59" waitingTime="107.00" waitingCount="4" stopTime="0.00" timeLoss="143.31" rerouteNo="0" devices="tripinfo_15" vType="DEFAULT_VEHTYPE" speedFactor="1.18" vaporized=""/>
    <tripinfo id="32" depart="149.00" departLane="top2C3_0" departPos="5.10" departSpeed="0.00" departDelay="0.00" arrival="328.00" arrivalLane="A3top0_0" arrivalPos="286.40" arrivalSpeed="12.42" duration="179.00" routeLength="1161.43" waitingTime="72.00" waitingCount="1" stopTime="0.00" timeLoss="89.86" rerouteNo="0" devices="tripinfo_32" vType="DEFAULT_VEHTYPE" speedFactor="0.95" vaporized=""/>
    <tripinfo id="19" depart="80.00" departLane="top2C3_0" departPos="5.10" departSpeed="0.00" departDelay="0.00" arrival="329.00" arrivalLane="A3left3_0" arrivalPos="286.40" arrivalSpeed="13.98" duration="249.00" routeLength="1179.77" waitingTime="141.00" waitingCount="3" stopTime="0.00" timeLoss="163.63" rerouteNo="0" devices="tripinfo_19" vType="DEFAULT_VEHTYPE" speedFactor="1.01" vaporized=""/>
    <tripinfo id="33" depart="156.00" departLane="top2C3_0" departPos="5.10" departSpeed="0.00" departDelay="0.00" arrival="329.00" arrivalLane="A3top0_1" arrivalPos="286.40" arrivalSpeed="13.12" duration="173.00" routeLength="1161.43" waitingTime="64.00" waitingCount="2" stopTime="0.00" timeLoss="89.72" rerouteNo="0" devices="tripinfo_33" vType="DEFAULT_VEHTYPE" speedFactor="1.02" vaporized=""/>
    <tripinfo id="20" depart="89.00" departLane="right0D0_0" departPos="5.10" departSpeed="0.00" departDelay="0.00" arrival="335.00" arrivalLane="D2right2_0" arrivalPos="286.40" arrivalSpeed="13.50" duration="246.00" routeLength="1161.43" waitingTime="141.00" waitingCount="3" stopTime="0.00" timeLoss="165.52" rerouteNo="0" devices="tripinfo_20" vType="DEFAULT_VEHTYPE" speedFactor="1.05" vaporized=""/>
    <tripinfo id="55" depart="276.00" departLane="bottom3D0_0" departPos="5.10" departSpeed="0.00" departDelay="0.00" arrival="337.00" arrivalLane="D0right0_0" arrivalPos="286.40" arrivalSpeed="10.47" duration="61.00" routeLength="576.73" waitingTime="1.00" waitingCount="1" stopTime="0.00" timeLoss="10.14" rerouteNo="0" devices="tripinfo_55" vType="DEFAULT_VEHTYPE" speedFactor="0.83" vaporized=""/>
    <tripinfo id="53" depart="272.00" departLane="left0A0_0" departPos="5.10" departSpeed="0.00" departDelay="0.00" arrival="346.00" arrivalLane="B0bottom1_0" arrivalPos="286.40" arrivalSpeed="13.90" duration="74.00" routeLength="876.90" waitingTime="1.00" waitingCount="1" stopTime="0.00" timeLoss="13.54" rerouteNo="0" devices="tripinfo_53" vType="DEFAULT_VEHTYPE" speedFactor="1.07" vaporized=""/>
    <tripinfo id="61" depart="303.00" departLane="bottom3D0_0" departPos="5.10" departSpeed="0.00" departDelay="0.00" arrival="355.00" arrivalLane="D0right0_0" arrivalPos="286.40" arrivalSpeed="13.35" duration="52.00" routeLength="576.73" waitingTime="1.00" waitingCount="1" stopTime="0.00" timeLoss="10.37" rerouteNo="0" devices="tripinfo_61" vType="DEFAULT_VEHTYPE" speedFactor="1.01" vaporized=""/>
    <tripinfo id="56" depart="282.00" departLane="left2A2_0" departPos="5.10" departSpeed="0.00" departDelay="0.00" arrival="363.00" arrivalLane="A1left1_0" arrivalPos="286.40" arrivalSpeed="12.92" duration="81.00" routeLength="858.56" waitingTime="1.00" waitingCount="1" stopTime="0.00" timeLoss="13.78" rerouteNo="0" devices="tripinfo_56" vType="DEFAULT_VEHTYPE" speedFactor="0.94" vaporized=""/>
    <tripinfo id="22" depart="95.00" departLane="right1D1_0" departPos="5.10" departSpeed="0.00" departDelay="0.00" arrival="369.00" arrivalLane="C0bottom2_0" arrivalPos="286.40" arrivalSpeed="14.18" duration="274.00" routeLength="1195.18" waitingTime="173.00" waitingCount="2" stopTime="0.00" timeLoss="191.27" rerouteNo="0" devices="tripinfo_22" vType="DEFAULT_VEHTYPE" speedFactor="1.05" vaporized=""/>
    <tripinfo id="45" depart="239.00" departLane="top3D3_0" departPos="5.10" departSpeed="0.00" departDelay="0.00" arrival="379.00" arrivalLane="D1right1_0" arrivalPos="286.40" arrivalSpeed="14.77" duration="140.00" routeLength="1197.89" waitingTime="40.00" waitingCount="2" stopTime="0.00" timeLoss="59.34" rerouteNo="0" devices="tripinfo_45" vType="DEFAULT_VEHTYPE" speedFactor="1.08" vaporized=""/>
    <tripinfo id="31" depart="142.00" departLane="top1B3_0" departPos="5.10" departSpeed="0.00" departDelay="0.00" arrival="381.00" arrivalLane="D3right3_0" arrivalPos="286.40" arrivalSpeed="11.76" duration="239.00" routeLength="1195.18" waitingTime="118.00" waitingCount="3" stopTime="0.00" timeLoss="144.43" rerouteNo="0" devices="tripinfo_31" vType="DEFAULT_VEHTYPE" speedFactor="0.92" vaporized=""/>
    <tripinfo id="50" depart="261.00" departLane="bottom1B0_0" departPos="5.10" departSpeed="0.00" departDelay="0.00" arrival="382.00" arrivalLane="D0bottom3_0" arrivalPos="286.40" arrivalSpeed="11.92" duration="121.00" routeLength="1161.43" waitingTime="6.00" waitingCount="3" stopTime="0.00" timeLoss="29.57" rerouteNo="0" devices="tripinfo_50" vType="DEFAULT_VEHTYPE" speedFactor="0.93" vaporized=""/>
    <tripinfo id="59" depart="289.00" departLane="right1D1_0" departPos="5.10" departSpeed="0.00" departDelay="0.00" arrival="388.00" arrivalLane="D0bottom3_0" arrivalPos="286.40" arrivalSpeed="13.73" duration="99.00" routeLength="895.01" waitingTime="24.00" waitingCount="1" stopTime="0.00" timeLoss="36.52" rerouteNo="0" devices="tripinfo_59" vType="DEFAULT_VEHTYPE" speedFactor="1.04" vaporized=""/>
    <tripinfo id="26" depart="125.00" departLane="bottom2C0_0" departPos="5.10" departSpeed="0.00" departDelay="0.00" arrival="397.00" arrivalLane="D3top3_0" arrivalPos="286.40" arrivalSpeed="14.81" duration="272.00" routeLength="1782.72" waitingTime="126.00" waitingCount="3" stopTime="0.00" timeLoss="153.82" rerouteNo="0" devices="tripinfo_26" vType="DEFAULT_VEHTYPE" speedFactor="1.10" vaporized=""/>
    <tripinfo id="36" depart="175.00" departLane="right0D0_0" departPos="5.10" departSpeed="0.00" departDelay="0.00" arrival="398.00" arrivalLane="C0bottom2_0" arrivalPos="286.40" arrivalSpeed="14.29" duration="223.00" routeLength="897.72" waitingTime="135.00" waitingCount="3" stopTime="0.00" timeLoss="161.89" rerouteNo="0" devices="tripinfo_36" vType="DEFAULT_VEHTYPE" speedFactor="1.08" vaporized=""/>
    <tripinfo id="46" depart="244.00" departLane="top1B3_0" departPos="5.10" departSpeed="0.00" departDelay="0.00" arrival="408.00" arrivalLane="A0bottom0_0" arrivalPos="286.40" arrivalSpeed="13.73" duration="164.00" routeLength="1782.72" waitingTime="11.00" waitingCount="4" stopTime="0.00" timeLoss="41.76" rerouteNo="0" devices="tripinfo_46" vType="DEFAULT_VEHTYPE" speedFactor="1.06" vaporized=""/>
    <tripinfo id="3" depart="11.00" departLane="right0D0_0" departPos="5.10" departSpeed="0.00" departDelay="0.00" arrival="459.00" arrivalLane="A0bottom0_1" arrivalPos="286.40" arrivalSpeed="15.52" duration="448.00" routeLength="1498.06" waitingTime="306.00" waitingCount="4" stopTime="0.00" timeLoss="354.37" rerouteNo="0" devices="tripinfo_3" vType="DEFAULT_VEHTYPE" speedFactor="1.16" vaporized=""/>
    <tripinfo id="1" depart="4.00" departLane="right0D0_0" departPos="5.10" departSpeed="0.00" departDelay="0.00" arrival="461.00" arrivalLane="A0bottom0_0" arrivalPos="286.40" arrivalSpeed="13.20" duration="457.00" routeLength="1498.06" waitingTime="315.00" waitingCount="4" stopTime="0.00" timeLoss="343.74" rerouteNo="0" devices="tripinfo_1" vType="DEFAULT_VEHTYPE" speedFactor="0.96" vaporized=""/>
    <tripinfo id="79" depart="389.00" departLane="left3A3_0" departPos="5.10" departSpeed="0.00" departDelay="0.00" arrival="482.00" arrivalLane="A1left1_0" arrivalPos="286.40" arrivalSpeed="14.82" duration="93.00" routeLength="1161.43" waitingTime="1.00" waitingCount="1" stopTime="0.00" timeLoss="13.59" rerouteNo="0" devices="tripinfo_79" vType="DEFAULT_VEHTYPE" speedFactor="1.08" vaporized=""/>
    <tripinfo id="90" depart="431.00" departLane="top0A3_0" departPos="5.10" departSpeed="0.00" departDelay="0.00" arrival="484.00" arrivalLane="A3left3_0" arrivalPos="286.40" arrivalSpeed="13.29" duration="53.00" routeLength="576.73" waitingTime="1.00" waitingCount="1" stopTime="0.00" timeLoss="10.30" rerouteNo="0" devices="tripinfo_90" vType="DEFAULT_VEHTYPE" speedFactor="1.00" vaporized=""/>
    <tripinfo id="82" depart="395.00" departLane="left3A3_0" departPos="5.10" departSpeed="0.00" departDelay="0.00" arrival="488.00" arrivalLane="A3top0_0" arrivalPos="286.40" arrivalSpeed="14.09" duration="93.00" routeLength="597.55" waitingTime="39.00" waitingCount="1" stopTime="0.00" timeLoss="50.30" rerouteNo="0" devices="tripinfo_82" vType="DEFAULT_VEHTYPE" speedFactor="1.02" vaporized=""/>
    <tripinfo id="47" depart="251.00" departLane="right2D2_0" departPos="5.10" departSpeed="0.00" departDelay="0.00" arrival="490.00" arrivalLane="C3top2_0" arrivalPos="286.40" arrivalSpeed="13.54" duration="239.00" routeLength="1179.77" waitingTime="130.00" waitingCount="3" stopTime="0.00" timeLoss="152.86" rerouteNo="0" devices="tripinfo_47" vType="DEFAULT_VEHTYPE" speedFactor="1.00" vaporized=""/>
    <tripinfo id="52" depart="269.00" departLane="left3A3_0" departPos="5.10" departSpeed="0.00" departDelay="0.00" arrival="498.00" arrivalLane="C3top2_0" arrivalPos="286.40" arrivalSpeed="14.17" duration="229.00" routeLength="1197.89" waitingTime="128.00" waitingCount="2" stopTime="0.00" timeLoss="146.48" rerouteNo="0" devices="tripinfo_52" vType="DEFAULT_VEHTYPE" speedFactor="1.06" vaporized=""/>
    <tripinfo id="58" depart="285.00" departLane="left0A0_0" departPos="5.10" departSpeed="0.00" departDelay="0.00" arrival="500.00" arrivalLane="D1right1_0" arrivalPos="286.40" arrivalSpeed="14.16" duration="215.00" routeLength="1782.59" waitingTime="71.00" waitingCount="2" stopTime="0.00" timeLoss="89.45" rerouteNo="0" devices="tripinfo_58" vType="DEFAULT_VEHTYPE" speedFactor="1.03" vaporized=""/>
    <tripinfo id="70" depart="374.00" departLane="top1B3_0" departPos="5.10" departSpeed="0.00" departDelay="0.00" arrival="500.00" arrivalLane="C3top2_0" arrivalPos="286.40" arrivalSpeed="13.25" duration="126.00" routeLength="894.86" waitingTime="44.00" waitingCount="2" stopTime="0.00" timeLoss="62.89" rerouteNo="0" devices="tripinfo_70" vType="DEFAULT_VEHTYPE" speedFactor="1.04" vaporized=""/>
    <tripinfo id="21" depart="93.00" departLane="right3D3_0" departPos="5.10" departSpeed="0.00" departDelay="0.00" arrival="509.00" arrivalLane="A3top0_0" arrivalPos="286.40" arrivalSpeed="13.62" duration="416.00" routeLength="1477.24" waitingTime="274.00" waitingCount="5" stopTime="0.00" timeLoss="309.52" rerouteNo="0" devices="tripinfo_21" vType="DEFAULT_VEHTYPE" speedFactor="1.01" vaporized=""/>
    <tripinfo id="44" depart="234.00" departLane="top2C3_0" departPos="5.10" departSpeed="0.00" departDelay="0.00" arrival="513.00" arrivalLane="A3top0_0" arrivalPos="286.40" arrivalSpeed="14.28" duration="279.00" routeLength="1161.43" waitingTime="171.00" waitingCount="4" stopTime="0.00" timeLoss="199.83" rerouteNo="0" devices="tripinfo_44" vType="DEFAULT_VEHTYPE" speedFactor="1.08" vaporized=""/>
    <tripinfo id="41" depart="223.00" departLane="top1B3_0" departPos="5.10" departSpeed="0.00" departDelay="0.00" arrival="515.00" arrivalLane="D0bottom3_0" arrivalPos="286.40" arrivalSpeed="12.30" duration="292.00" routeLength="2080.05" waitingTime="104.00" waitingCount="3" stopTime="0.00" timeLoss="128.08" rerouteNo="0" devices="tripinfo_41" vType="DEFAULT_VEHTYPE" speedFactor="0.92" vaporized=""/>
    <tripinfo id="93" depart="438.00" departLane="top1B3_0" departPos="5.10" departSpeed="0.00" departDelay="0.00" arrival="519.00" arrivalLane="A3top0_0" arrivalPos="286.40" arrivalSpeed="13.12" duration="81.00" routeLength="858.56" waitingTime="1.00" waitingCount="1" stopTime="0.00" timeLoss="14.83" rerouteNo="0" devices="tripinfo_93" vType="DEFAULT_VEHTYPE" speedFactor="0.96" vaporized=""/>
    <tripinfo id="10" depart="33.00" departLane="bottom2C0_0" departPos="5.10" departSpeed="0.00" departDelay="0.00" arrival="520.00" arrivalLane="A3left3_0" arrivalPos="286.40" arrivalSpeed="12.39" duration="487.00" routeLength="2095.69" waitingTime="294.00" waitingCount="4" stopTime="0.00" timeLoss="327.68" rerouteNo="0" devices="tripinfo_10" vType="DEFAULT_VEHTYPE" speedFactor="0.95" vaporized=""/>
    <tripinfo id="12" depart="34.00" departLane="right1D1_0" departPos="5.10" departSpeed="0.00" departDelay="0.00" arrival="541.00" arrivalLane="A3top0_0" arrivalPos="286.40" arrivalSpeed="12.23" duration="507.00" routeLength="2080.28" waitingTime="301.00" waitingCount="5" stopTime="0.00" timeLoss="339.93" rerouteNo="0" devices="tripinfo_12" vType="DEFAULT_VEHTYPE" speedFactor="0.90" vaporized=""/>
    <tripinfo id="63" depart="325.00" departLane="top2C3_0" departPos="5.10" departSpeed="0.00" departDelay="0.00" arrival="557.00" arrivalLane="D3right3_0" arrivalPos="286.40" arrivalSpeed="15.18" duration="232.00" routeLength="895.01" waitingTime="156.00" waitingCount="2" stopTime="0.00" timeLoss="172.94" rerouteNo="0" devices="tripinfo_63" vType="DEFAULT_VEHTYPE" speedFactor="1.10" vaporized=""/>
    <tripinfo id="67" depart="357.00" departLane="bottom2C0_0" departPos="5.10" departSpeed="0.00" departDelay="0.00" arrival="562.00" arrivalLane="A0left0_0" arrivalPos="286.40" arrivalSpeed="12.42" duration="205.00" routeLength="1195.18" waitingTime="87.00" waitingCount="3" stopTime="0.00" timeLoss="110.46" rerouteNo="0" devices="tripinfo_67" vType="DEFAULT_VEHTYPE" speedFactor="0.92" vaporized=""/>
    <tripinfo id="27" depart="126.00" departLane="left2A2_0" departPos="5.10" departSpeed="0.00" departDelay="0.00" arrival="567.00" arrivalLane="C3top2_0" arrivalPos="286.40" arrivalSpeed="15.03" duration="441.00" routeLength="1495.35" waitingTime="315.00" waitingCount="3" stopTime="0.00" timeLoss="341.78" rerouteNo="0" devices="tripinfo_27" vType="DEFAULT_VEHTYPE" speedFactor="1.09" vaporized=""/>
    <tripinfo id="95" depart="439.00" departLane="top0A3_0" departPos="5.10" departSpeed="0.00" departDelay="0.00" arrival="582.00" arrivalLane="B3top1_1" arrivalPos="286.40" arrivalSpeed="13.11" duration="143.00" routeLength="894.86" waitingTime="60.00" waitingCount="2" stopTime="0.00" timeLoss="77.17" rerouteNo="0" devices="tripinfo_95" vType="DEFAULT_VEHTYPE" speedFactor="1.00" vaporized=""/>
    <tripinfo id="98" depart="449.00" departLane="left3A3_0" departPos="5.10" departSpeed="0.00" departDelay="0.00" arrival="585.00" arrivalLane="B3top1_0" arrivalPos="286.40" arrivalSpeed="10.62" duration="136.00" routeLength="897.72" waitingTime="45.00" waitingCount="1" stopTime="0.00" timeLoss="56.63" rerouteNo="0" devices="tripinfo_98" vType="DEFAULT_VEHTYPE" speedFactor="0.83" vaporized=""/>
    <tripinfo id="60" depart="298.00" departLane="right3D3_0" departPos="5.10" departSpeed="0.00" departDelay="0.00" arrival="590.00" arrivalLane="B3top1_0" arrivalPos="286.40" arrivalSpeed="12.96" duration="292.00" routeLength="1177.07" waitingTime="187.00" waitingCount="2" stopTime="0.00" timeLoss="205.35" rerouteNo="0" devices="tripinfo_60" vType="DEFAULT_VEHTYPE" speedFactor="0.99" vaporized=""/>
    <tripinfo id="48" depart="255.00" departLane="top1B3_0" departPos="5.10" departSpeed="0.00" departDelay="0.00" arrival="595.00" arrivalLane="D1right1_0" arrivalPos="286.40" arrivalSpeed="11.95" duration="340.00" routeLength="1795.52" waitingTime="175.00" waitingCount="3" stopTime="0.00" timeLoss="200.41" rerouteNo="0" devices="tripinfo_48" vType="DEFAULT_VEHTYPE" speedFactor="0.93" vaporized=""/>
    <tripinfo id="40" depart="213.00" departLane="right0D0_0" departPos="5.10" departSpeed="0.00" departDelay="0.00" arrival="610.00" arrivalLane="A0bottom0_0" arrivalPos="286.40" arrivalSpeed="12.79" duration="397.00" routeLength="1498.06" waitingTime="247.00" waitingCount="4" stopTime="0.00" timeLoss="282.64" rerouteNo="0" devices="tripinfo_40" vType="DEFAULT_VEHTYPE" speedFactor="0.95" vaporized=""/>
    <tripinfo id="11" depart="34.00" departLane="right0D0_0" departPos="5.10" departSpeed="0.00" departDelay="0.00" arrival="619.00" arrivalLane="A2left2_0" arrivalPos="286.40" arrivalSpeed="14.50" duration="585.00" routeLength="2082.76" waitingTime="393.00" waitingCount="5" stopTime="0.00" timeLoss="443.29" rerouteNo="0" devices="tripinfo_11" vType="DEFAULT_VEHTYPE" speedFactor="1.07" vaporized=""/>
    <tripinfo id="4" depart="17.00" departLane="bottom2C0_0" departPos="5.10" departSpeed="0.00" departDelay="0.00" arrival="630.00" arrivalLane="B3top1_0" arrivalPos="286.40" arrivalSpeed="12.50" duration="613.00" routeLength="1782.59" waitingTime="454.00" waitingCount="2" stopTime="0.00" timeLoss="476.83" rerouteNo="0" devices="tripinfo_4" vType="DEFAULT_VEHTYPE" speedFactor="0.95" vaporized=""/>
    <tripinfo id="6" depart="18.00" departLane="top2C3_0" departPos="5.10" departSpeed="0.00" departDelay="0.00" arrival="630.00" arrivalLane="C0bottom2_0" arrivalPos="286.40" arrivalSpeed="13.27" duration="612.00" routeLength="1495.58" waitingTime="472.00" waitingCount="4" stopTime="0.00" timeLoss="500.73" rerouteNo="0" devices="tripinfo_6" vType="DEFAULT_VEHTYPE" speedFactor="0.97" vaporized=""/>
    <tripinfo id="38" depart="187.00" departLane="bottom1B0_0" departPos="5.10" departSpeed="0.00" departDelay="1.00" arrival="631.00" arrivalLane="B3top1_1" arrivalPos="286.40" arrivalSpeed="13.85" duration="444.00" routeLength="1495.58" waitingTime="308.00" waitingCount="2" stopTime="0.00" timeLoss="338.16" rerouteNo="0" devices="tripinfo_38" vType="DEFAULT_VEHTYPE" speedFactor="1.03" vaporized=""/>
    <tripinfo id="51" depart="269.00" departLane="bottom1B0_0" departPos="5.10" departSpeed="0.00" departDelay="0.00" arrival="634.00" arrivalLane="B3top1_0" arrivalPos="286.40" arrivalSpeed="12.51" duration="365.00" routeLength="1495.58" waitingTime="229.00" waitingCount="1" stopTime="0.00" timeLoss="248.85" rerouteNo="0" devices="tripinfo_51" vType="DEFAULT_VEHTYPE" speedFactor="0.93" vaporized=""/>
    <tripinfo id="66" depart="345.00" departLane="top1B3_0" departPos="5.10" departSpeed="0.00" departDelay="0.00" arrival="647.00" arrivalLane="D3right3_0" arrivalPos="286.40" arrivalSpeed="14.37" duration="302.00" routeLength="1195.18" waitingTime="199.00" waitingCount="3" stopTime="0.00" timeLoss="223.32" rerouteNo="0" devices="tripinfo_66" vType="DEFAULT_VEHTYPE" speedFactor="1.10" vaporized=""/>
    <tripinfo id="78" depart="386.00" departLane="top0A3_0" departPos="5.10" departSpeed="0.00" departDelay="0.00" arrival="651.00" arrivalLane="B0bottom1_0" arrivalPos="286.40" arrivalSpeed="13.57" duration="265.00" routeLength="1782.59" waitingTime="110.00" waitingCount="3" stopTime="0.00" timeLoss="136.91" rerouteNo="0" devices="tripinfo_78" vType="DEFAULT_VEHTYPE" speedFactor="1.02" vaporized=""/>
    <tripinfo id="139" depart="612.00" departLane="bottom3D0_0" departPos="5.10" departSpeed="0.00" departDelay="0.00" arrival="662.00" arrivalLane="D0right0_0" arrivalPos="286.40" arrivalSpeed="15.10" duration="50.00" routeLength="576.73" waitingTime="1.00" waitingCount="1" stopTime="0.00" timeLoss="11.56" rerouteNo="0" devices="tripinfo_139" vType="DEFAULT_VEHTYPE" speedFactor="1.12" vaporized=""/>
    <tripinfo id="69" depart="373.00" departLane="bottom3D0_0" departPos="5.10" departSpeed="0.00" departDelay="0.00" arrival="668.00" arrivalLane="D1right1_1" arrivalPos="286.40" arrivalSpeed="12.43" duration="295.00" routeLength="876.90" waitingTime="209.00" waitingCount="2" stopTime="0.00" timeLoss="226.03" rerouteNo="0" devices="tripinfo_69" vType="DEFAULT_VEHTYPE" speedFactor="0.92" vaporized=""/>
    <tripinfo id="57" depart="282.00" departLane="bottom2C0_0" departPos="5.10" departSpeed="0.00" departDelay="0.00" arrival="669.00" arrivalLane="D1right1_0" arrivalPos="286.40" arrivalSpeed="9.70" duration="387.00" routeLength="1179.77" waitingTime="259.00" waitingCount="2" stopTime="0.00" timeLoss="277.57" rerouteNo="0" devices="tripinfo_57" vType="DEFAULT_VEHTYPE" speedFactor="0.79" vaporized=""/>
    <tripinfo id="96" depart="440.00" departLane="top2C3_0" departPos="5.10" departSpeed="0.00" departDelay="0.00" arrival="673.00" arrivalLane="C3top2_0" arrivalPos="286.40" arrivalSpeed="16.34" duration="233.00" routeLength="1748.75" waitingTime="75.00" waitingCount="5" stopTime="0.00" timeLoss="128.75" rerouteNo="0" devices="tripinfo_96" vType="DEFAULT_VEHTYPE" speedFactor="1.23" vaporized=""/>
    <tripinfo id="116" depart="513.00" departLane="bottom1B0_0" departPos="5.10" departSpeed="0.00" departDelay="0.00" arrival="691.00" arrivalLane="B0bottom1_0" arrivalPos="286.40" arrivalSpeed="11.99" duration="178.00" routeLength="1748.75" waitingTime="16.00" waitingCount="3" stopTime="0.00" timeLoss="39.68" rerouteNo="0" devices="tripinfo_116" vType="DEFAULT_VEHTYPE" speedFactor="0.93" vaporized=""/>
    <tripinfo id="102" depart="467.00" departLane="right2D2_0" departPos="5.10" departSpeed="0.00" departDelay="0.00" arrival="695.00" arrivalLane="A3left3_0" arrivalPos="286.40" arrivalSpeed="13.09" duration="228.00" routeLength="1782.72" waitingTime="66.00" waitingCount="3" stopTime="0.00" timeLoss="93.53" rerouteNo="0" devices="tripinfo_102" vType="DEFAULT_VEHTYPE" speedFactor="0.96" vaporized=""/>
    <tripinfo id="68" depart="357.00" departLane="top3D3_0" departPos="5.10" departSpeed="0.00" departDelay="0.00" arrival="697.00" arrivalLane="A3top0_0" arrivalPos="286.40" arrivalSpeed="11.52" duration="340.00" routeLength="1461.60" waitingTime="200.00" waitingCount="2" stopTime="0.00" timeLoss="222.31" rerouteNo="0" devices="tripinfo_68" vType="DEFAULT_VEHTYPE" speedFactor="0.91" vaporized=""/>
    <tripinfo id="124" depart="535.00" departLane="bottom0A0_0" departPos="5.10" departSpeed="0.00" departDelay="0.00" arrival="698.00" arrivalLane="C0bottom2_1" arrivalPos="286.40" arrivalSpeed="15.41" duration="163.00" routeLength="1161.43" waitingTime="58.00" waitingCount="2" stopTime="0.00" timeLoss="88.30" rerouteNo="0" devices="tripinfo_124" vType="DEFAULT_VEHTYPE" speedFactor="1.14" vaporized=""/>