<?xml version="1.0" encoding="UTF-8"?>

<!-- generated on 2023-08-30 13:33:32 by Eclipse SUMO libsumo Version 1.18.0
<configuration xmlns:xsi="http://www.w3.org/2001/XMLSchema-instance" xsi:noNamespaceSchemaLocation="http://sumo.dlr.de/xsd/libsumoConfiguration.xsd">

    <input>
        <net-file value="/home/stefan/RESCO/./environments/grid4x4/grid4x4.net.xml"/>
        <route-files value="/home/stefan/RESCO/./environments/grid4x4/grid4x4_61.rou.xml"/>
    </input>

    <output>
        <tripinfo-output value="/home/stefan/results/RAINBOW-tr0-grid4x4-0-drq_norm-wait_norm/tripinfo_61.xml"/>
        <tripinfo-output.write-unfinished value="true"/>
    </output>

    <processing>
        <time-to-teleport value="-1"/>
    </processing>

    <report>
        <no-warnings value="True"/>
        <no-step-log value="True"/>
    </report>

    <random_number>
        <random value="true"/>
    </random_number>

</configuration>
-->

<tripinfos xmlns:xsi="http://www.w3.org/2001/XMLSchema-instance" xsi:noNamespaceSchemaLocation="http://sumo.dlr.de/xsd/tripinfo_file.xsd">
    <tripinfo id="0" depart="2.00" departLane="left2A2_0" departPos="5.10" departSpeed="0.00" departDelay="0.00" arrival="138.00" arrivalLane="D3right3_1" arrivalPos="286.40" arrivalSpeed="15.31" duration="136.00" routeLength="1782.59" waitingTime="5.00" waitingCount="1" stopTime="0.00" timeLoss="23.68" rerouteNo="0" devices="tripinfo_0" vType="DEFAULT_VEHTYPE" speedFactor="1.15" vaporized=""/>
    <tripinfo id="1" depart="10.00" departLane="top2C3_0" departPos="5.10" departSpeed="0.00" departDelay="0.00" arrival="141.00" arrivalLane="D3right3_0" arrivalPos="286.40" arrivalSpeed="11.62" duration="131.00" routeLength="895.01" waitingTime="44.00" waitingCount="1" stopTime="0.00" timeLoss="59.68" rerouteNo="0" devices="tripinfo_1" vType="DEFAULT_VEHTYPE" speedFactor="0.92" vaporized=""/>
    <tripinfo id="8" depart="84.00" departLane="left2A2_0" departPos="5.10" departSpeed="0.00" departDelay="0.00" arrival="257.00" arrivalLane="A0left0_0" arrivalPos="286.40" arrivalSpeed="12.76" duration="173.00" routeLength="1161.43" waitingTime="66.00" waitingCount="3" stopTime="0.00" timeLoss="86.79" rerouteNo="0" devices="tripinfo_8" vType="DEFAULT_VEHTYPE" speedFactor="0.99" vaporized=""/>
    <tripinfo id="14" depart="108.00" departLane="top1B3_0" departPos="5.10" departSpeed="0.00" departDelay="0.00" arrival="261.00" arrivalLane="C3top2_0" arrivalPos="286.40" arrivalSpeed="13.74" duration="153.00" routeLength="894.86" waitingTime="78.00" waitingCount="1" stopTime="0.00" timeLoss="90.94" rerouteNo="0" devices="tripinfo_14" vType="DEFAULT_VEHTYPE" speedFactor="1.07" vaporized=""/>
    <tripinfo id="6" depart="82.00" departLane="right1D1_0" departPos="5.10" departSpeed="0.00" departDelay="0.00" arrival="265.00" arrivalLane="D1right1_0" arrivalPos="286.40" arrivalSpeed="11.30" duration="183.00" routeLength="1748.75" waitingTime="9.00" waitingCount="4" stopTime="0.00" timeLoss="39.39" rerouteNo="0" devices="tripinfo_6" vType="DEFAULT_VEHTYPE" speedFactor="0.89" vaporized=""/>
    <tripinfo id="23" depart="179.00" departLane="bottom1B0_0" departPos="5.10" departSpeed="0.00" departDelay="0.00" arrival="276.00" arrivalLane="D0bottom3_0" arrivalPos="286.40" arrivalSpeed="14.00" duration="97.00" routeLength="1161.43" waitingTime="1.00" waitingCount="1" stopTime="0.00" timeLoss="16.53" rerouteNo="0" devices="tripinfo_23" vType="DEFAULT_VEHTYPE" speedFactor="1.06" vaporized=""/>
    <tripinfo id="7" depart="83.00" departLane="right2D2_0" departPos="5.10" departSpeed="0.00" departDelay="0.00" arrival="293.00" arrivalLane="D3top3_0" arrivalPos="286.40" arrivalSpeed="11.72" duration="210.00" routeLength="879.60" waitingTime="118.00" waitingCount="2" stopTime="0.00" timeLoss="134.58" rerouteNo="0" devices="tripinfo_7" vType="DEFAULT_VEHTYPE" speedFactor="0.85" vaporized=""/>
    <tripinfo id="33" depart="206.00" departLane="bottom3D0_0" departPos="5.10" departSpeed="0.00" departDelay="0.00" arrival="297.00" arrivalLane="C0bottom2_0" arrivalPos="286.40" arrivalSpeed="14.73" duration="91.00" routeLength="894.86" waitingTime="17.00" waitingCount="2" stopTime="0.00" timeLoss="32.82" rerouteNo="0" devices="tripinfo_33" vType="DEFAULT_VEHTYPE" speedFactor="1.14" vaporized=""/>
    <tripinfo id="25" depart="182.00" departLane="left1A1_0" departPos="5.10" departSpeed="0.00" departDelay="0.00" arrival="328.00" arrivalLane="A0bottom0_0" arrivalPos="286.40" arrivalSpeed="13.88" duration="146.00" routeLength="879.60" waitingTime="69.00" waitingCount="2" stopTime="0.00" timeLoss="84.16" rerouteNo="0" devices="tripinfo_25" vType="DEFAULT_VEHTYPE" speedFactor="1.03" vaporized=""/>
    <tripinfo id="16" depart="122.00" departLane="right3D3_0" departPos="5.10" departSpeed="0.00" departDelay="0.00" arrival="339.00" arrivalLane="D0bottom3_0" arrivalPos="286.40" arrivalSpeed="12.77" duration="217.00" routeLength="1495.35" waitingTime="87.00" waitingCount="2" stopTime="0.00" timeLoss="106.50" rerouteNo="0" devices="tripinfo_16" vType="DEFAULT_VEHTYPE" speedFactor="0.98" vaporized=""/>
    <tripinfo id="49" depart="275.00" departLane="left1A1_0" departPos="5.10" departSpeed="0.00" departDelay="0.00" arrival="351.00" arrivalLane="A0left0_0" arrivalPos="286.40" arrivalSpeed="13.46" duration="76.00" routeLength="858.56" waitingTime="1.00" waitingCount="1" stopTime="0.00" timeLoss="14.18" rerouteNo="0" devices="tripinfo_49" vType="DEFAULT_VEHTYPE" speedFactor="1.02" vaporized=""/>
    <tripinfo id="13" depart="103.00" departLane="top3D3_0" departPos="5.10" departSpeed="0.00" departDelay="0.00" arrival="353.00" arrivalLane="B3top1_0" arrivalPos="286.40" arrivalSpeed="14.98" duration="250.00" routeLength="1161.43" waitingTime="151.00" waitingCount="3" stopTime="0.00" timeLoss="172.41" rerouteNo="0" devices="tripinfo_13" vType="DEFAULT_VEHTYPE" speedFactor="1.09" vaporized=""/>
    <tripinfo id="50" depart="275.00" departLane="bottom1B0_0" departPos="5.10" departSpeed="0.00" departDelay="0.00" arrival="360.00" arrivalLane="A0left0_0" arrivalPos="286.40" arrivalSpeed="12.85" duration="85.00" routeLength="895.01" waitingTime="1.00" waitingCount="1" stopTime="0.00" timeLoss="15.39" rerouteNo="0" devices="tripinfo_50" vType="DEFAULT_VEHTYPE" speedFactor="0.94" vaporized=""/>
    <tripinfo id="66" depart="313.00" departLane="right3D3_0" departPos="5.10" departSpeed="0.00" departDelay="0.00" arrival="365.00" arrivalLane="D3top3_0" arrivalPos="286.40" arrivalSpeed="13.95" duration="52.00" routeLength="576.73" waitingTime="1.00" waitingCount="1" stopTime="0.00" timeLoss="10.56" rerouteNo="0" devices="tripinfo_66" vType="DEFAULT_VEHTYPE" speedFactor="1.02" vaporized=""/>
    <tripinfo id="35" depart="210.00" departLane="left0A0_0" departPos="5.10" departSpeed="0.00" departDelay="0.00" arrival="378.00" arrivalLane="A0left0_0" arrivalPos="286.40" arrivalSpeed="12.66" duration="168.00" routeLength="1745.91" waitingTime="5.00" waitingCount="3" stopTime="0.00" timeLoss="33.32" rerouteNo="0" devices="tripinfo_35" vType="DEFAULT_VEHTYPE" speedFactor="0.95" vaporized=""/>
    <tripinfo id="65" depart="313.00" departLane="top1B3_0" departPos="5.10" departSpeed="0.00" departDelay="0.00" arrival="387.00" arrivalLane="C3top2_0" arrivalPos="286.40" arrivalSpeed="15.70" duration="74.00" routeLength="894.86" waitingTime="4.00" waitingCount="1" stopTime="0.00" timeLoss="16.94" rerouteNo="0" devices="tripinfo_65" vType="DEFAULT_VEHTYPE" speedFactor="1.15" vaporized=""/>
    <tripinfo id="52" depart="287.00" departLane="bottom2C0_0" departPos="5.10" departSpeed="0.00" departDelay="0.00" arrival="389.00" arrivalLane="D0bottom3_0" arrivalPos="286.40" arrivalSpeed="10.30" duration="102.00" routeLength="858.56" waitingTime="2.00" waitingCount="2" stopTime="0.00" timeLoss="17.88" rerouteNo="0" devices="tripinfo_52" vType="DEFAULT_VEHTYPE" speedFactor="0.75" vaporized=""/>
    <tripinfo id="70" depart="334.00" departLane="bottom1B0_0" departPos="5.10" departSpeed="0.00" departDelay="0.00" arrival="403.00" arrivalLane="C0bottom2_0" arrivalPos="286.40" arrivalSpeed="14.17" duration="69.00" routeLength="858.56" waitingTime="0.00" waitingCount="0" stopTime="0.00" timeLoss="9.00" rerouteNo="0" devices="tripinfo_70" vType="DEFAULT_VEHTYPE" speedFactor="1.07" vaporized=""/>
    <tripinfo id="46" depart="245.00" departLane="top2C3_0" departPos="5.10" departSpeed="0.00" departDelay="0.00" arrival="406.00" arrivalLane="D3top3_0" arrivalPos="286.40" arrivalSpeed="11.64" duration="161.00" routeLength="894.86" waitingTime="79.00" waitingCount="1" stopTime="0.00" timeLoss="90.23" rerouteNo="0" devices="tripinfo_46" vType="DEFAULT_VEHTYPE" speedFactor="0.93" vaporized=""/>
    <tripinfo id="79" depart="373.00" departLane="bottom3D0_0" departPos="5.10" departSpeed="0.00" departDelay="0.00" arrival="418.00" arrivalLane="D0right0_0" arrivalPos="286.40" arrivalSpeed="17.59" duration="45.00" routeLength="576.73" waitingTime="1.00" waitingCount="1" stopTime="0.00" timeLoss="12.04" rerouteNo="0" devices="tripinfo_79" vType="DEFAULT_VEHTYPE" speedFactor="1.30" vaporized=""/>
    <tripinfo id="69" depart="336.00" departLane="top3D3_0" departPos="5.10" departSpeed="0.00" departDelay="3.00" arrival="435.00" arrivalLane="B3top1_0" arrivalPos="286.40" arrivalSpeed="13.84" duration="99.00" routeLength="1161.43" waitingTime="2.00" waitingCount="2" stopTime="0.00" timeLoss="19.43" rerouteNo="0" devices="tripinfo_69" vType="DEFAULT_VEHTYPE" speedFactor="1.07" vaporized=""/>
    <tripinfo id="77" depart="351.00" departLane="bottom2C0_0" departPos="5.10" departSpeed="0.00" departDelay="0.00" arrival="436.00" arrivalLane="D0bottom3_0" arrivalPos="286.40" arrivalSpeed="12.83" duration="85.00" routeLength="858.56" waitingTime="4.00" waitingCount="2" stopTime="0.00" timeLoss="19.90" rerouteNo="0" devices="tripinfo_77" vType="DEFAULT_VEHTYPE" speedFactor="0.98" vaporized=""/>
    <tripinfo id="21" depart="162.00" departLane="left2A2_0" departPos="5.10" departSpeed="0.00" departDelay="0.00" arrival="466.00" arrivalLane="D0bottom3_0" arrivalPos="286.40" arrivalSpeed="15.53" duration="304.00" routeLength="2080.28" waitingTime="135.00" waitingCount="5" stopTime="0.00" timeLoss="176.70" rerouteNo="0" devices="tripinfo_21" vType="DEFAULT_VEHTYPE" speedFactor="1.19" vaporized=""/>
    <tripinfo id="90" depart="417.00" departLane="top0A3_0" departPos="5.10" departSpeed="0.00" departDelay="0.00" arrival="472.00" arrivalLane="A3left3_0" arrivalPos="286.40" arrivalSpeed="13.23" duration="55.00" routeLength="576.73" waitingTime="1.00" waitingCount="1" stopTime="0.00" timeLoss="10.54" rerouteNo="0" devices="tripinfo_90" vType="DEFAULT_VEHTYPE" speedFactor="0.96" vaporized=""/>
    <tripinfo id="19" depart="140.00" departLane="right2D2_0" departPos="5.10" departSpeed="0.00" departDelay="0.00" arrival="474.00" arrivalLane="D1right1_0" arrivalPos="286.40" arrivalSpeed="12.42" duration="334.00" routeLength="894.86" waitingTime="254.00" waitingCount="1" stopTime="0.00" timeLoss="265.62" rerouteNo="0" devices="tripinfo_19" vType="DEFAULT_VEHTYPE" speedFactor="0.96" vaporized=""/>
    <tripinfo id="57" depart="295.00" departLane="left2A2_0" departPos="5.10" departSpeed="0.00" departDelay="0.00" arrival="487.00" arrivalLane="A3left3_0" arrivalPos="286.40" arrivalSpeed="14.88" duration="192.00" routeLength="894.86" waitingTime="122.00" waitingCount="1" stopTime="0.00" timeLoss="134.32" rerouteNo="0" devices="tripinfo_57" vType="DEFAULT_VEHTYPE" speedFactor="1.14" vaporized=""/>
    <tripinfo id="5" depart="74.00" departLane="right1D1_0" departPos="5.10" departSpeed="0.00" departDelay="0.00" arrival="493.00" arrivalLane="D0bottom3_0" arrivalPos="286.40" arrivalSpeed="10.13" duration="419.00" routeLength="895.01" waitingTime="328.00" waitingCount="1" stopTime="0.00" timeLoss="339.04" rerouteNo="0" devices="tripinfo_5" vType="DEFAULT_VEHTYPE" speedFactor="0.82" vaporized=""/>
    <tripinfo id="85" depart="391.00" departLane="bottom2C0_0" departPos="5.10" departSpeed="0.00" departDelay="0.00" arrival="501.00" arrivalLane="D0right0_0" arrivalPos="286.40" arrivalSpeed="12.65" duration="110.00" routeLength="879.60" waitingTime="24.00" waitingCount="2" stopTime="0.00" timeLoss="41.46" rerouteNo="0" devices="tripinfo_85" vType="DEFAULT_VEHTYPE" speedFactor="0.95" vaporized=""/>
    <tripinfo id="88" depart="405.00" departLane="left1A1_0" departPos="5.10" departSpeed="0.00" departDelay="0.00" arrival="502.00" arrivalLane="A0left0_0" arrivalPos="286.40" arrivalSpeed="11.27" duration="97.00" routeLength="858.56" waitingTime="2.00" waitingCount="2" stopTime="0.00" timeLoss="19.30" rerouteNo="0" devices="tripinfo_88" vType="DEFAULT_VEHTYPE" speedFactor="0.82" vaporized=""/>
    <tripinfo id="89" depart="416.00" departLane="left0A0_0" departPos="5.10" departSpeed="0.00" departDelay="0.00" arrival="509.00" arrivalLane="B0bottom1_0" arrivalPos="286.40" arrivalSpeed="14.42" duration="93.00" routeLength="876.90" waitingTime="12.00" waitingCount="2" stopTime="0.00" timeLoss="31.50" rerouteNo="0" devices="tripinfo_89" vType="DEFAULT_VEHTYPE" speedFactor="1.04" vaporized=""/>
    <tripinfo id="67" depart="317.00" departLane="right2D2_0" departPos="5.10" departSpeed="0.00" departDelay="0.00" arrival="529.00" arrivalLane="D3top3_0" arrivalPos="286.40" arrivalSpeed="12.95" duration="212.00" routeLength="879.60" waitingTime="132.00" waitingCount="2" stopTime="0.00" timeLoss="146.99" rerouteNo="0" devices="tripinfo_67" vType="DEFAULT_VEHTYPE" speedFactor="0.99" vaporized=""/>
    <tripinfo id="26" depart="189.00" departLane="right0D0_0" departPos="5.10" departSpeed="0.00" departDelay="0.00" arrival="534.00" arrivalLane="D3top3_0" arrivalPos="286.40" arrivalSpeed="12.39" duration="345.00" routeLength="1479.94" waitingTime="207.00" waitingCount="3" stopTime="0.00" timeLoss="229.72" rerouteNo="0" devices="tripinfo_26" vType="DEFAULT_VEHTYPE" speedFactor="0.93" vaporized=""/>
    <tripinfo id="58" depart="297.00" departLane="left0A0_0" departPos="5.10" departSpeed="0.00" departDelay="0.00" arrival="543.00" arrivalLane="C0bottom2_0" arrivalPos="286.40" arrivalSpeed="13.81" duration="246.00" routeLength="1177.07" waitingTime="139.00" waitingCount="2" stopTime="0.00" timeLoss="159.54" rerouteNo="0" devices="tripinfo_58" vType="DEFAULT_VEHTYPE" speedFactor="1.00" vaporized=""/>
    <tripinfo id="107" depart="483.00" departLane="bottom1B0_0" departPos="5.10" departSpeed="0.00" departDelay="0.00" arrival="557.00" arrivalLane="C0bottom2_0" arrivalPos="286.40" arrivalSpeed="14.52" duration="74.00" routeLength="858.56" waitingTime="1.00" waitingCount="1" stopTime="0.00" timeLoss="13.92" rerouteNo="0" devices="tripinfo_107" vType="DEFAULT_VEHTYPE" speedFactor="1.06" vaporized=""/>
    <tripinfo id="73" depart="342.00" departLane="right3D3_0" departPos="5.10" departSpeed="0.00" departDelay="0.00" arrival="574.00" arrivalLane="C3top2_0" arrivalPos="286.40" arrivalSpeed="10.41" duration="232.00" routeLength="876.90" waitingTime="142.00" waitingCount="2" stopTime="0.00" timeLoss="154.45" rerouteNo="0" devices="tripinfo_73" vType="DEFAULT_VEHTYPE" speedFactor="0.83" vaporized=""/>
    <tripinfo id="78" depart="358.00" departLane="right0D0_0" departPos="5.10" departSpeed="0.00" departDelay="0.00" arrival="578.00" arrivalLane="B0bottom1_0" arrivalPos="286.40" arrivalSpeed="14.12" duration="220.00" routeLength="1197.89" waitingTime="123.00" waitingCount="1" stopTime="0.00" timeLoss="136.42" rerouteNo="0" devices="tripinfo_78" vType="DEFAULT_VEHTYPE" speedFactor="1.04" vaporized=""/>
    <tripinfo id="42" depart="235.00" departLane="bottom2C0_0" departPos="5.10" departSpeed="0.00" departDelay="0.00" arrival="581.00" arrivalLane="B0bottom1_0" arrivalPos="286.40" arrivalSpeed="14.12" duration="346.00" routeLength="894.86" waitingTime="266.00" waitingCount="2" stopTime="0.00" timeLoss="281.88" rerouteNo="0" devices="tripinfo_42" vType="DEFAULT_VEHTYPE" speedFactor="1.04" vaporized=""/>
    <tripinfo id="82" depart="381.00" departLane="left0A0_0" departPos="5.10" departSpeed="0.00" departDelay="0.00" arrival="587.00" arrivalLane="A0left0_1" arrivalPos="286.40" arrivalSpeed="15.28" duration="206.00" routeLength="1745.91" waitingTime="54.00" waitingCount="5" stopTime="0.00" timeLoss="93.80" rerouteNo="0" devices="tripinfo_82" vType="DEFAULT_VEHTYPE" speedFactor="1.15" vaporized=""/>
    <tripinfo id="22" depart="167.00" departLane="bottom2C0_0" departPos="5.10" departSpeed="0.00" departDelay="0.00" arrival="588.00" arrivalLane="D1right1_0" arrivalPos="286.40" arrivalSpeed="13.66" duration="421.00" routeLength="1179.77" waitingTime="316.00" waitingCount="3" stopTime="0.00" timeLoss="337.77" rerouteNo="0" devices="tripinfo_22" vType="DEFAULT_VEHTYPE" speedFactor="1.03" vaporized=""/>
    <tripinfo id="94" depart="437.00" departLane="left3A3_0" departPos="5.10" departSpeed="0.00" departDelay="0.00" arrival="588.00" arrivalLane="A0left0_0" arrivalPos="286.40" arrivalSpeed="11.89" duration="151.00" routeLength="1461.60" waitingTime="9.00" waitingCount="3" stopTime="0.00" timeLoss="37.96" rerouteNo="0" devices="tripinfo_94" vType="DEFAULT_VEHTYPE" speedFactor="0.94" vaporized=""/>
    <tripinfo id="39" depart="213.00" departLane="bottom1B0_0" departPos="5.10" departSpeed="0.00" departDelay="0.00" arrival="591.00" arrivalLane="D1right1_0" arrivalPos="286.40" arrivalSpeed="12.97" duration="378.00" routeLength="1479.94" waitingTime="243.00" waitingCount="3" stopTime="0.00" timeLoss="268.74" rerouteNo="0" devices="tripinfo_39" vType="DEFAULT_VEHTYPE" speedFactor="0.98" vaporized=""/>
    <tripinfo id="3" depart="34.00" departLane="right2D2_0" departPos="5.10" departSpeed="0.00" departDelay="0.00" arrival="592.00" arrivalLane="B3top1_0" arrivalPos="286.40" arrivalSpeed="11.56" duration="558.00" routeLength="1479.94" waitingTime="405.00" waitingCount="3" stopTime="0.00" timeLoss="434.12" rerouteNo="0" devices="tripinfo_3" vType="DEFAULT_VEHTYPE" speedFactor="0.87" vaporized=""/>
    <tripinfo id="45" depart="245.00" departLane="top1B3_0" departPos="5.10" departSpeed="0.00" departDelay="0.00" arrival="594.00" arrivalLane="D1right1_0" arrivalPos="286.40" arrivalSpeed="12.43" duration="349.00" routeLength="1795.52" waitingTime="182.00" waitingCount="3" stopTime="0.00" timeLoss="211.04" rerouteNo="0" devices="tripinfo_45" vType="DEFAULT_VEHTYPE" speedFactor="0.94" vaporized=""/>
    <tripinfo id="113" depart="511.00" departLane="right0D0_0" departPos="5.10" departSpeed="0.00" departDelay="0.00" arrival="599.00" arrivalLane="D1right1_0" arrivalPos="286.40" arrivalSpeed="11.43" duration="88.00" routeLength="858.56" waitingTime="6.00" waitingCount="1" stopTime="0.00" timeLoss="18.09" rerouteNo="0" devices="tripinfo_113" vType="DEFAULT_VEHTYPE" speedFactor="0.90" vaporized=""/>
    <tripinfo id="32" depart="203.00" departLane="right1D1_0" departPos="5.10" departSpeed="0.00" departDelay="0.00" arrival="609.00" arrivalLane="C3top2_0" arrivalPos="286.40" arrivalSpeed="12.89" duration="406.00" routeLength="1479.94" waitingTime="267.00" waitingCount="4" stopTime="0.00" timeLoss="297.95" rerouteNo="0" devices="tripinfo_32" vType="DEFAULT_VEHTYPE" speedFactor="0.99" vaporized=""/>
    <tripinfo id="4" depart="38.00" departLane="right2D2_0" departPos="5.10" departSpeed="0.00" departDelay="0.00" arrival="616.00" arrivalLane="C3top2_0" arrivalPos="286.40" arrivalSpeed="11.16" duration="578.00" routeLength="1179.77" waitingTime="453.00" waitingCount="2" stopTime="0.00" timeLoss="472.81" rerouteNo="0" devices="tripinfo_4" vType="DEFAULT_VEHTYPE" speedFactor="0.82" vaporized=""/>
    <tripinfo id="83" depart="381.00" departLane="top2C3_0" departPos="5.10" departSpeed="0.00" departDelay="0.00" arrival="618.00" arrivalLane="D3right3_0" arrivalPos="286.40" arrivalSpeed="14.66" duration="237.00" routeLength="895.01" waitingTime="160.00" waitingCount="2" stopTime="0.00" timeLoss="176.27" rerouteNo="0" devices="tripinfo_83" vType="DEFAULT_VEHTYPE" speedFactor="1.07" vaporized=""/>
    <tripinfo id="118" depart="522.00" departLane="left3A3_0" departPos="5.10" departSpeed="0.00" departDelay="0.00" arrival="620.00" arrivalLane="A1left1_0" arrivalPos="286.40" arrivalSpeed="13.94" duration="98.00" routeLength="1161.43" waitingTime="1.00" waitingCount="1" stopTime="0.00" timeLoss="14.20" rerouteNo="0" devices="tripinfo_118" vType="DEFAULT_VEHTYPE" speedFactor="1.02" vaporized=""/>
    <tripinfo id="2" depart="32.00" departLane="left0A0_0" departPos="5.10" departSpeed="0.00" departDelay="0.00" arrival="628.00" arrivalLane="D2right2_0" arrivalPos="286.40" arrivalSpeed="13.40" duration="596.00" routeLength="2080.05" waitingTime="414.00" waitingCount="5" stopTime="0.00" timeLoss="452.76" rerouteNo="0" devices="tripinfo_2" vType="DEFAULT_VEHTYPE" speedFactor="1.05" vaporized=""/>
    <tripinfo id="125" depart="558.00" departLane="left1A1_0" departPos="5.10" departSpeed="0.00" departDelay="0.00" arrival="632.00" arrivalLane="A0left0_0" arrivalPos="286.40" arrivalSpeed="15.75" duration="74.00" routeLength="858.56" waitingTime="2.00" waitingCount="2" stopTime="0.00" timeLoss="21.32" rerouteNo="0" devices="tripinfo_125" vType="DEFAULT_VEHTYPE" speedFactor="1.20" vaporized=""/>
    <tripinfo id="24" depart="181.00" departLane="top2C3_0" departPos="5.10" departSpeed="0.00" departDelay="0.00" arrival="640.00" arrivalLane="D0right0_1" arrivalPos="286.40" arrivalSpeed="15.14" duration="459.00" routeLength="1795.52" waitingTime="308.00" waitingCount="4" stopTime="0.00" timeLoss="339.91" rerouteNo="0" devices="tripinfo_24" vType="DEFAULT_VEHTYPE" speedFactor="1.10" vaporized=""/>
    <tripinfo id="34" depart="210.00" departLane="left1A1_0" departPos="5.10" departSpeed="0.00" departDelay="0.00" arrival="646.00" arrivalLane="D0right0_0" arrivalPos="286.40" arrivalSpeed="9.82" duration="436.00" routeLength="1782.72" waitingTime="238.00" waitingCount="3" stopTime="0.00" timeLoss="266.99" rerouteNo="0" devices="tripinfo_34" vType="DEFAULT_VEHTYPE" speedFactor="0.77" vaporized=""/>
    <tripinfo id="9" depart="91.00" departLane="top0A3_0" departPos="5.10" departSpeed="0.00" departDelay="0.00" arrival="657.00" arrivalLane="D3right3_0" arrivalPos="286.40" arrivalSpeed="15.31" duration="566.00" routeLength="1495.35" waitingTime="448.00" waitingCount="2" stopTime="0.00" timeLoss="469.18" rerouteNo="0" devices="tripinfo_9" vType="DEFAULT_VEHTYPE" speedFactor="1.12" vaporized=""/>
    <tripinfo id="123" depart="546.00" departLane="right0D0_0" departPos="5.10" departSpeed="0.00" departDelay="0.00" arrival="710.00" arrivalLane="B0bottom1_0" arrivalPos="286.40" arrivalSpeed="12.43" duration="164.00" routeLength="1197.89" waitingTime="63.00" waitingCount="1" stopTime="0.00" timeLoss="75.16" rerouteNo="0" devices="tripinfo_123" vType="DEFAULT_VEHTYPE" speedFactor="0.98" vaporized=""/>
    <tripinfo id="64" depart="312.00" departLane="bottom2C0_0" departPos="5.10" departSpeed="0.00" departDelay="0.00" arrival="713.00" arrivalLane="D2right2_0" arrivalPos="286.40" arrivalSpeed="11.49" duration="401.00" routeLength="1479.94" waitingTime="243.00" waitingCount="5" stopTime="0.00" timeLoss="275.93" rerouteNo="0" devices="tripinfo_64" vType="DEFAULT_VEHTYPE" speedFactor="0.86" vaporized=""/>
    <tripinfo id="75" depart="348.00" departLane="right3D3_0" departPos="5.10" departSpeed="0.00" departDelay="0.00" arrival="719.00" arrivalLane="D0bottom3_0" arrivalPos="286.40" arrivalSpeed="12.81" duration="371.00" routeLength="1495.35" waitingTime="245.00" waitingCount="2" stopTime="0.00" timeLoss="263.58" rerouteNo="0" devices="tripinfo_75" vType="DEFAULT_VEHTYPE" speedFactor="1.01" vaporized=""/>
    <tripinfo id="119" depart="522.00" departLane="bottom3D0_0" departPos="5.10" departSpeed="0.00" departDelay="0.00" arrival="721.00" arrivalLane="D0bottom3_0" arrivalPos="286.40" arrivalSpeed="13.59" duration="199.00" routeLength="1745.91" waitingTime="38.00" waitingCount="3" stopTime="0.00" timeLoss="70.00" rerouteNo="0" devices="tripinfo_119" vType="DEFAULT_VEHTYPE" speedFactor="0.99" vaporized=""/>
    <tripinfo id="104" depart="477.00" departLane="right3D3_0" departPos="5.10" departSpeed="0.00" departDelay="0.00" arrival="728.00" arrivalLane="A3top0_0" arrivalPos="286.40" arrivalSpeed="13.08" duration="251.00" routeLength="1477.24" waitingTime="114.00" waitingCount="4" stopTime="0.00" timeLoss="143.04" rerouteNo="0" devices="tripinfo_104" vType="DEFAULT_VEHTYPE" speedFactor="0.99" vaporized=""/>
    <tripinfo id="108" depart="484.00" departLane="left1A1_0" departPos="5.10" departSpeed="0.00" departDelay="0.00" arrival="728.00" arrivalLane="A0bottom0_0" arrivalPos="286.40" arrivalSpeed="13.98" duration="244.00" routeLength="879.60" waitingTime="165.00" waitingCount="2" stopTime="0.00" timeLoss="182.24" rerouteNo="0" devices="tripinfo_108" vType="DEFAULT_VEHTYPE" speedFactor="1.03" vaporized=""/>
    <tripinfo id="143" depart="638.00" departLane="top2C3_0" departPos="5.10" departSpeed="0.00" departDelay="0.00" arrival="729.00" arrivalLane="D3top3_0" arrivalPos="286.40" arrivalSpeed="13.74" duration="91.00" routeLength="894.86" waitingTime="9.00" waitingCount="2" stopTime="0.00" timeLoss="26.14" rerouteNo="0" devices="tripinfo_143" vType="DEFAULT_VEHTYPE" speedFactor="1.01" vaporized=""/>
    <tripinfo id="150" depart="651.00" departLane="top0A3_0" departPos="5.10" departSpeed="0.00" departDelay="0.00" arrival="733.00" arrivalLane="B3top1_0" arrivalPos="286.40" arrivalSpeed="13.93" duration="82.00" routeLength="894.86" waitingTime="9.00" waitingCount="1" stopTime="0.00" timeLoss="20.89" rerouteNo="0" devices="tripinfo_150" vType="DEFAULT_VEHTYPE" speedFactor="1.07" vaporized=""/>
    <tripinfo id="135" depart="598.00" departLane="left3A3_0" departPos="5.10" departSpeed="0.00" departDelay="0.00" arrival="745.00" arrivalLane="A0left0_0" arrivalPos="286.40" arrivalSpeed="11.08" duration="147.00" routeLength="1461.60" waitingTime="2.00" waitingCount="2" stopTime="0.00" timeLoss="21.91" rerouteNo="0" devices="tripinfo_135" vType="DEFAULT_VEHTYPE" speedFactor="0.86" vaporized=""/>
    <tripinfo id="56" depart="290.00" departLane="left1A1_0" departPos="5.10" departSpeed="0.00" departDelay="0.00" arrival="748.00" arrivalLane="C3top2_0" arrivalPos="286.40" arrivalSpeed="14.03" duration="458.00" routeLength="1795.52" waitingTime="298.00" waitingCount="4" stopTime="0.00" timeLoss="338.09" rerouteNo="0" devices="tripinfo_56" vType="DEFAULT_VEHTYPE" speedFactor="1.08" vaporized=""/>
    <tripinfo id="84" depart="383.00" departLane="bottom3D0_0" departPos="5.10" departSpeed="0.00" departDelay="0.00" arrival="751.00" arrivalLane="A0left0_0" arrivalPos="286.40" arrivalSpeed="12.91" duration="368.00" routeLength="1495.35" waitingTime="240.00" waitingCount="2" stopTime="0.00" timeLoss="261.83" rerouteNo="0" devices="tripinfo_84" vType="DEFAULT_VEHTYPE" speedFactor="1.02" vaporized=""/>
    <tripinfo id="147" depart="650.00" departLane="top3D3_0" departPos="5.10" departSpeed="0.00" departDelay="0.00" arrival="753.00" arrivalLane="B3top1_0" arrivalPos="286.40" arrivalSpeed="14.11" duration="103.00" routeLength="1161.43" waitingTime="2.00" waitingCount="2" stopTime="0.00" timeLoss="20.55" rerouteNo="0" devices="tripinfo_147" vType="DEFAULT_VEHTYPE" speedFactor="1.04" vaporized=""/>
    <tripinfo id="111" depart="496.00" departLane="bottom3D0_0" departPos="5.10" departSpeed="0.00" departDelay="0.00" arrival="755.00" arrivalLane="A0left0_0" arrivalPos="286.40" arrivalSpeed="12.83" duration="259.00" routeLength="1495.35" waitingTime="131.00" waitingCount="2" stopTime="0.00" timeLoss="148.30" rerouteNo="0" devices="tripinfo_111" vType="DEFAULT_VEHTYPE" speedFactor="0.98" vaporized=""/>
    <tripinfo id="145" depart="643.00" departLane="left2A2_0" departPos="5.10" departSpeed="0.00" departDelay="3.00" arrival="756.00" arrivalLane="A0left0_1" arrivalPos="286.40" arrivalSpeed="14.35" duration="113.00" routeLength="1161.43" waitingTime="12.00" waitingCount="2" stopTime="0.00" timeLoss="33.64" rerouteNo="0" devices="tripinfo_145" vType="DEFAULT_VEHTYPE" speedFactor="1.08" vaporized=""/>
    <tripinfo id="156" depart="674.00" departLane="top1B3_0" departPos="5.10" departSpeed="0.00" departDelay="0.00" arrival="758.00" arrivalLane="A3top0_0" arrivalPos="286.40" arrivalSpeed="11.56" duration="84.00" routeLength="858.56" waitingTime="2.00" waitingCount="2" stopTime="0.00" timeLoss="15.62" rerouteNo="0" devices="tripinfo_156" vType="DEFAULT_VEHTYPE" speedFactor="0.92" vaporized=""/>
    <tripinfo id="44" depart="242.00" departLane="left1A1_0" departPos="5.10" departSpeed="0.00" departDelay="0.00" arrival="772.00" arrivalLane="A3left3_0" arrivalPos="286.40" arrivalSpeed="11.74" duration="530.00" routeLength="1197.66" waitingTime="412.00" waitingCount="3" stopTime="0.00" timeLoss="433.27" rerouteNo="0" devices="tripinfo_44" vType="DEFAULT_VEHTYPE" speedFactor="0.91" vaporized=""/>
    <tripinfo id="177" depart="729.00" departLane="right0D0_0" departPos="5.10" departSpeed="0.00" departDelay="0.00" arrival="776.00" arrivalLane="D0bottom3_0" arrivalPos="286.40" arrivalSpeed="13.79" duration="47.00" routeLength="597.55" waitingTime="0.00" waitingCount="0" stopTime="0.00" timeLoss="5.82" rerouteNo="0" devices="tripinfo_177" vType="DEFAULT_VEHTYPE" speedFactor="1.07" vaporized=""/>
    <tripinfo id="115" depart="512.00" departLane="top2C3_0" departPos="5.10" departSpeed="0.00" departDelay="0.00" arrival="779.00" arrivalLane="A3left3_0" arrivalPos="286.40" arrivalSpeed="13.46" duration="267.00" routeLength="1179.77" waitingTime="158.00" waitingCount="3" stopTime="0.00" timeLoss="180.71" rerouteNo="0" devices="tripinfo_115" vType="DEFAULT_VEHTYPE" speedFactor="1.00" vaporized=""/>