<?xml version="1.0" encoding="UTF-8"?>

<!-- generated on 2023-08-30 13:26:23 by Eclipse SUMO libsumo Version 1.18.0
<configuration xmlns:xsi="http://www.w3.org/2001/XMLSchema-instance" xsi:noNamespaceSchemaLocation="http://sumo.dlr.de/xsd/libsumoConfiguration.xsd">

    <input>
        <net-file value="/home/stefan/RESCO/./environments/grid4x4/grid4x4.net.xml"/>
        <route-files value="/home/stefan/RESCO/./environments/grid4x4/grid4x4_50.rou.xml"/>
    </input>

    <output>
        <tripinfo-output value="/home/stefan/results/RAINBOW-tr0-grid4x4-0-drq_norm-wait_norm/tripinfo_50.xml"/>
        <tripinfo-output.write-unfinished value="true"/>
    </output>

    <processing>
        <time-to-teleport value="-1"/>
    </processing>

    <report>
        <no-warnings value="True"/>
        <no-step-log value="True"/>
    </report>

    <random_number>
        <random value="true"/>
    </random_number>

</configuration>
-->

<tripinfos xmlns:xsi="http://www.w3.org/2001/XMLSchema-instance" xsi:noNamespaceSchemaLocation="http://sumo.dlr.de/xsd/tripinfo_file.xsd">
    <tripinfo id="20" depart="58.00" departLane="bottom2C0_0" departPos="5.10" departSpeed="0.00" departDelay="0.00" arrival="131.00" arrivalLane="D0bottom3_0" arrivalPos="286.40" arrivalSpeed="15.45" duration="73.00" routeLength="858.56" waitingTime="1.00" waitingCount="1" stopTime="0.00" timeLoss="15.32" rerouteNo="0" devices="tripinfo_20" vType="DEFAULT_VEHTYPE" speedFactor="1.11" vaporized=""/>
    <tripinfo id="12" depart="44.00" departLane="bottom0A0_0" departPos="5.10" departSpeed="0.00" departDelay="0.00" arrival="138.00" arrivalLane="A2left2_0" arrivalPos="286.40" arrivalSpeed="13.81" duration="94.00" routeLength="1197.89" waitingTime="1.00" waitingCount="1" stopTime="0.00" timeLoss="13.83" rerouteNo="0" devices="tripinfo_12" vType="DEFAULT_VEHTYPE" speedFactor="1.08" vaporized=""/>
    <tripinfo id="13" depart="48.00" departLane="left3A3_0" departPos="5.10" departSpeed="0.00" departDelay="0.00" arrival="149.00" arrivalLane="A3top0_0" arrivalPos="286.40" arrivalSpeed="14.03" duration="101.00" routeLength="597.55" waitingTime="47.00" waitingCount="1" stopTime="0.00" timeLoss="57.79" rerouteNo="0" devices="tripinfo_13" vType="DEFAULT_VEHTYPE" speedFactor="1.01" vaporized=""/>
    <tripinfo id="6" depart="30.00" departLane="bottom0A0_0" departPos="5.10" departSpeed="0.00" departDelay="0.00" arrival="178.00" arrivalLane="A3top0_0" arrivalPos="286.40" arrivalSpeed="14.39" duration="148.00" routeLength="1495.58" waitingTime="20.00" waitingCount="3" stopTime="0.00" timeLoss="47.56" rerouteNo="0" devices="tripinfo_6" vType="DEFAULT_VEHTYPE" speedFactor="1.07" vaporized=""/>
    <tripinfo id="36" depart="131.00" departLane="right0D0_0" departPos="5.10" departSpeed="0.00" departDelay="0.00" arrival="182.00" arrivalLane="D0bottom3_0" arrivalPos="286.40" arrivalSpeed="12.61" duration="51.00" routeLength="597.55" waitingTime="0.00" waitingCount="0" stopTime="0.00" timeLoss="5.19" rerouteNo="0" devices="tripinfo_36" vType="DEFAULT_VEHTYPE" speedFactor="0.96" vaporized=""/>
    <tripinfo id="9" depart="35.00" departLane="top2C3_0" departPos="5.10" departSpeed="0.00" departDelay="0.00" arrival="187.00" arrivalLane="A3left3_0" arrivalPos="286.40" arrivalSpeed="14.42" duration="152.00" routeLength="1179.77" waitingTime="49.00" waitingCount="3" stopTime="0.00" timeLoss="72.53" rerouteNo="0" devices="tripinfo_9" vType="DEFAULT_VEHTYPE" speedFactor="1.08" vaporized=""/>
    <tripinfo id="24" depart="78.00" departLane="right1D1_0" departPos="5.10" departSpeed="0.00" departDelay="0.00" arrival="189.00" arrivalLane="D3top3_0" arrivalPos="286.40" arrivalSpeed="13.36" duration="111.00" routeLength="1179.77" waitingTime="14.00" waitingCount="1" stopTime="0.00" timeLoss="28.96" rerouteNo="0" devices="tripinfo_24" vType="DEFAULT_VEHTYPE" speedFactor="1.05" vaporized=""/>
    <tripinfo id="33" depart="110.00" departLane="right1D1_0" departPos="5.10" departSpeed="0.00" departDelay="0.00" arrival="191.00" arrivalLane="D2right2_0" arrivalPos="286.40" arrivalSpeed="12.39" duration="81.00" routeLength="858.56" waitingTime="1.00" waitingCount="1" stopTime="0.00" timeLoss="16.28" rerouteNo="0" devices="tripinfo_33" vType="DEFAULT_VEHTYPE" speedFactor="0.97" vaporized=""/>
    <tripinfo id="37" depart="139.00" departLane="right3D3_0" departPos="5.10" departSpeed="0.00" departDelay="0.00" arrival="193.00" arrivalLane="D3top3_0" arrivalPos="286.40" arrivalSpeed="13.58" duration="54.00" routeLength="576.73" waitingTime="3.00" waitingCount="1" stopTime="0.00" timeLoss="12.77" rerouteNo="0" devices="tripinfo_37" vType="DEFAULT_VEHTYPE" speedFactor="1.02" vaporized=""/>
    <tripinfo id="4" depart="13.00" departLane="right0D0_0" departPos="5.10" departSpeed="0.00" departDelay="0.00" arrival="217.00" arrivalLane="A0left0_0" arrivalPos="286.40" arrivalSpeed="13.74" duration="204.00" routeLength="1495.58" waitingTime="78.00" waitingCount="3" stopTime="0.00" timeLoss="104.17" rerouteNo="0" devices="tripinfo_4" vType="DEFAULT_VEHTYPE" speedFactor="1.08" vaporized=""/>
    <tripinfo id="43" depart="163.00" departLane="right0D0_0" departPos="5.10" departSpeed="0.00" departDelay="0.00" arrival="238.00" arrivalLane="C0bottom2_0" arrivalPos="286.40" arrivalSpeed="15.03" duration="75.00" routeLength="897.72" waitingTime="5.00" waitingCount="1" stopTime="0.00" timeLoss="15.02" rerouteNo="0" devices="tripinfo_43" vType="DEFAULT_VEHTYPE" speedFactor="1.10" vaporized=""/>
    <tripinfo id="55" depart="214.00" departLane="left0A0_0" departPos="5.10" departSpeed="0.00" departDelay="0.00" arrival="264.00" arrivalLane="A0bottom0_0" arrivalPos="286.40" arrivalSpeed="14.61" duration="50.00" routeLength="576.73" waitingTime="1.00" waitingCount="1" stopTime="0.00" timeLoss="10.47" rerouteNo="0" devices="tripinfo_55" vType="DEFAULT_VEHTYPE" speedFactor="1.07" vaporized=""/>
    <tripinfo id="16" depart="51.00" departLane="right0D0_0" departPos="5.10" departSpeed="0.00" departDelay="0.00" arrival="277.00" arrivalLane="D0right0_0" arrivalPos="286.40" arrivalSpeed="14.62" duration="226.00" routeLength="1748.75" waitingTime="75.00" waitingCount="4" stopTime="0.00" timeLoss="106.51" rerouteNo="0" devices="tripinfo_16" vType="DEFAULT_VEHTYPE" speedFactor="1.07" vaporized=""/>
    <tripinfo id="51" depart="203.00" departLane="right2D2_0" departPos="5.10" departSpeed="0.00" departDelay="0.00" arrival="277.00" arrivalLane="D3right3_0" arrivalPos="286.40" arrivalSpeed="15.06" duration="74.00" routeLength="858.56" waitingTime="2.00" waitingCount="2" stopTime="0.00" timeLoss="16.97" rerouteNo="0" devices="tripinfo_51" vType="DEFAULT_VEHTYPE" speedFactor="1.12" vaporized=""/>
    <tripinfo id="0" depart="1.00" departLane="left1A1_0" departPos="5.10" departSpeed="0.00" departDelay="0.00" arrival="278.00" arrivalLane="B0bottom1_0" arrivalPos="286.40" arrivalSpeed="15.83" duration="277.00" routeLength="1179.77" waitingTime="187.00" waitingCount="1" stopTime="0.00" timeLoss="200.85" rerouteNo="0" devices="tripinfo_0" vType="DEFAULT_VEHTYPE" speedFactor="1.14" vaporized=""/>
    <tripinfo id="14" depart="48.00" departLane="right2D2_0" departPos="5.10" departSpeed="0.00" departDelay="0.00" arrival="282.00" arrivalLane="D0bottom3_0" arrivalPos="286.40" arrivalSpeed="11.14" duration="234.00" routeLength="1195.18" waitingTime="115.00" waitingCount="2" stopTime="0.00" timeLoss="135.01" rerouteNo="0" devices="tripinfo_14" vType="DEFAULT_VEHTYPE" speedFactor="0.88" vaporized=""/>
    <tripinfo id="15" depart="49.00" departLane="right3D3_0" departPos="5.10" departSpeed="0.00" departDelay="0.00" arrival="300.00" arrivalLane="D3right3_0" arrivalPos="286.40" arrivalSpeed="12.09" duration="251.00" routeLength="1745.91" waitingTime="82.00" waitingCount="4" stopTime="0.00" timeLoss="113.79" rerouteNo="0" devices="tripinfo_15" vType="DEFAULT_VEHTYPE" speedFactor="0.93" vaporized=""/>
    <tripinfo id="52" depart="206.00" departLane="right2D2_0" departPos="5.10" departSpeed="0.00" departDelay="3.00" arrival="305.00" arrivalLane="D0right0_0" arrivalPos="286.40" arrivalSpeed="13.48" duration="99.00" routeLength="1197.66" waitingTime="0.00" waitingCount="0" stopTime="0.00" timeLoss="12.29" rerouteNo="0" devices="tripinfo_52" vType="DEFAULT_VEHTYPE" speedFactor="1.01" vaporized=""/>
    <tripinfo id="27" depart="85.00" departLane="top2C3_0" departPos="5.10" departSpeed="0.00" departDelay="0.00" arrival="310.00" arrivalLane="C3top2_0" arrivalPos="286.40" arrivalSpeed="12.79" duration="225.00" routeLength="1748.75" waitingTime="67.00" waitingCount="4" stopTime="0.00" timeLoss="94.26" rerouteNo="0" devices="tripinfo_27" vType="DEFAULT_VEHTYPE" speedFactor="0.98" vaporized=""/>
    <tripinfo id="22" depart="70.00" departLane="right2D2_0" departPos="5.10" departSpeed="0.00" departDelay="0.00" arrival="323.00" arrivalLane="C3top2_0" arrivalPos="286.40" arrivalSpeed="12.80" duration="253.00" routeLength="1179.77" waitingTime="148.00" waitingCount="2" stopTime="0.00" timeLoss="165.90" rerouteNo="0" devices="tripinfo_22" vType="DEFAULT_VEHTYPE" speedFactor="0.99" vaporized=""/>
    <tripinfo id="11" depart="44.00" departLane="top2C3_0" departPos="5.10" departSpeed="0.00" departDelay="0.00" arrival="337.00" arrivalLane="D0bottom3_0" arrivalPos="286.40" arrivalSpeed="14.18" duration="293.00" routeLength="1782.59" waitingTime="139.00" waitingCount="5" stopTime="0.00" timeLoss="174.92" rerouteNo="0" devices="tripinfo_11" vType="DEFAULT_VEHTYPE" speedFactor="1.09" vaporized=""/>
    <tripinfo id="19" depart="58.00" departLane="right0D0_0" departPos="5.10" departSpeed="0.00" departDelay="0.00" arrival="343.00" arrivalLane="A1left1_0" arrivalPos="286.40" arrivalSpeed="11.33" duration="285.00" routeLength="1782.72" waitingTime="99.00" waitingCount="5" stopTime="0.00" timeLoss="133.75" rerouteNo="0" devices="tripinfo_19" vType="DEFAULT_VEHTYPE" speedFactor="0.86" vaporized=""/>
    <tripinfo id="17" depart="52.00" departLane="bottom0A0_0" departPos="5.10" departSpeed="0.00" departDelay="0.00" arrival="361.00" arrivalLane="A2left2_0" arrivalPos="286.40" arrivalSpeed="11.43" duration="309.00" routeLength="1197.89" waitingTime="202.00" waitingCount="1" stopTime="0.00" timeLoss="213.90" rerouteNo="0" devices="tripinfo_17" vType="DEFAULT_VEHTYPE" speedFactor="0.91" vaporized=""/>
    <tripinfo id="39" depart="158.00" departLane="left1A1_0" departPos="5.10" departSpeed="0.00" departDelay="0.00" arrival="370.00" arrivalLane="A2left2_0" arrivalPos="286.40" arrivalSpeed="9.26" duration="212.00" routeLength="894.86" waitingTime="108.00" waitingCount="2" stopTime="0.00" timeLoss="124.11" rerouteNo="0" devices="tripinfo_39" vType="DEFAULT_VEHTYPE" speedFactor="0.75" vaporized=""/>
    <tripinfo id="47" depart="183.00" departLane="right0D0_0" departPos="5.10" departSpeed="0.00" departDelay="0.00" arrival="371.00" arrivalLane="D3top3_0" arrivalPos="286.40" arrivalSpeed="11.57" duration="188.00" routeLength="1479.94" waitingTime="50.00" waitingCount="2" stopTime="0.00" timeLoss="70.46" rerouteNo="0" devices="tripinfo_47" vType="DEFAULT_VEHTYPE" speedFactor="0.91" vaporized=""/>
    <tripinfo id="29" depart="99.00" departLane="right0D0_0" departPos="5.10" departSpeed="0.00" departDelay="0.00" arrival="377.00" arrivalLane="A3top0_1" arrivalPos="286.40" arrivalSpeed="14.47" duration="278.00" routeLength="2380.45" waitingTime="83.00" waitingCount="3" stopTime="0.00" timeLoss="122.31" rerouteNo="0" devices="tripinfo_29" vType="DEFAULT_VEHTYPE" speedFactor="1.11" vaporized=""/>
    <tripinfo id="35" depart="118.00" departLane="top3D3_0" departPos="5.10" departSpeed="0.00" departDelay="0.00" arrival="377.00" arrivalLane="A1left1_0" arrivalPos="286.40" arrivalSpeed="14.96" duration="259.00" routeLength="2080.28" waitingTime="73.00" waitingCount="4" stopTime="0.00" timeLoss="122.02" rerouteNo="0" devices="tripinfo_35" vType="DEFAULT_VEHTYPE" speedFactor="1.10" vaporized=""/>
    <tripinfo id="30" depart="100.00" departLane="bottom1B0_0" departPos="5.10" departSpeed="0.00" departDelay="0.00" arrival="380.00" arrivalLane="A3top0_0" arrivalPos="286.40" arrivalSpeed="10.49" duration="280.00" routeLength="1782.59" waitingTime="97.00" waitingCount="3" stopTime="0.00" timeLoss="126.96" rerouteNo="0" devices="tripinfo_30" vType="DEFAULT_VEHTYPE" speedFactor="0.85" vaporized=""/>
    <tripinfo id="8" depart="32.00" departLane="left0A0_0" departPos="5.10" departSpeed="0.00" departDelay="0.00" arrival="382.00" arrivalLane="D0right0_0" arrivalPos="286.40" arrivalSpeed="11.82" duration="350.00" routeLength="1495.58" waitingTime="198.00" waitingCount="3" stopTime="0.00" timeLoss="226.31" rerouteNo="0" devices="tripinfo_8" vType="DEFAULT_VEHTYPE" speedFactor="0.87" vaporized=""/>
    <tripinfo id="1" depart="5.00" departLane="left1A1_0" departPos="5.10" departSpeed="0.00" departDelay="0.00" arrival="386.00" arrivalLane="D0bottom3_0" arrivalPos="286.40" arrivalSpeed="13.87" duration="381.00" routeLength="1780.11" waitingTime="233.00" waitingCount="3" stopTime="0.00" timeLoss="258.00" rerouteNo="0" devices="tripinfo_1" vType="DEFAULT_VEHTYPE" speedFactor="1.05" vaporized=""/>
    <tripinfo id="54" depart="211.00" departLane="bottom0A0_0" departPos="5.10" departSpeed="0.00" departDelay="0.00" arrival="400.00" arrivalLane="A1left1_0" arrivalPos="286.40" arrivalSpeed="12.57" duration="189.00" routeLength="897.72" waitingTime="111.00" waitingCount="1" stopTime="0.00" timeLoss="122.93" rerouteNo="0" devices="tripinfo_54" vType="DEFAULT_VEHTYPE" speedFactor="1.00" vaporized=""/>
    <tripinfo id="58" depart="241.00" departLane="bottom3D0_0" departPos="5.10" departSpeed="0.00" departDelay="0.00" arrival="408.00" arrivalLane="D2right2_0" arrivalPos="286.40" arrivalSpeed="11.30" duration="167.00" routeLength="1177.07" waitingTime="52.00" waitingCount="2" stopTime="0.00" timeLoss="72.75" rerouteNo="0" devices="tripinfo_58" vType="DEFAULT_VEHTYPE" speedFactor="0.91" vaporized=""/>
    <tripinfo id="42" depart="162.00" departLane="left2A2_0" departPos="5.10" departSpeed="0.00" departDelay="0.00" arrival="410.00" arrivalLane="C0bottom2_0" arrivalPos="286.40" arrivalSpeed="13.12" duration="248.00" routeLength="1780.11" waitingTime="82.00" waitingCount="3" stopTime="0.00" timeLoss="111.68" rerouteNo="0" devices="tripinfo_42" vType="DEFAULT_VEHTYPE" speedFactor="0.94" vaporized=""/>
    <tripinfo id="50" depart="198.00" departLane="left0A0_0" departPos="5.10" departSpeed="0.00" departDelay="0.00" arrival="416.00" arrivalLane="C0bottom2_0" arrivalPos="286.40" arrivalSpeed="10.96" duration="218.00" routeLength="1177.07" waitingTime="97.00" waitingCount="3" stopTime="0.00" timeLoss="120.32" rerouteNo="0" devices="tripinfo_50" vType="DEFAULT_VEHTYPE" speedFactor="0.88" vaporized=""/>
    <tripinfo id="56" depart="215.00" departLane="left1A1_0" departPos="5.10" departSpeed="0.00" departDelay="0.00" arrival="428.00" arrivalLane="A3left3_0" arrivalPos="286.40" arrivalSpeed="14.90" duration="213.00" routeLength="1197.66" waitingTime="108.00" waitingCount="3" stopTime="0.00" timeLoss="134.05" rerouteNo="0" devices="tripinfo_56" vType="DEFAULT_VEHTYPE" speedFactor="1.12" vaporized=""/>
    <tripinfo id="7" depart="30.00" departLane="top0A3_0" departPos="5.10" departSpeed="0.00" departDelay="0.00" arrival="432.00" arrivalLane="B0bottom1_0" arrivalPos="286.40" arrivalSpeed="13.19" duration="402.00" routeLength="1782.59" waitingTime="247.00" waitingCount="3" stopTime="0.00" timeLoss="272.85" rerouteNo="0" devices="tripinfo_7" vType="DEFAULT_VEHTYPE" speedFactor="1.01" vaporized=""/>
    <tripinfo id="49" depart="193.00" departLane="right2D2_0" departPos="5.10" departSpeed="0.00" departDelay="0.00" arrival="434.00" arrivalLane="B0bottom1_0" arrivalPos="286.40" arrivalSpeed="12.43" duration="241.00" routeLength="1795.52" waitingTime="83.00" waitingCount="3" stopTime="0.00" timeLoss="109.31" rerouteNo="0" devices="tripinfo_49" vType="DEFAULT_VEHTYPE" speedFactor="0.99" vaporized=""/>
    <tripinfo id="34" depart="112.00" departLane="bottom1B0_0" departPos="5.10" departSpeed="0.00" departDelay="0.00" arrival="435.00" arrivalLane="C3top2_0" arrivalPos="286.40" arrivalSpeed="12.64" duration="323.00" routeLength="1782.72" waitingTime="155.00" waitingCount="3" stopTime="0.00" timeLoss="183.15" rerouteNo="0" devices="tripinfo_34" vType="DEFAULT_VEHTYPE" speedFactor="0.93" vaporized=""/>
    <tripinfo id="60" depart="252.00" departLane="top2C3_0" departPos="5.10" departSpeed="0.00" departDelay="0.00" arrival="436.00" arrivalLane="A3top0_0" arrivalPos="286.40" arrivalSpeed="14.81" duration="184.00" routeLength="1161.43" waitingTime="81.00" waitingCount="3" stopTime="0.00" timeLoss="108.19" rerouteNo="0" devices="tripinfo_60" vType="DEFAULT_VEHTYPE" speedFactor="1.12" vaporized=""/>
    <tripinfo id="21" depart="66.00" departLane="right1D1_0" departPos="5.10" departSpeed="0.00" departDelay="0.00" arrival="439.00" arrivalLane="A0left0_0" arrivalPos="286.40" arrivalSpeed="14.08" duration="373.00" routeLength="1782.59" waitingTime="215.00" waitingCount="4" stopTime="0.00" timeLoss="246.81" rerouteNo="0" devices="tripinfo_21" vType="DEFAULT_VEHTYPE" speedFactor="1.03" vaporized=""/>
    <tripinfo id="32" depart="107.00" departLane="top2C3_0" departPos="5.10" departSpeed="0.00" departDelay="0.00" arrival="439.00" arrivalLane="D2right2_0" arrivalPos="286.40" arrivalSpeed="13.11" duration="332.00" routeLength="1195.18" waitingTime="223.00" waitingCount="3" stopTime="0.00" timeLoss="246.26" rerouteNo="0" devices="tripinfo_32" vType="DEFAULT_VEHTYPE" speedFactor="1.02" vaporized=""/>
    <tripinfo id="23" depart="72.00" departLane="top0A3_0" departPos="5.10" departSpeed="0.00" departDelay="0.00" arrival="445.00" arrivalLane="B0bottom1_0" arrivalPos="286.40" arrivalSpeed="11.20" duration="373.00" routeLength="1782.59" waitingTime="188.00" waitingCount="4" stopTime="0.00" timeLoss="217.92" rerouteNo="0" devices="tripinfo_23" vType="DEFAULT_VEHTYPE" speedFactor="0.84" vaporized=""/>
    <tripinfo id="75" depart="378.00" departLane="bottom1B0_0" departPos="5.10" departSpeed="0.00" departDelay="0.00" arrival="446.00" arrivalLane="C0bottom2_0" arrivalPos="286.40" arrivalSpeed="14.44" duration="68.00" routeLength="858.56" waitingTime="0.00" waitingCount="0" stopTime="0.00" timeLoss="9.00" rerouteNo="0" devices="tripinfo_75" vType="DEFAULT_VEHTYPE" speedFactor="1.07" vaporized=""/>
    <tripinfo id="66" depart="338.00" departLane="top0A3_0" departPos="5.10" departSpeed="0.00" departDelay="0.00" arrival="447.00" arrivalLane="A1left1_0" arrivalPos="286.40" arrivalSpeed="13.02" duration="109.00" routeLength="1177.07" waitingTime="8.00" waitingCount="1" stopTime="0.00" timeLoss="21.88" rerouteNo="0" devices="tripinfo_66" vType="DEFAULT_VEHTYPE" speedFactor="0.98" vaporized=""/>
    <tripinfo id="70" depart="346.00" departLane="top0A3_0" departPos="5.10" departSpeed="0.00" departDelay="0.00" arrival="449.00" arrivalLane="A1left1_0" arrivalPos="286.40" arrivalSpeed="13.67" duration="103.00" routeLength="1177.07" waitingTime="3.00" waitingCount="1" stopTime="0.00" timeLoss="19.02" rerouteNo="0" devices="tripinfo_70" vType="DEFAULT_VEHTYPE" speedFactor="1.03" vaporized=""/>
    <tripinfo id="74" depart="378.00" departLane="left0A0_0" departPos="5.10" departSpeed="0.00" departDelay="0.00" arrival="454.00" arrivalLane="B0bottom1_0" arrivalPos="286.40" arrivalSpeed="13.79" duration="76.00" routeLength="876.90" waitingTime="1.00" waitingCount="1" stopTime="0.00" timeLoss="13.93" rerouteNo="0" devices="tripinfo_74" vType="DEFAULT_VEHTYPE" speedFactor="1.03" vaporized=""/>
    <tripinfo id="28" depart="93.00" departLane="left3A3_0" departPos="5.10" departSpeed="0.00" departDelay="0.00" arrival="457.00" arrivalLane="D2right2_1" arrivalPos="286.40" arrivalSpeed="15.26" duration="364.00" routeLength="1782.72" waitingTime="194.00" waitingCount="5" stopTime="0.00" timeLoss="248.97" rerouteNo="0" devices="tripinfo_28" vType="DEFAULT_VEHTYPE" speedFactor="1.13" vaporized=""/>
    <tripinfo id="38" depart="153.00" departLane="right2D2_0" departPos="5.10" departSpeed="0.00" departDelay="0.00" arrival="459.00" arrivalLane="A3left3_0" arrivalPos="286.40" arrivalSpeed="13.69" duration="306.00" routeLength="1782.72" waitingTime="145.00" waitingCount="3" stopTime="0.00" timeLoss="175.85" rerouteNo="0" devices="tripinfo_38" vType="DEFAULT_VEHTYPE" speedFactor="1.00" vaporized=""/>
    <tripinfo id="25" depart="79.00" departLane="left3A3_0" departPos="5.10" departSpeed="0.00" departDelay="0.00" arrival="462.00" arrivalLane="D2right2_0" arrivalPos="286.40" arrivalSpeed="10.75" duration="383.00" routeLength="1782.72" waitingTime="196.00" waitingCount="4" stopTime="0.00" timeLoss="228.92" rerouteNo="0" devices="tripinfo_25" vType="DEFAULT_VEHTYPE" speedFactor="0.84" vaporized=""/>
    <tripinfo id="64" depart="318.00" departLane="left2A2_0" departPos="5.10" departSpeed="0.00" departDelay="0.00" arrival="468.00" arrivalLane="B3top1_1" arrivalPos="286.40" arrivalSpeed="16.39" duration="150.00" routeLength="1195.18" waitingTime="50.00" waitingCount="2" stopTime="0.00" timeLoss="76.54" rerouteNo="0" devices="tripinfo_64" vType="DEFAULT_VEHTYPE" speedFactor="1.18" vaporized=""/>
    <tripinfo id="18" depart="55.00" departLane="right1D1_0" departPos="5.10" departSpeed="0.00" departDelay="0.00" arrival="474.00" arrivalLane="B3top1_0" arrivalPos="286.40" arrivalSpeed="10.74" duration="419.00" routeLength="1780.11" waitingTime="234.00" waitingCount="5" stopTime="0.00" timeLoss="267.53" rerouteNo="0" devices="tripinfo_18" vType="DEFAULT_VEHTYPE" speedFactor="0.86" vaporized=""/>
    <tripinfo id="68" depart="342.00" departLane="right3D3_0" departPos="5.10" departSpeed="0.00" departDelay="0.00" arrival="478.00" arrivalLane="D0bottom3_0" arrivalPos="286.40" arrivalSpeed="13.84" duration="136.00" routeLength="1495.35" waitingTime="15.00" waitingCount="2" stopTime="0.00" timeLoss="35.01" rerouteNo="0" devices="tripinfo_68" vType="DEFAULT_VEHTYPE" speedFactor="1.08" vaporized=""/>
    <tripinfo id="31" depart="104.00" departLane="top3D3_0" departPos="5.10" departSpeed="0.00" departDelay="0.00" arrival="500.00" arrivalLane="B0bottom1_0" arrivalPos="286.40" arrivalSpeed="9.36" duration="396.00" routeLength="2082.76" waitingTime="141.00" waitingCount="4" stopTime="0.00" timeLoss="174.90" rerouteNo="0" devices="tripinfo_31" vType="DEFAULT_VEHTYPE" speedFactor="0.68" vaporized=""/>
    <tripinfo id="45" depart="171.00" departLane="left3A3_0" departPos="5.10" departSpeed="0.00" departDelay="0.00" arrival="507.00" arrivalLane="C3top2_0" arrivalPos="286.40" arrivalSpeed="15.18" duration="336.00" routeLength="1197.89" waitingTime="230.00" waitingCount="3" stopTime="0.00" timeLoss="258.19" rerouteNo="0" devices="tripinfo_45" vType="DEFAULT_VEHTYPE" speedFactor="1.12" vaporized=""/>
    <tripinfo id="5" depart="26.00" departLane="left3A3_0" departPos="5.10" departSpeed="0.00" departDelay="0.00" arrival="529.00" arrivalLane="D3top3_0" arrivalPos="286.40" arrivalSpeed="15.15" duration="503.00" routeLength="1498.06" waitingTime="376.00" waitingCount="3" stopTime="0.00" timeLoss="403.14" rerouteNo="0" devices="tripinfo_5" vType="DEFAULT_VEHTYPE" speedFactor="1.09" vaporized=""/>
    <tripinfo id="65" depart="332.00" departLane="top3D3_0" departPos="5.10" departSpeed="0.00" departDelay="0.00" arrival="531.00" arrivalLane="D2right2_0" arrivalPos="286.40" arrivalSpeed="12.31" duration="199.00" routeLength="897.72" waitingTime="114.00" waitingCount="2" stopTime="0.00" timeLoss="128.39" rerouteNo="0" devices="tripinfo_65" vType="DEFAULT_VEHTYPE" speedFactor="0.93" vaporized=""/>
    <tripinfo id="77" depart="398.00" departLane="top3D3_0" departPos="5.10" departSpeed="0.00" departDelay="0.00" arrival="532.00" arrivalLane="D2right2_1" arrivalPos="286.40" arrivalSpeed="13.43" duration="134.00" routeLength="897.72" waitingTime="48.00" waitingCount="2" stopTime="0.00" timeLoss="68.72" rerouteNo="0" devices="tripinfo_77" vType="DEFAULT_VEHTYPE" speedFactor="1.00" vaporized=""/>
    <tripinfo id="44" depart="164.00" departLane="left3A3_0" departPos="5.10" departSpeed="0.00" departDelay="0.00" arrival="535.00" arrivalLane="D3top3_0" arrivalPos="286.40" arrivalSpeed="13.10" duration="371.00" routeLength="1498.06" waitingTime="241.00" waitingCount="2" stopTime="0.00" timeLoss="261.18" rerouteNo="0" devices="tripinfo_44" vType="DEFAULT_VEHTYPE" speedFactor="0.99" vaporized=""/>
    <tripinfo id="2" depart="8.00" departLane="top2C3_0" departPos="5.10" departSpeed="0.00" departDelay="0.00" arrival="540.00" arrivalLane="D0right0_0" arrivalPos="286.40" arrivalSpeed="13.06" duration="532.00" routeLength="1795.52" waitingTime="369.00" waitingCount="4" stopTime="0.00" timeLoss="399.56" rerouteNo="0" devices="tripinfo_2" vType="DEFAULT_VEHTYPE" speedFactor="0.98" vaporized=""/>
    <tripinfo id="59" depart="252.00" departLane="left2A2_0" departPos="5.10" departSpeed="0.00" departDelay="0.00" arrival="548.00" arrivalLane="D0bottom3_0" arrivalPos="286.40" arrivalSpeed="13.62" duration="296.00" routeLength="2080.28" waitingTime="110.00" waitingCount="5" stopTime="0.00" timeLoss="152.70" rerouteNo="0" devices="tripinfo_59" vType="DEFAULT_VEHTYPE" speedFactor="1.05" vaporized=""/>
    <tripinfo id="57" depart="225.00" departLane="top0A3_0" departPos="5.10" departSpeed="0.00" departDelay="0.00" arrival="552.00" arrivalLane="D0bottom3_0" arrivalPos="286.40" arrivalSpeed="13.42" duration="327.00" routeLength="2380.22" waitingTime="98.00" waitingCount="6" stopTime="0.00" timeLoss="148.70" rerouteNo="0" devices="tripinfo_57" vType="DEFAULT_VEHTYPE" speedFactor="0.97" vaporized=""/>
    <tripinfo id="10" depart="42.00" departLane="right2D2_0" departPos="5.10" departSpeed="0.00" departDelay="0.00" arrival="570.00" arrivalLane="A0left0_0" arrivalPos="286.40" arrivalSpeed="12.71" duration="528.00" routeLength="2080.05" waitingTime="331.00" waitingCount="6" stopTime="0.00" timeLoss="369.70" rerouteNo="0" devices="tripinfo_10" vType="DEFAULT_VEHTYPE" speedFactor="0.95" vaporized=""/>
    <tripinfo id="63" depart="317.00" departLane="bottom2C0_0" departPos="5.10" departSpeed="0.00" departDelay="0.00" arrival="585.00" arrivalLane="A2left2_0" arrivalPos="286.40" arrivalSpeed="11.94" duration="268.00" routeLength="1795.52" waitingTime="100.00" waitingCount="3" stopTime="0.00" timeLoss="128.72" rerouteNo="0" devices="tripinfo_63" vType="DEFAULT_VEHTYPE" speedFactor="0.93" vaporized=""/>
    <tripinfo id="96" depart="468.00" departLane="top0A3_0" departPos="5.10" departSpeed="0.00" departDelay="0.00" arrival="594.00" arrivalLane="A2left2_0" arrivalPos="286.40" arrivalSpeed="12.94" duration="126.00" routeLength="876.90" waitingTime="46.00" waitingCount="1" stopTime="0.00" timeLoss="61.09" rerouteNo="0" devices="tripinfo_96" vType="DEFAULT_VEHTYPE" speedFactor="0.98" vaporized=""/>
    <tripinfo id="67" depart="341.00" departLane="top0A3_0" departPos="5.10" departSpeed="0.00" departDelay="3.00" arrival="598.00" arrivalLane="A0bottom0_0" arrivalPos="286.40" arrivalSpeed="13.63" duration="257.00" routeLength="1495.58" waitingTime="132.00" waitingCount="2" stopTime="0.00" timeLoss="153.64" rerouteNo="0" devices="tripinfo_67" vType="DEFAULT_VEHTYPE" speedFactor="1.05" vaporized=""/>
    <tripinfo id="84" depart="414.00" departLane="left0A0_0" departPos="5.10" departSpeed="0.00" departDelay="0.00" arrival="608.00" arrivalLane="A2left2_0" arrivalPos="286.40" arrivalSpeed="14.97" duration="194.00" routeLength="1197.66" waitingTime="96.00" waitingCount="2" stopTime="0.00" timeLoss="114.03" rerouteNo="0" devices="tripinfo_84" vType="DEFAULT_VEHTYPE" speedFactor="1.10" vaporized=""/>
    <tripinfo id="102" depart="496.00" departLane="top0A3_0" departPos="5.10" departSpeed="0.00" departDelay="0.00" arrival="613.00" arrivalLane="A1left1_0" arrivalPos="286.40" arrivalSpeed="15.64" duration="117.00" routeLength="1177.07" waitingTime="24.00" waitingCount="2" stopTime="0.00" timeLoss="44.74" rerouteNo="0" devices="tripinfo_102" vType="DEFAULT_VEHTYPE" speedFactor="1.19" vaporized=""/>
    <tripinfo id="53" depart="208.00" departLane="right0D0_0" departPos="5.10" departSpeed="0.00" departDelay="0.00" arrival="619.00" arrivalLane="C0bottom2_0" arrivalPos="286.40" arrivalSpeed="13.45" duration="411.00" routeLength="897.72" waitingTime="337.00" waitingCount="1" stopTime="0.00" timeLoss="348.70" rerouteNo="0" devices="tripinfo_53" vType="DEFAULT_VEHTYPE" speedFactor="1.05" vaporized=""/>
    <tripinfo id="41" depart="161.00" departLane="bottom2C0_0" departPos="5.10" departSpeed="0.00" departDelay="0.00" arrival="622.00" arrivalLane="C0bottom2_0" arrivalPos="286.40" arrivalSpeed="12.71" duration="461.00" routeLength="1748.75" waitingTime="300.00" waitingCount="4" stopTime="0.00" timeLoss="329.08" rerouteNo="0" devices="tripinfo_41" vType="DEFAULT_VEHTYPE" speedFactor="0.97" vaporized=""/>
    <tripinfo id="40" depart="158.00" departLane="bottom3D0_0" departPos="5.10" departSpeed="0.00" departDelay="0.00" arrival="623.00" arrivalLane="C0bottom2_1" arrivalPos="286.40" arrivalSpeed="13.21" duration="465.00" routeLength="894.86" waitingTime="384.00" waitingCount="2" stopTime="0.00" timeLoss="401.83" rerouteNo="0" devices="tripinfo_40" vType="DEFAULT_VEHTYPE" speedFactor="1.04" vaporized=""/>
    <tripinfo id="114" depart="550.00" departLane="left3A3_0" departPos="5.10" departSpeed="0.00" departDelay="0.00" arrival="629.00" arrivalLane="A3top0_0" arrivalPos="286.40" arrivalSpeed="12.99" duration="79.00" routeLength="597.55" waitingTime="25.00" waitingCount="1" stopTime="0.00" timeLoss="36.05" rerouteNo="0" devices="tripinfo_114" vType="DEFAULT_VEHTYPE" speedFactor="1.01" vaporized=""/>