<?xml version="1.0" encoding="UTF-8"?>

<!-- generated on 2023-08-30 13:38:55 by Eclipse SUMO libsumo Version 1.18.0
<configuration xmlns:xsi="http://www.w3.org/2001/XMLSchema-instance" xsi:noNamespaceSchemaLocation="http://sumo.dlr.de/xsd/libsumoConfiguration.xsd">

    <input>
        <net-file value="/home/stefan/RESCO/./environments/grid4x4/grid4x4.net.xml"/>
        <route-files value="/home/stefan/RESCO/./environments/grid4x4/grid4x4_69.rou.xml"/>
    </input>

    <output>
        <tripinfo-output value="/home/stefan/results/RAINBOW-tr0-grid4x4-0-drq_norm-wait_norm/tripinfo_69.xml"/>
        <tripinfo-output.write-unfinished value="true"/>
    </output>

    <processing>
        <time-to-teleport value="-1"/>
    </processing>

    <report>
        <no-warnings value="True"/>
        <no-step-log value="True"/>
    </report>

    <random_number>
        <random value="true"/>
    </random_number>

</configuration>
-->

<tripinfos xmlns:xsi="http://www.w3.org/2001/XMLSchema-instance" xsi:noNamespaceSchemaLocation="http://sumo.dlr.de/xsd/tripinfo_file.xsd">
    <tripinfo id="15" depart="66.00" departLane="bottom1B0_0" departPos="5.10" departSpeed="0.00" departDelay="0.00" arrival="163.00" arrivalLane="D0bottom3_0" arrivalPos="286.40" arrivalSpeed="14.48" duration="97.00" routeLength="1161.43" waitingTime="1.00" waitingCount="1" stopTime="0.00" timeLoss="17.27" rerouteNo="0" devices="tripinfo_15" vType="DEFAULT_VEHTYPE" speedFactor="1.07" vaporized=""/>
    <tripinfo id="45" depart="206.00" departLane="bottom1B0_0" departPos="5.10" departSpeed="0.00" departDelay="0.00" arrival="273.00" arrivalLane="C0bottom2_0" arrivalPos="286.40" arrivalSpeed="14.81" duration="67.00" routeLength="858.56" waitingTime="0.00" waitingCount="0" stopTime="0.00" timeLoss="10.47" rerouteNo="0" devices="tripinfo_45" vType="DEFAULT_VEHTYPE" speedFactor="1.12" vaporized=""/>
    <tripinfo id="41" depart="199.00" departLane="left3A3_0" departPos="5.10" departSpeed="0.00" departDelay="0.00" arrival="284.00" arrivalLane="A2left2_0" arrivalPos="286.40" arrivalSpeed="11.66" duration="85.00" routeLength="858.56" waitingTime="3.00" waitingCount="1" stopTime="0.00" timeLoss="16.08" rerouteNo="0" devices="tripinfo_41" vType="DEFAULT_VEHTYPE" speedFactor="0.92" vaporized=""/>
    <tripinfo id="48" depart="219.00" departLane="right0D0_0" departPos="5.10" departSpeed="0.00" departDelay="0.00" arrival="291.00" arrivalLane="D1right1_0" arrivalPos="286.40" arrivalSpeed="14.73" duration="72.00" routeLength="858.56" waitingTime="1.00" waitingCount="1" stopTime="0.00" timeLoss="16.78" rerouteNo="0" devices="tripinfo_48" vType="DEFAULT_VEHTYPE" speedFactor="1.15" vaporized=""/>
    <tripinfo id="17" depart="76.00" departLane="bottom1B0_0" departPos="5.10" departSpeed="0.00" departDelay="0.00" arrival="321.00" arrivalLane="B3top1_0" arrivalPos="286.40" arrivalSpeed="12.45" duration="245.00" routeLength="1495.58" waitingTime="101.00" waitingCount="3" stopTime="0.00" timeLoss="127.83" rerouteNo="0" devices="tripinfo_17" vType="DEFAULT_VEHTYPE" speedFactor="0.92" vaporized=""/>
    <tripinfo id="2" depart="13.00" departLane="top1B3_0" departPos="5.10" departSpeed="0.00" departDelay="0.00" arrival="328.00" arrivalLane="C3top2_0" arrivalPos="286.40" arrivalSpeed="14.71" duration="315.00" routeLength="894.86" waitingTime="240.00" waitingCount="1" stopTime="0.00" timeLoss="253.15" rerouteNo="0" devices="tripinfo_2" vType="DEFAULT_VEHTYPE" speedFactor="1.07" vaporized=""/>
    <tripinfo id="60" depart="276.00" departLane="left1A1_0" departPos="5.10" departSpeed="0.00" departDelay="0.00" arrival="356.00" arrivalLane="A0left0_0" arrivalPos="286.40" arrivalSpeed="12.88" duration="80.00" routeLength="858.56" waitingTime="1.00" waitingCount="1" stopTime="0.00" timeLoss="14.28" rerouteNo="0" devices="tripinfo_60" vType="DEFAULT_VEHTYPE" speedFactor="0.97" vaporized=""/>
    <tripinfo id="67" depart="306.00" departLane="top1B3_0" departPos="5.10" departSpeed="0.00" departDelay="0.00" arrival="398.00" arrivalLane="A3top0_0" arrivalPos="286.40" arrivalSpeed="10.59" duration="92.00" routeLength="858.56" waitingTime="2.00" waitingCount="2" stopTime="0.00" timeLoss="17.70" rerouteNo="0" devices="tripinfo_67" vType="DEFAULT_VEHTYPE" speedFactor="0.85" vaporized=""/>
    <tripinfo id="36" depart="174.00" departLane="bottom3D0_0" departPos="5.10" departSpeed="0.00" departDelay="0.00" arrival="405.00" arrivalLane="D3right3_0" arrivalPos="286.40" arrivalSpeed="14.22" duration="231.00" routeLength="1477.24" waitingTime="104.00" waitingCount="3" stopTime="0.00" timeLoss="127.04" rerouteNo="0" devices="tripinfo_36" vType="DEFAULT_VEHTYPE" speedFactor="1.03" vaporized=""/>
    <tripinfo id="0" depart="3.00" departLane="bottom1B0_0" departPos="5.10" departSpeed="0.00" departDelay="0.00" arrival="409.00" arrivalLane="C3top2_0" arrivalPos="286.40" arrivalSpeed="14.04" duration="406.00" routeLength="1782.72" waitingTime="255.00" waitingCount="3" stopTime="0.00" timeLoss="285.17" rerouteNo="0" devices="tripinfo_0" vType="DEFAULT_VEHTYPE" speedFactor="1.08" vaporized=""/>
    <tripinfo id="28" depart="141.00" departLane="left3A3_0" departPos="5.10" departSpeed="0.00" departDelay="0.00" arrival="432.00" arrivalLane="B3top1_0" arrivalPos="286.40" arrivalSpeed="13.97" duration="291.00" routeLength="897.72" waitingTime="214.00" waitingCount="1" stopTime="0.00" timeLoss="227.39" rerouteNo="0" devices="tripinfo_28" vType="DEFAULT_VEHTYPE" speedFactor="1.03" vaporized=""/>
    <tripinfo id="86" depart="392.00" departLane="top3D3_0" departPos="5.10" departSpeed="0.00" departDelay="0.00" arrival="476.00" arrivalLane="C3top2_0" arrivalPos="286.40" arrivalSpeed="13.09" duration="84.00" routeLength="858.56" waitingTime="2.00" waitingCount="2" stopTime="0.00" timeLoss="17.89" rerouteNo="0" devices="tripinfo_86" vType="DEFAULT_VEHTYPE" speedFactor="0.96" vaporized=""/>
    <tripinfo id="84" depart="385.00" departLane="left3A3_0" departPos="5.10" departSpeed="0.00" departDelay="0.00" arrival="488.00" arrivalLane="A1left1_0" arrivalPos="286.40" arrivalSpeed="13.82" duration="103.00" routeLength="1161.43" waitingTime="2.00" waitingCount="2" stopTime="0.00" timeLoss="19.55" rerouteNo="0" devices="tripinfo_84" vType="DEFAULT_VEHTYPE" speedFactor="1.01" vaporized=""/>
    <tripinfo id="33" depart="161.00" departLane="bottom2C0_0" departPos="5.10" departSpeed="0.00" departDelay="0.00" arrival="491.00" arrivalLane="D1right1_1" arrivalPos="286.40" arrivalSpeed="13.41" duration="330.00" routeLength="1179.77" waitingTime="226.00" waitingCount="2" stopTime="0.00" timeLoss="247.31" rerouteNo="0" devices="tripinfo_33" vType="DEFAULT_VEHTYPE" speedFactor="1.04" vaporized=""/>
    <tripinfo id="14" depart="59.00" departLane="bottom1B0_0" departPos="5.10" departSpeed="0.00" departDelay="0.00" arrival="493.00" arrivalLane="D1right1_0" arrivalPos="286.40" arrivalSpeed="11.13" duration="434.00" routeLength="1479.94" waitingTime="290.00" waitingCount="2" stopTime="0.00" timeLoss="309.40" rerouteNo="0" devices="tripinfo_14" vType="DEFAULT_VEHTYPE" speedFactor="0.86" vaporized=""/>
    <tripinfo id="20" depart="101.00" departLane="top2C3_0" departPos="5.10" departSpeed="0.00" departDelay="0.00" arrival="533.00" arrivalLane="D3top3_0" arrivalPos="286.40" arrivalSpeed="11.63" duration="432.00" routeLength="894.86" waitingTime="344.00" waitingCount="1" stopTime="0.00" timeLoss="356.97" rerouteNo="0" devices="tripinfo_20" vType="DEFAULT_VEHTYPE" speedFactor="0.88" vaporized=""/>
    <tripinfo id="56" depart="263.00" departLane="right3D3_0" departPos="5.10" departSpeed="0.00" departDelay="0.00" arrival="551.00" arrivalLane="D2right2_1" arrivalPos="286.40" arrivalSpeed="15.47" duration="288.00" routeLength="894.86" waitingTime="216.00" waitingCount="1" stopTime="0.00" timeLoss="232.97" rerouteNo="0" devices="tripinfo_56" vType="DEFAULT_VEHTYPE" speedFactor="1.20" vaporized=""/>
    <tripinfo id="66" depart="297.00" departLane="top3D3_0" departPos="5.10" departSpeed="0.00" departDelay="0.00" arrival="552.00" arrivalLane="B3top1_0" arrivalPos="286.40" arrivalSpeed="12.92" duration="255.00" routeLength="1161.43" waitingTime="153.00" waitingCount="2" stopTime="0.00" timeLoss="171.47" rerouteNo="0" devices="tripinfo_66" vType="DEFAULT_VEHTYPE" speedFactor="1.02" vaporized=""/>
    <tripinfo id="52" depart="244.00" departLane="right3D3_0" departPos="5.10" departSpeed="0.00" departDelay="0.00" arrival="553.00" arrivalLane="D2right2_0" arrivalPos="286.40" arrivalSpeed="13.48" duration="309.00" routeLength="894.86" waitingTime="231.00" waitingCount="1" stopTime="0.00" timeLoss="242.05" rerouteNo="0" devices="tripinfo_52" vType="DEFAULT_VEHTYPE" speedFactor="0.99" vaporized=""/>
    <tripinfo id="32" depart="156.00" departLane="top1B3_0" departPos="5.10" departSpeed="0.00" departDelay="0.00" arrival="561.00" arrivalLane="B3top1_0" arrivalPos="286.40" arrivalSpeed="11.54" duration="405.00" routeLength="1748.75" waitingTime="234.00" waitingCount="4" stopTime="0.00" timeLoss="264.34" rerouteNo="0" devices="tripinfo_32" vType="DEFAULT_VEHTYPE" speedFactor="0.91" vaporized=""/>
    <tripinfo id="109" depart="524.00" departLane="top0A3_0" departPos="5.10" departSpeed="0.00" departDelay="2.00" arrival="569.00" arrivalLane="A3left3_0" arrivalPos="286.40" arrivalSpeed="14.73" duration="45.00" routeLength="576.73" waitingTime="0.00" waitingCount="0" stopTime="0.00" timeLoss="5.92" rerouteNo="0" devices="tripinfo_109" vType="DEFAULT_VEHTYPE" speedFactor="1.09" vaporized=""/>
    <tripinfo id="64" depart="288.00" departLane="left1A1_0" departPos="5.10" departSpeed="0.00" departDelay="0.00" arrival="580.00" arrivalLane="A2left2_0" arrivalPos="286.40" arrivalSpeed="13.40" duration="292.00" routeLength="894.86" waitingTime="213.00" waitingCount="1" stopTime="0.00" timeLoss="225.08" rerouteNo="0" devices="tripinfo_64" vType="DEFAULT_VEHTYPE" speedFactor="0.98" vaporized=""/>
    <tripinfo id="1" depart="8.00" departLane="bottom0A0_0" departPos="5.10" departSpeed="0.00" departDelay="0.00" arrival="581.00" arrivalLane="A2left2_1" arrivalPos="286.40" arrivalSpeed="13.76" duration="573.00" routeLength="1197.89" waitingTime="465.00" waitingCount="3" stopTime="0.00" timeLoss="490.80" rerouteNo="0" devices="tripinfo_1" vType="DEFAULT_VEHTYPE" speedFactor="1.06" vaporized=""/>
    <tripinfo id="80" depart="375.00" departLane="left1A1_0" departPos="5.10" departSpeed="0.00" departDelay="0.00" arrival="583.00" arrivalLane="A2left2_1" arrivalPos="286.40" arrivalSpeed="15.16" duration="208.00" routeLength="894.86" waitingTime="135.00" waitingCount="1" stopTime="0.00" timeLoss="148.35" rerouteNo="0" devices="tripinfo_80" vType="DEFAULT_VEHTYPE" speedFactor="1.11" vaporized=""/>
    <tripinfo id="19" depart="81.00" departLane="top2C3_0" departPos="5.10" departSpeed="0.00" departDelay="0.00" arrival="585.00" arrivalLane="A3top0_0" arrivalPos="286.40" arrivalSpeed="12.02" duration="504.00" routeLength="1161.43" waitingTime="389.00" waitingCount="2" stopTime="0.00" timeLoss="409.29" rerouteNo="0" devices="tripinfo_19" vType="DEFAULT_VEHTYPE" speedFactor="0.90" vaporized=""/>
    <tripinfo id="96" depart="451.00" departLane="top2C3_0" departPos="5.10" departSpeed="0.00" departDelay="0.00" arrival="587.00" arrivalLane="A3top0_0" arrivalPos="286.40" arrivalSpeed="14.79" duration="136.00" routeLength="1161.43" waitingTime="24.00" waitingCount="3" stopTime="0.00" timeLoss="58.14" rerouteNo="0" devices="tripinfo_96" vType="DEFAULT_VEHTYPE" speedFactor="1.09" vaporized=""/>
    <tripinfo id="83" depart="385.00" departLane="left1A1_0" departPos="5.10" departSpeed="0.00" departDelay="0.00" arrival="599.00" arrivalLane="A2left2_0" arrivalPos="286.40" arrivalSpeed="13.52" duration="214.00" routeLength="894.86" waitingTime="131.00" waitingCount="2" stopTime="0.00" timeLoss="151.07" rerouteNo="0" devices="tripinfo_83" vType="DEFAULT_VEHTYPE" speedFactor="1.06" vaporized=""/>
    <tripinfo id="105" depart="513.00" departLane="top0A3_0" departPos="5.10" departSpeed="0.00" departDelay="0.00" arrival="607.00" arrivalLane="A2left2_0" arrivalPos="286.40" arrivalSpeed="10.89" duration="94.00" routeLength="876.90" waitingTime="2.00" waitingCount="2" stopTime="0.00" timeLoss="19.30" rerouteNo="0" devices="tripinfo_105" vType="DEFAULT_VEHTYPE" speedFactor="0.85" vaporized=""/>
    <tripinfo id="106" depart="514.00" departLane="bottom1B0_0" departPos="5.10" departSpeed="0.00" departDelay="0.00" arrival="649.00" arrivalLane="A3top0_0" arrivalPos="286.40" arrivalSpeed="13.95" duration="135.00" routeLength="1782.59" waitingTime="1.00" waitingCount="1" stopTime="0.00" timeLoss="13.97" rerouteNo="0" devices="tripinfo_106" vType="DEFAULT_VEHTYPE" speedFactor="1.07" vaporized=""/>
    <tripinfo id="29" depart="144.00" departLane="bottom2C0_0" departPos="5.10" departSpeed="0.00" departDelay="0.00" arrival="658.00" arrivalLane="A1left1_0" arrivalPos="286.40" arrivalSpeed="14.26" duration="514.00" routeLength="1495.35" waitingTime="383.00" waitingCount="3" stopTime="0.00" timeLoss="408.91" rerouteNo="0" devices="tripinfo_29" vType="DEFAULT_VEHTYPE" speedFactor="1.03" vaporized=""/>
    <tripinfo id="21" depart="105.00" departLane="right2D2_0" departPos="5.10" departSpeed="0.00" departDelay="0.00" arrival="660.00" arrivalLane="A1left1_0" arrivalPos="286.40" arrivalSpeed="13.33" duration="555.00" routeLength="1782.59" waitingTime="394.00" waitingCount="4" stopTime="0.00" timeLoss="428.88" rerouteNo="0" devices="tripinfo_21" vType="DEFAULT_VEHTYPE" speedFactor="1.03" vaporized=""/>
    <tripinfo id="91" depart="431.00" departLane="right1D1_0" departPos="5.10" departSpeed="0.00" departDelay="0.00" arrival="669.00" arrivalLane="D0right0_1" arrivalPos="286.40" arrivalSpeed="15.06" duration="238.00" routeLength="894.86" waitingTime="157.00" waitingCount="2" stopTime="0.00" timeLoss="178.94" rerouteNo="0" devices="tripinfo_91" vType="DEFAULT_VEHTYPE" speedFactor="1.11" vaporized=""/>
    <tripinfo id="61" depart="281.00" departLane="right1D1_0" departPos="5.10" departSpeed="0.00" departDelay="0.00" arrival="671.00" arrivalLane="D0right0_0" arrivalPos="286.40" arrivalSpeed="12.05" duration="390.00" routeLength="894.86" waitingTime="303.00" waitingCount="2" stopTime="0.00" timeLoss="320.42" rerouteNo="0" devices="tripinfo_61" vType="DEFAULT_VEHTYPE" speedFactor="0.95" vaporized=""/>
    <tripinfo id="101" depart="499.00" departLane="right1D1_0" departPos="5.10" departSpeed="0.00" departDelay="0.00" arrival="672.00" arrivalLane="D0right0_0" arrivalPos="286.40" arrivalSpeed="13.29" duration="173.00" routeLength="894.86" waitingTime="89.00" waitingCount="2" stopTime="0.00" timeLoss="109.30" rerouteNo="0" devices="tripinfo_101" vType="DEFAULT_VEHTYPE" speedFactor="1.03" vaporized=""/>
    <tripinfo id="141" depart="645.00" departLane="right3D3_0" departPos="5.10" departSpeed="0.00" departDelay="0.00" arrival="699.00" arrivalLane="D3top3_0" arrivalPos="286.40" arrivalSpeed="13.50" duration="54.00" routeLength="576.73" waitingTime="1.00" waitingCount="1" stopTime="0.00" timeLoss="12.57" rerouteNo="0" devices="tripinfo_141" vType="DEFAULT_VEHTYPE" speedFactor="1.04" vaporized=""/>
    <tripinfo id="142" depart="654.00" departLane="right0D0_0" departPos="5.10" departSpeed="0.00" departDelay="0.00" arrival="702.00" arrivalLane="D0bottom3_0" arrivalPos="286.40" arrivalSpeed="13.13" duration="48.00" routeLength="597.55" waitingTime="0.00" waitingCount="0" stopTime="0.00" timeLoss="4.70" rerouteNo="0" devices="tripinfo_142" vType="DEFAULT_VEHTYPE" speedFactor="1.02" vaporized=""/>
    <tripinfo id="68" depart="309.00" departLane="bottom0A0_0" departPos="5.10" departSpeed="0.00" departDelay="0.00" arrival="708.00" arrivalLane="A1left1_0" arrivalPos="286.40" arrivalSpeed="14.47" duration="399.00" routeLength="897.72" waitingTime="318.00" waitingCount="2" stopTime="0.00" timeLoss="336.65" rerouteNo="0" devices="tripinfo_68" vType="DEFAULT_VEHTYPE" speedFactor="1.05" vaporized=""/>
    <tripinfo id="131" depart="624.00" departLane="right2D2_0" departPos="5.10" departSpeed="0.00" departDelay="0.00" arrival="708.00" arrivalLane="D3right3_0" arrivalPos="286.40" arrivalSpeed="12.55" duration="84.00" routeLength="858.56" waitingTime="2.00" waitingCount="2" stopTime="0.00" timeLoss="18.90" rerouteNo="0" devices="tripinfo_131" vType="DEFAULT_VEHTYPE" speedFactor="0.98" vaporized=""/>
    <tripinfo id="81" depart="381.00" departLane="left0A0_0" departPos="5.10" departSpeed="0.00" departDelay="0.00" arrival="750.00" arrivalLane="A3top0_1" arrivalPos="286.40" arrivalSpeed="14.52" duration="369.00" routeLength="1495.35" waitingTime="251.00" waitingCount="2" stopTime="0.00" timeLoss="272.11" rerouteNo="0" devices="tripinfo_81" vType="DEFAULT_VEHTYPE" speedFactor="1.12" vaporized=""/>
    <tripinfo id="136" depart="634.00" departLane="left1A1_0" departPos="5.10" departSpeed="0.00" departDelay="0.00" arrival="754.00" arrivalLane="A3top0_0" arrivalPos="286.40" arrivalSpeed="11.83" duration="120.00" routeLength="1195.18" waitingTime="8.00" waitingCount="1" stopTime="0.00" timeLoss="21.20" rerouteNo="0" devices="tripinfo_136" vType="DEFAULT_VEHTYPE" speedFactor="0.88" vaporized=""/>
    <tripinfo id="46" depart="207.00" departLane="top0A3_0" departPos="5.10" departSpeed="0.00" departDelay="0.00" arrival="768.00" arrivalLane="D0bottom3_0" arrivalPos="286.40" arrivalSpeed="14.64" duration="561.00" routeLength="2380.22" waitingTime="372.00" waitingCount="3" stopTime="0.00" timeLoss="399.39" rerouteNo="0" devices="tripinfo_46" vType="DEFAULT_VEHTYPE" speedFactor="1.07" vaporized=""/>
    <tripinfo id="30" depart="152.00" departLane="left2A2_0" departPos="5.10" departSpeed="0.00" departDelay="0.00" arrival="779.00" arrivalLane="D2right2_0" arrivalPos="286.40" arrivalSpeed="13.94" duration="627.00" routeLength="1495.58" waitingTime="501.00" waitingCount="2" stopTime="0.00" timeLoss="520.35" rerouteNo="0" devices="tripinfo_30" vType="DEFAULT_VEHTYPE" speedFactor="1.01" vaporized=""/>
    <tripinfo id="7" depart="33.00" departLane="right0D0_0" departPos="5.10" departSpeed="0.00" departDelay="0.00" arrival="798.00" arrivalLane="B0bottom1_0" arrivalPos="286.40" arrivalSpeed="13.93" duration="765.00" routeLength="1197.89" waitingTime="661.00" waitingCount="2" stopTime="0.00" timeLoss="683.14" rerouteNo="0" devices="tripinfo_7" vType="DEFAULT_VEHTYPE" speedFactor="1.06" vaporized=""/>
    <tripinfo id="98" depart="485.00" departLane="top0A3_0" departPos="5.10" departSpeed="0.00" departDelay="0.00" arrival="798.00" arrivalLane="A0left0_0" arrivalPos="286.40" arrivalSpeed="12.30" duration="313.00" routeLength="1477.24" waitingTime="177.00" waitingCount="1" stopTime="0.00" timeLoss="192.73" rerouteNo="0" devices="tripinfo_98" vType="DEFAULT_VEHTYPE" speedFactor="0.89" vaporized=""/>
    <tripinfo id="51" depart="243.00" departLane="bottom3D0_0" departPos="5.10" departSpeed="0.00" departDelay="0.00" arrival="800.00" arrivalLane="B0bottom1_0" arrivalPos="286.40" arrivalSpeed="14.04" duration="557.00" routeLength="1197.66" waitingTime="456.00" waitingCount="2" stopTime="0.00" timeLoss="474.89" rerouteNo="0" devices="tripinfo_51" vType="DEFAULT_VEHTYPE" speedFactor="1.07" vaporized=""/>
    <tripinfo id="93" depart="441.00" departLane="left0A0_0" departPos="5.10" departSpeed="0.00" departDelay="0.00" arrival="800.00" arrivalLane="A3left3_0" arrivalPos="286.40" arrivalSpeed="13.17" duration="359.00" routeLength="1497.83" waitingTime="223.00" waitingCount="3" stopTime="0.00" timeLoss="247.66" rerouteNo="0" devices="tripinfo_93" vType="DEFAULT_VEHTYPE" speedFactor="0.98" vaporized=""/>
    <tripinfo id="126" depart="591.00" departLane="bottom2C0_0" departPos="5.10" departSpeed="0.00" departDelay="0.00" arrival="804.00" arrivalLane="D0right0_0" arrivalPos="286.40" arrivalSpeed="10.41" duration="213.00" routeLength="879.60" waitingTime="118.00" waitingCount="2" stopTime="0.00" timeLoss="135.23" rerouteNo="0" devices="tripinfo_126" vType="DEFAULT_VEHTYPE" speedFactor="0.83" vaporized=""/>
    <tripinfo id="107" depart="515.00" departLane="bottom3D0_0" departPos="5.10" departSpeed="0.00" departDelay="0.00" arrival="805.00" arrivalLane="B0bottom1_0" arrivalPos="286.40" arrivalSpeed="12.51" duration="290.00" routeLength="1197.66" waitingTime="178.00" waitingCount="2" stopTime="0.00" timeLoss="197.75" rerouteNo="0" devices="tripinfo_107" vType="DEFAULT_VEHTYPE" speedFactor="0.95" vaporized=""/>
    <tripinfo id="149" depart="683.00" departLane="right0D0_0" departPos="5.10" departSpeed="0.00" departDelay="0.00" arrival="813.00" arrivalLane="D3right3_0" arrivalPos="286.40" arrivalSpeed="14.50" duration="130.00" routeLength="1461.60" waitingTime="5.00" waitingCount="3" stopTime="0.00" timeLoss="31.23" rerouteNo="0" devices="tripinfo_149" vType="DEFAULT_VEHTYPE" speedFactor="1.07" vaporized=""/>
    <tripinfo id="125" depart="583.00" departLane="right3D3_0" departPos="5.10" departSpeed="0.00" departDelay="0.00" arrival="828.00" arrivalLane="D1right1_0" arrivalPos="286.40" arrivalSpeed="15.18" duration="245.00" routeLength="1197.66" waitingTime="147.00" waitingCount="2" stopTime="0.00" timeLoss="166.16" rerouteNo="0" devices="tripinfo_125" vType="DEFAULT_VEHTYPE" speedFactor="1.11" vaporized=""/>
    <tripinfo id="44" depart="205.00" departLane="top3D3_0" departPos="5.10" departSpeed="0.00" departDelay="0.00" arrival="831.00" arrivalLane="C0bottom2_1" arrivalPos="286.40" arrivalSpeed="13.79" duration="626.00" routeLength="1782.72" waitingTime="463.00" waitingCount="5" stopTime="0.00" timeLoss="500.15" rerouteNo="0" devices="tripinfo_44" vType="DEFAULT_VEHTYPE" speedFactor="1.03" vaporized=""/>
    <tripinfo id="63" depart="287.00" departLane="top0A3_0" departPos="5.10" departSpeed="0.00" departDelay="0.00" arrival="834.00" arrivalLane="C0bottom2_0" arrivalPos="286.40" arrivalSpeed="10.75" duration="547.00" routeLength="2080.05" waitingTime="335.00" waitingCount="3" stopTime="0.00" timeLoss="364.90" rerouteNo="0" devices="tripinfo_63" vType="DEFAULT_VEHTYPE" speedFactor="0.83" vaporized=""/>
    <tripinfo id="73" depart="332.00" departLane="bottom3D0_0" departPos="5.10" departSpeed="0.00" departDelay="0.00" arrival="842.00" arrivalLane="C0bottom2_0" arrivalPos="286.40" arrivalSpeed="12.36" duration="510.00" routeLength="894.86" waitingTime="420.00" waitingCount="2" stopTime="0.00" timeLoss="436.47" rerouteNo="0" devices="tripinfo_73" vType="DEFAULT_VEHTYPE" speedFactor="0.89" vaporized=""/>
    <tripinfo id="120" depart="564.00" departLane="right1D1_0" departPos="5.10" departSpeed="0.00" departDelay="0.00" arrival="860.00" arrivalLane="D1right1_0" arrivalPos="286.40" arrivalSpeed="13.21" duration="296.00" routeLength="1748.75" waitingTime="138.00" waitingCount="4" stopTime="0.00" timeLoss="168.80" rerouteNo="0" devices="tripinfo_120" vType="DEFAULT_VEHTYPE" speedFactor="1.01" vaporized=""/>
    <tripinfo id="182" depart="820.00" departLane="right3D3_0" departPos="5.10" departSpeed="0.00" departDelay="0.00" arrival="872.00" arrivalLane="D3top3_0" arrivalPos="286.40" arrivalSpeed="14.51" duration="52.00" routeLength="576.73" waitingTime="1.00" waitingCount="1" stopTime="0.00" timeLoss="11.37" rerouteNo="0" devices="tripinfo_182" vType="DEFAULT_VEHTYPE" speedFactor="1.05" vaporized=""/>
    <tripinfo id="174" depart="793.00" departLane="top3D3_0" departPos="5.10" departSpeed="0.00" departDelay="0.00" arrival="878.00" arrivalLane="C3top2_0" arrivalPos="286.40" arrivalSpeed="12.40" duration="85.00" routeLength="858.56" waitingTime="2.00" waitingCount="2" stopTime="0.00" timeLoss="17.26" rerouteNo="0" devices="tripinfo_174" vType="DEFAULT_VEHTYPE" speedFactor="0.93" vaporized=""/>
    <tripinfo id="9" depart="37.00" departLane="bottom0A0_0" departPos="5.10" departSpeed="0.00" departDelay="0.00" arrival="908.00" arrivalLane="D0right0_0" arrivalPos="286.40" arrivalSpeed="14.24" duration="871.00" routeLength="1479.94" waitingTime="744.00" waitingCount="3" stopTime="0.00" timeLoss="771.12" rerouteNo="0" devices="tripinfo_9" vType="DEFAULT_VEHTYPE" speedFactor="1.08" vaporized=""/>
    <tripinfo id="183" depart="820.00" departLane="top0A3_0" departPos="5.10" departSpeed="0.00" departDelay="0.00" arrival="910.00" arrivalLane="B3top1_1" arrivalPos="286.40" arrivalSpeed="15.09" duration="90.00" routeLength="894.86" waitingTime="16.00" waitingCount="1" stopTime="0.00" timeLoss="30.07" rerouteNo="0" devices="tripinfo_183" vType="DEFAULT_VEHTYPE" speedFactor="1.10" vaporized=""/>
    <tripinfo id="13" depart="56.00" departLane="bottom2C0_0" departPos="5.10" departSpeed="0.00" departDelay="0.00" arrival="911.00" arrivalLane="A2left2_1" arrivalPos="286.40" arrivalSpeed="13.05" duration="855.00" routeLength="1795.52" waitingTime="692.00" waitingCount="4" stopTime="0.00" timeLoss="724.54" rerouteNo="0" devices="tripinfo_13" vType="DEFAULT_VEHTYPE" speedFactor="1.00" vaporized=""/>
    <tripinfo id="22" depart="105.00" departLane="bottom1B0_0" departPos="5.10" departSpeed="0.00" departDelay="0.00" arrival="911.00" arrivalLane="A2left2_0" arrivalPos="286.40" arrivalSpeed="11.89" duration="806.00" routeLength="1495.35" waitingTime="668.00" waitingCount="2" stopTime="0.00" timeLoss="688.70" rerouteNo="0" devices="tripinfo_22" vType="DEFAULT_VEHTYPE" speedFactor="0.93" vaporized=""/>
    <tripinfo id="179" depart="811.00" departLane="top0A3_0" departPos="5.10" departSpeed="0.00" departDelay="0.00" arrival="911.00" arrivalLane="B3top1_0" arrivalPos="286.40" arrivalSpeed="12.52" duration="100.00" routeLength="894.86" waitingTime="20.00" waitingCount="1" stopTime="0.00" timeLoss="31.30" rerouteNo="0" devices="tripinfo_179" vType="DEFAULT_VEHTYPE" speedFactor="0.96" vaporized=""/>
    <tripinfo id="5" depart="18.00" departLane="top1B3_0" departPos="5.10" departSpeed="0.00" departDelay="0.00" arrival="913.00" arrivalLane="A2left2_0" arrivalPos="286.40" arrivalSpeed="14.19" duration="895.00" routeLength="1179.77" waitingTime="786.00" waitingCount="3" stopTime="0.00" timeLoss="811.00" rerouteNo="0" devices="tripinfo_5" vType="DEFAULT_VEHTYPE" speedFactor="1.03" vaporized=""/>
    <tripinfo id="122" depart="576.00" departLane="bottom0A0_0" departPos="5.10" departSpeed="0.00" departDelay="0.00" arrival="918.00" arrivalLane="D0bottom3_0" arrivalPos="286.40" arrivalSpeed="12.06" duration="342.00" routeLength="1461.60" waitingTime="202.00" waitingCount="2" stopTime="0.00" timeLoss="228.87" rerouteNo="0" devices="tripinfo_122" vType="DEFAULT_VEHTYPE" speedFactor="0.94" vaporized=""/>
    <tripinfo id="49" depart="234.00" departLane="left0A0_0" departPos="5.10" departSpeed="0.00" departDelay="0.00" arrival="923.00" arrivalLane="D0right0_0" arrivalPos="286.40" arrivalSpeed="10.76" duration="689.00" routeLength="1495.58" waitingTime="536.00" waitingCount="2" stopTime="0.00" timeLoss="557.15" rerouteNo="0" devices="tripinfo_49" vType="DEFAULT_VEHTYPE" speedFactor="0.82" vaporized=""/>
    <tripinfo id="154" depart="710.00" departLane="right3D3_0" departPos="5.10" departSpeed="0.00" departDelay="0.00" arrival="942.00" arrivalLane="D1right1_0" arrivalPos="286.40" arrivalSpeed="14.12" duration="232.00" routeLength="1197.66" waitingTime="137.00" waitingCount="1" stopTime="0.00" timeLoss="148.22" rerouteNo="0" devices="tripinfo_154" vType="DEFAULT_VEHTYPE" speedFactor="1.05" vaporized=""/>
    <tripinfo id="195" depart="858.00" departLane="top2C3_0" departPos="5.10" departSpeed="0.00" departDelay="0.00" arrival="943.00" arrivalLane="B3top1_0" arrivalPos="286.40" arrivalSpeed="11.57" duration="85.00" routeLength="858.56" waitingTime="1.00" waitingCount="1" stopTime="0.00" timeLoss="15.12" rerouteNo="0" devices="tripinfo_195" vType="DEFAULT_VEHTYPE" speedFactor="0.91" vaporized=""/>
    <tripinfo id="177" depart="803.00" departLane="left0A0_0" departPos="5.10" departSpeed="0.00" departDelay="0.00" arrival="945.00" arrivalLane="B0bottom1_0" arrivalPos="286.40" arrivalSpeed="14.10" duration="142.00" routeLength="876.90" waitingTime="67.00" waitingCount="1" stopTime="0.00" timeLoss="80.92" rerouteNo="0" devices="tripinfo_177" vType="DEFAULT_VEHTYPE" speedFactor="1.06" vaporized=""/>
    <tripinfo id="168" depart="776.00" departLane="top1B3_0" departPos="5.10" departSpeed="0.00" departDelay="0.00" arrival="948.00" arrivalLane="C3top2_0" arrivalPos="286.40" arrivalSpeed="14.60" duration="172.00" routeLength="894.86" waitingTime="98.00" waitingCount="1" stopTime="0.00" timeLoss="110.24" rerouteNo="0" devices="tripinfo_168" vType="DEFAULT_VEHTYPE" speedFactor="1.07" vaporized=""/>
    <tripinfo id="171" depart="789.00" departLane="right1D1_0" departPos="5.10" departSpeed="0.00" departDelay="0.00" arrival="948.00" arrivalLane="D1right1_0" arrivalPos="286.40" arrivalSpeed="13.05" duration="159.00" routeLength="1748.75" waitingTime="6.00" waitingCount="3" stopTime="0.00" timeLoss="29.68" rerouteNo="0" devices="tripinfo_171" vType="DEFAULT_VEHTYPE" speedFactor="0.99" vaporized=""/>
    <tripinfo id="213" depart="912.00" departLane="bottom3D0_0" departPos="5.10" departSpeed="0.00" departDelay="0.00" arrival="963.00" arrivalLane="D0right0_0" arrivalPos="286.40" arrivalSpeed="14.48" duration="51.00" routeLength="576.73" waitingTime="1.00" waitingCount="1" stopTime="0.00" timeLoss="10.41" rerouteNo="0" devices="tripinfo_213" vType="DEFAULT_VEHTYPE" speedFactor="1.05" vaporized=""/>
    <tripinfo id="215" depart="916.00" departLane="top0A3_0" departPos="5.10" departSpeed="0.00" departDelay="0.00" arrival="971.00" arrivalLane="A3left3_0" arrivalPos="286.40" arrivalSpeed="11.77" duration="55.00" routeLength="576.73" waitingTime="0.00" waitingCount="0" stopTime="0.00" timeLoss="7.02" rerouteNo="0" devices="tripinfo_215" vType="DEFAULT_VEHTYPE" speedFactor="0.89" vaporized=""/>