<?xml version="1.0" encoding="UTF-8"?>

<!-- generated on 2023-08-30 13:39:37 by Eclipse SUMO libsumo Version 1.18.0
<configuration xmlns:xsi="http://www.w3.org/2001/XMLSchema-instance" xsi:noNamespaceSchemaLocation="http://sumo.dlr.de/xsd/libsumoConfiguration.xsd">

    <input>
        <net-file value="/home/stefan/RESCO/./environments/grid4x4/grid4x4.net.xml"/>
        <route-files value="/home/stefan/RESCO/./environments/grid4x4/grid4x4_70.rou.xml"/>
    </input>

    <output>
        <tripinfo-output value="/home/stefan/results/RAINBOW-tr0-grid4x4-0-drq_norm-wait_norm/tripinfo_70.xml"/>
        <tripinfo-output.write-unfinished value="true"/>
    </output>

    <processing>
        <time-to-teleport value="-1"/>
    </processing>

    <report>
        <no-warnings value="True"/>
        <no-step-log value="True"/>
    </report>

    <random_number>
        <random value="true"/>
    </random_number>

</configuration>
-->

<tripinfos xmlns:xsi="http://www.w3.org/2001/XMLSchema-instance" xsi:noNamespaceSchemaLocation="http://sumo.dlr.de/xsd/tripinfo_file.xsd">
    <tripinfo id="6" depart="23.00" departLane="right0D0_0" departPos="5.10" departSpeed="0.00" departDelay="0.00" arrival="114.00" arrivalLane="D2right2_0" arrivalPos="286.40" arrivalSpeed="15.63" duration="91.00" routeLength="1161.43" waitingTime="2.00" waitingCount="2" stopTime="0.00" timeLoss="20.69" rerouteNo="0" devices="tripinfo_6" vType="DEFAULT_VEHTYPE" speedFactor="1.21" vaporized=""/>
    <tripinfo id="12" depart="54.00" departLane="top3D3_0" departPos="5.10" departSpeed="0.00" departDelay="0.00" arrival="121.00" arrivalLane="C3top2_0" arrivalPos="286.40" arrivalSpeed="16.07" duration="67.00" routeLength="858.56" waitingTime="1.00" waitingCount="1" stopTime="0.00" timeLoss="13.54" rerouteNo="0" devices="tripinfo_12" vType="DEFAULT_VEHTYPE" speedFactor="1.19" vaporized=""/>
    <tripinfo id="13" depart="55.00" departLane="right0D0_0" departPos="5.10" departSpeed="0.00" departDelay="0.00" arrival="137.00" arrivalLane="D0bottom3_0" arrivalPos="286.40" arrivalSpeed="15.27" duration="82.00" routeLength="597.55" waitingTime="32.00" waitingCount="1" stopTime="0.00" timeLoss="42.40" rerouteNo="0" devices="tripinfo_13" vType="DEFAULT_VEHTYPE" speedFactor="1.10" vaporized=""/>
    <tripinfo id="16" depart="72.00" departLane="left1A1_0" departPos="5.10" departSpeed="0.00" departDelay="0.00" arrival="145.00" arrivalLane="A0left0_0" arrivalPos="286.40" arrivalSpeed="16.05" duration="73.00" routeLength="858.56" waitingTime="2.00" waitingCount="2" stopTime="0.00" timeLoss="18.98" rerouteNo="0" devices="tripinfo_16" vType="DEFAULT_VEHTYPE" speedFactor="1.18" vaporized=""/>
    <tripinfo id="15" depart="68.00" departLane="left2A2_0" departPos="5.10" departSpeed="0.00" departDelay="0.00" arrival="181.00" arrivalLane="A0bottom0_0" arrivalPos="286.40" arrivalSpeed="11.45" duration="113.00" routeLength="1179.77" waitingTime="1.00" waitingCount="1" stopTime="0.00" timeLoss="13.71" rerouteNo="0" devices="tripinfo_15" vType="DEFAULT_VEHTYPE" speedFactor="0.87" vaporized=""/>
    <tripinfo id="19" depart="81.00" departLane="top3D3_0" departPos="5.10" departSpeed="0.00" departDelay="0.00" arrival="191.00" arrivalLane="B3top1_0" arrivalPos="286.40" arrivalSpeed="12.80" duration="110.00" routeLength="1161.43" waitingTime="2.00" waitingCount="2" stopTime="0.00" timeLoss="20.15" rerouteNo="0" devices="tripinfo_19" vType="DEFAULT_VEHTYPE" speedFactor="0.95" vaporized=""/>
    <tripinfo id="14" depart="67.00" departLane="top3D3_0" departPos="5.10" departSpeed="0.00" departDelay="0.00" arrival="207.00" arrivalLane="D3right3_0" arrivalPos="286.40" arrivalSpeed="14.96" duration="140.00" routeLength="597.55" waitingTime="89.00" waitingCount="1" stopTime="0.00" timeLoss="99.87" rerouteNo="0" devices="tripinfo_14" vType="DEFAULT_VEHTYPE" speedFactor="1.09" vaporized=""/>
    <tripinfo id="24" depart="116.00" departLane="top3D3_0" departPos="5.10" departSpeed="0.00" departDelay="0.00" arrival="291.00" arrivalLane="A3top0_0" arrivalPos="286.40" arrivalSpeed="13.90" duration="175.00" routeLength="1461.60" waitingTime="41.00" waitingCount="3" stopTime="0.00" timeLoss="68.47" rerouteNo="0" devices="tripinfo_24" vType="DEFAULT_VEHTYPE" speedFactor="1.00" vaporized=""/>
    <tripinfo id="28" depart="127.00" departLane="bottom1B0_0" departPos="5.10" departSpeed="0.00" departDelay="0.00" arrival="348.00" arrivalLane="D0right0_0" arrivalPos="286.40" arrivalSpeed="11.49" duration="221.00" routeLength="1179.77" waitingTime="107.00" waitingCount="2" stopTime="0.00" timeLoss="123.96" rerouteNo="0" devices="tripinfo_28" vType="DEFAULT_VEHTYPE" speedFactor="0.89" vaporized=""/>
    <tripinfo id="57" depart="276.00" departLane="bottom1B0_0" departPos="5.10" departSpeed="0.00" departDelay="0.00" arrival="370.00" arrivalLane="C0bottom2_0" arrivalPos="286.40" arrivalSpeed="12.35" duration="94.00" routeLength="858.56" waitingTime="8.00" waitingCount="2" stopTime="0.00" timeLoss="23.56" rerouteNo="0" devices="tripinfo_57" vType="DEFAULT_VEHTYPE" speedFactor="0.90" vaporized=""/>
    <tripinfo id="67" depart="305.00" departLane="top3D3_0" departPos="5.10" departSpeed="0.00" departDelay="0.00" arrival="373.00" arrivalLane="C3top2_0" arrivalPos="286.40" arrivalSpeed="14.30" duration="68.00" routeLength="858.56" waitingTime="0.00" waitingCount="0" stopTime="0.00" timeLoss="9.61" rerouteNo="0" devices="tripinfo_67" vType="DEFAULT_VEHTYPE" speedFactor="1.09" vaporized=""/>
    <tripinfo id="58" depart="276.00" departLane="bottom0A0_0" departPos="5.10" departSpeed="0.00" departDelay="0.00" arrival="390.00" arrivalLane="C0bottom2_0" arrivalPos="286.40" arrivalSpeed="13.15" duration="114.00" routeLength="1161.43" waitingTime="11.00" waitingCount="2" stopTime="0.00" timeLoss="26.92" rerouteNo="0" devices="tripinfo_58" vType="DEFAULT_VEHTYPE" speedFactor="0.98" vaporized=""/>
    <tripinfo id="20" depart="90.00" departLane="bottom2C0_0" departPos="5.10" departSpeed="0.00" departDelay="0.00" arrival="429.00" arrivalLane="A0bottom0_0" arrivalPos="286.40" arrivalSpeed="12.95" duration="339.00" routeLength="1197.66" waitingTime="236.00" waitingCount="2" stopTime="0.00" timeLoss="253.40" rerouteNo="0" devices="tripinfo_20" vType="DEFAULT_VEHTYPE" speedFactor="1.02" vaporized=""/>
    <tripinfo id="89" depart="387.00" departLane="right3D3_0" departPos="5.10" departSpeed="0.00" departDelay="0.00" arrival="433.00" arrivalLane="D3top3_0" arrivalPos="286.40" arrivalSpeed="16.36" duration="46.00" routeLength="576.73" waitingTime="1.00" waitingCount="1" stopTime="0.00" timeLoss="10.55" rerouteNo="0" devices="tripinfo_89" vType="DEFAULT_VEHTYPE" speedFactor="1.21" vaporized=""/>
    <tripinfo id="27" depart="121.00" departLane="top2C3_0" departPos="5.10" departSpeed="0.00" departDelay="0.00" arrival="440.00" arrivalLane="C3top2_0" arrivalPos="286.40" arrivalSpeed="13.66" duration="319.00" routeLength="1748.75" waitingTime="154.00" waitingCount="5" stopTime="0.00" timeLoss="189.21" rerouteNo="0" devices="tripinfo_27" vType="DEFAULT_VEHTYPE" speedFactor="0.99" vaporized=""/>
    <tripinfo id="82" depart="367.00" departLane="top0A3_0" departPos="5.10" departSpeed="0.00" departDelay="0.00" arrival="440.00" arrivalLane="A2left2_0" arrivalPos="286.40" arrivalSpeed="13.27" duration="73.00" routeLength="876.90" waitingTime="1.00" waitingCount="1" stopTime="0.00" timeLoss="10.06" rerouteNo="0" devices="tripinfo_82" vType="DEFAULT_VEHTYPE" speedFactor="1.02" vaporized=""/>
    <tripinfo id="47" depart="205.00" departLane="top2C3_0" departPos="5.10" departSpeed="0.00" departDelay="0.00" arrival="441.00" arrivalLane="D3right3_0" arrivalPos="286.40" arrivalSpeed="12.60" duration="236.00" routeLength="895.01" waitingTime="149.00" waitingCount="2" stopTime="0.00" timeLoss="165.63" rerouteNo="0" devices="tripinfo_47" vType="DEFAULT_VEHTYPE" speedFactor="0.93" vaporized=""/>
    <tripinfo id="63" depart="286.00" departLane="left0A0_0" departPos="5.10" departSpeed="0.00" departDelay="0.00" arrival="443.00" arrivalLane="D0right0_0" arrivalPos="286.40" arrivalSpeed="13.24" duration="157.00" routeLength="1495.58" waitingTime="33.00" waitingCount="1" stopTime="0.00" timeLoss="47.43" rerouteNo="0" devices="tripinfo_63" vType="DEFAULT_VEHTYPE" speedFactor="0.99" vaporized=""/>
    <tripinfo id="36" depart="161.00" departLane="bottom2C0_0" departPos="5.10" departSpeed="0.00" departDelay="0.00" arrival="459.00" arrivalLane="B0bottom1_0" arrivalPos="286.40" arrivalSpeed="13.39" duration="298.00" routeLength="894.86" waitingTime="222.00" waitingCount="1" stopTime="0.00" timeLoss="233.33" rerouteNo="0" devices="tripinfo_36" vType="DEFAULT_VEHTYPE" speedFactor="1.02" vaporized=""/>
    <tripinfo id="5" depart="22.00" departLane="bottom1B0_0" departPos="5.10" departSpeed="0.00" departDelay="0.00" arrival="461.00" arrivalLane="B0bottom1_0" arrivalPos="286.40" arrivalSpeed="12.92" duration="439.00" routeLength="1748.75" waitingTime="273.00" waitingCount="5" stopTime="0.00" timeLoss="306.76" rerouteNo="0" devices="tripinfo_5" vType="DEFAULT_VEHTYPE" speedFactor="0.97" vaporized=""/>
    <tripinfo id="60" depart="277.00" departLane="right1D1_0" departPos="5.10" departSpeed="0.00" departDelay="0.00" arrival="477.00" arrivalLane="A0left0_0" arrivalPos="286.40" arrivalSpeed="14.79" duration="200.00" routeLength="1782.59" waitingTime="58.00" waitingCount="3" stopTime="0.00" timeLoss="84.93" rerouteNo="0" devices="tripinfo_60" vType="DEFAULT_VEHTYPE" speedFactor="1.12" vaporized=""/>
    <tripinfo id="85" depart="379.00" departLane="top3D3_0" departPos="5.10" departSpeed="0.00" departDelay="0.00" arrival="487.00" arrivalLane="B3top1_0" arrivalPos="286.40" arrivalSpeed="12.11" duration="108.00" routeLength="1161.43" waitingTime="1.00" waitingCount="1" stopTime="0.00" timeLoss="15.19" rerouteNo="0" devices="tripinfo_85" vType="DEFAULT_VEHTYPE" speedFactor="0.92" vaporized=""/>
    <tripinfo id="69" depart="312.00" departLane="left3A3_0" departPos="5.10" departSpeed="0.00" departDelay="0.00" arrival="519.00" arrivalLane="A1left1_0" arrivalPos="286.40" arrivalSpeed="12.40" duration="207.00" routeLength="1161.43" waitingTime="96.00" waitingCount="3" stopTime="0.00" timeLoss="116.11" rerouteNo="0" devices="tripinfo_69" vType="DEFAULT_VEHTYPE" speedFactor="0.94" vaporized=""/>
    <tripinfo id="42" depart="189.00" departLane="top3D3_0" departPos="5.10" departSpeed="0.00" departDelay="0.00" arrival="530.00" arrivalLane="A3top0_0" arrivalPos="286.40" arrivalSpeed="12.56" duration="341.00" routeLength="1461.60" waitingTime="205.00" waitingCount="3" stopTime="0.00" timeLoss="228.23" rerouteNo="0" devices="tripinfo_42" vType="DEFAULT_VEHTYPE" speedFactor="0.95" vaporized=""/>
    <tripinfo id="51" depart="228.00" departLane="top3D3_0" departPos="5.10" departSpeed="0.00" departDelay="0.00" arrival="534.00" arrivalLane="A3top0_0" arrivalPos="286.40" arrivalSpeed="14.96" duration="306.00" routeLength="1461.60" waitingTime="175.00" waitingCount="3" stopTime="0.00" timeLoss="208.58" rerouteNo="0" devices="tripinfo_51" vType="DEFAULT_VEHTYPE" speedFactor="1.09" vaporized=""/>
    <tripinfo id="75" depart="334.00" departLane="right3D3_0" departPos="5.10" departSpeed="0.00" departDelay="0.00" arrival="544.00" arrivalLane="A3top0_0" arrivalPos="286.40" arrivalSpeed="11.63" duration="210.00" routeLength="1477.24" waitingTime="60.00" waitingCount="3" stopTime="0.00" timeLoss="92.68" rerouteNo="0" devices="tripinfo_75" vType="DEFAULT_VEHTYPE" speedFactor="0.92" vaporized=""/>
    <tripinfo id="71" depart="316.00" departLane="left0A0_0" departPos="5.10" departSpeed="0.00" departDelay="0.00" arrival="564.00" arrivalLane="A0left0_0" arrivalPos="286.40" arrivalSpeed="11.03" duration="248.00" routeLength="1745.91" waitingTime="62.00" waitingCount="5" stopTime="0.00" timeLoss="92.01" rerouteNo="0" devices="tripinfo_71" vType="DEFAULT_VEHTYPE" speedFactor="0.82" vaporized=""/>
    <tripinfo id="104" depart="440.00" departLane="left2A2_0" departPos="5.10" departSpeed="0.00" departDelay="0.00" arrival="567.00" arrivalLane="A0left0_0" arrivalPos="286.40" arrivalSpeed="13.38" duration="127.00" routeLength="1161.43" waitingTime="20.00" waitingCount="3" stopTime="0.00" timeLoss="43.83" rerouteNo="0" devices="tripinfo_104" vType="DEFAULT_VEHTYPE" speedFactor="1.03" vaporized=""/>
    <tripinfo id="21" depart="91.00" departLane="left2A2_0" departPos="5.10" departSpeed="0.00" departDelay="0.00" arrival="574.00" arrivalLane="B3top1_0" arrivalPos="286.40" arrivalSpeed="11.29" duration="483.00" routeLength="1195.18" waitingTime="360.00" waitingCount="2" stopTime="0.00" timeLoss="378.27" rerouteNo="0" devices="tripinfo_21" vType="DEFAULT_VEHTYPE" speedFactor="0.83" vaporized=""/>
    <tripinfo id="113" depart="485.00" departLane="left1A1_0" departPos="5.10" departSpeed="0.00" departDelay="0.00" arrival="574.00" arrivalLane="A0left0_0" arrivalPos="286.40" arrivalSpeed="12.71" duration="89.00" routeLength="858.56" waitingTime="6.00" waitingCount="2" stopTime="0.00" timeLoss="24.42" rerouteNo="0" devices="tripinfo_113" vType="DEFAULT_VEHTYPE" speedFactor="0.98" vaporized=""/>
    <tripinfo id="102" depart="434.00" departLane="top1B3_0" departPos="5.10" departSpeed="0.00" departDelay="0.00" arrival="583.00" arrivalLane="B3top1_0" arrivalPos="286.40" arrivalSpeed="13.35" duration="149.00" routeLength="1748.75" waitingTime="2.00" waitingCount="2" stopTime="0.00" timeLoss="24.55" rerouteNo="0" devices="tripinfo_102" vType="DEFAULT_VEHTYPE" speedFactor="1.03" vaporized=""/>
    <tripinfo id="23" depart="107.00" departLane="top3D3_0" departPos="5.10" departSpeed="0.00" departDelay="0.00" arrival="591.00" arrivalLane="A3left3_0" arrivalPos="286.40" arrivalSpeed="12.27" duration="484.00" routeLength="1479.94" waitingTime="340.00" waitingCount="3" stopTime="0.00" timeLoss="365.76" rerouteNo="0" devices="tripinfo_23" vType="DEFAULT_VEHTYPE" speedFactor="0.91" vaporized=""/>
    <tripinfo id="9" depart="46.00" departLane="top0A3_0" departPos="5.10" departSpeed="0.00" departDelay="0.00" arrival="599.00" arrivalLane="A3top0_0" arrivalPos="286.40" arrivalSpeed="13.26" duration="553.00" routeLength="1745.91" waitingTime="403.00" waitingCount="2" stopTime="0.00" timeLoss="427.94" rerouteNo="0" devices="tripinfo_9" vType="DEFAULT_VEHTYPE" speedFactor="1.02" vaporized=""/>
    <tripinfo id="8" depart="41.00" departLane="left2A2_0" departPos="5.10" departSpeed="0.00" departDelay="0.00" arrival="601.00" arrivalLane="A3top0_0" arrivalPos="286.40" arrivalSpeed="13.43" duration="560.00" routeLength="895.01" waitingTime="479.00" waitingCount="2" stopTime="0.00" timeLoss="497.23" rerouteNo="0" devices="tripinfo_8" vType="DEFAULT_VEHTYPE" speedFactor="1.04" vaporized=""/>
    <tripinfo id="41" depart="188.00" departLane="left0A0_0" departPos="5.10" departSpeed="0.00" departDelay="0.00" arrival="601.00" arrivalLane="A3top0_1" arrivalPos="286.40" arrivalSpeed="15.46" duration="413.00" routeLength="1495.35" waitingTime="292.00" waitingCount="3" stopTime="0.00" timeLoss="317.47" rerouteNo="0" devices="tripinfo_41" vType="DEFAULT_VEHTYPE" speedFactor="1.14" vaporized=""/>
    <tripinfo id="121" depart="511.00" departLane="bottom1B0_0" departPos="5.10" departSpeed="0.00" departDelay="0.00" arrival="607.00" arrivalLane="A0left0_0" arrivalPos="286.40" arrivalSpeed="15.55" duration="96.00" routeLength="895.01" waitingTime="26.00" waitingCount="1" stopTime="0.00" timeLoss="38.33" rerouteNo="0" devices="tripinfo_121" vType="DEFAULT_VEHTYPE" speedFactor="1.14" vaporized=""/>
    <tripinfo id="130" depart="545.00" departLane="top1B3_0" departPos="5.10" departSpeed="0.00" departDelay="0.00" arrival="620.00" arrivalLane="A3top0_0" arrivalPos="286.40" arrivalSpeed="14.08" duration="75.00" routeLength="858.56" waitingTime="2.00" waitingCount="2" stopTime="0.00" timeLoss="17.55" rerouteNo="0" devices="tripinfo_130" vType="DEFAULT_VEHTYPE" speedFactor="1.11" vaporized=""/>
    <tripinfo id="17" depart="79.00" departLane="top2C3_0" departPos="5.10" departSpeed="0.00" departDelay="0.00" arrival="621.00" arrivalLane="D3top3_0" arrivalPos="286.40" arrivalSpeed="11.96" duration="542.00" routeLength="894.86" waitingTime="455.00" waitingCount="2" stopTime="0.00" timeLoss="471.12" rerouteNo="0" devices="tripinfo_17" vType="DEFAULT_VEHTYPE" speedFactor="0.92" vaporized=""/>
    <tripinfo id="29" depart="129.00" departLane="top3D3_0" departPos="5.10" departSpeed="0.00" departDelay="0.00" arrival="624.00" arrivalLane="D3top3_0" arrivalPos="286.40" arrivalSpeed="11.48" duration="495.00" routeLength="1748.75" waitingTime="322.00" waitingCount="4" stopTime="0.00" timeLoss="352.65" rerouteNo="0" devices="tripinfo_29" vType="DEFAULT_VEHTYPE" speedFactor="0.90" vaporized=""/>
    <tripinfo id="2" depart="13.00" departLane="left3A3_0" departPos="5.10" departSpeed="0.00" departDelay="0.00" arrival="627.00" arrivalLane="D1right1_0" arrivalPos="286.40" arrivalSpeed="14.31" duration="614.00" routeLength="2082.76" waitingTime="435.00" waitingCount="6" stopTime="0.00" timeLoss="478.86" rerouteNo="0" devices="tripinfo_2" vType="DEFAULT_VEHTYPE" speedFactor="1.12" vaporized=""/>
    <tripinfo id="64" depart="288.00" departLane="top3D3_0" departPos="5.10" departSpeed="0.00" departDelay="0.00" arrival="627.00" arrivalLane="D3top3_0" arrivalPos="286.40" arrivalSpeed="11.32" duration="339.00" routeLength="1748.75" waitingTime="169.00" waitingCount="3" stopTime="0.00" timeLoss="194.51" rerouteNo="0" devices="tripinfo_64" vType="DEFAULT_VEHTYPE" speedFactor="0.89" vaporized=""/>
    <tripinfo id="108" depart="471.00" departLane="top3D3_0" departPos="5.10" departSpeed="0.00" departDelay="0.00" arrival="631.00" arrivalLane="D1right1_0" arrivalPos="286.40" arrivalSpeed="12.90" duration="160.00" routeLength="1197.89" waitingTime="54.00" waitingCount="2" stopTime="0.00" timeLoss="73.50" rerouteNo="0" devices="tripinfo_108" vType="DEFAULT_VEHTYPE" speedFactor="1.01" vaporized=""/>
    <tripinfo id="77" depart="349.00" departLane="right0D0_0" departPos="5.10" departSpeed="0.00" departDelay="0.00" arrival="666.00" arrivalLane="D0bottom3_0" arrivalPos="286.40" arrivalSpeed="16.32" duration="317.00" routeLength="597.55" waitingTime="270.00" waitingCount="1" stopTime="0.00" timeLoss="280.46" rerouteNo="0" devices="tripinfo_77" vType="DEFAULT_VEHTYPE" speedFactor="1.20" vaporized=""/>
    <tripinfo id="98" depart="424.00" departLane="bottom0A0_0" departPos="5.10" departSpeed="0.00" departDelay="0.00" arrival="669.00" arrivalLane="A0bottom0_0" arrivalPos="286.40" arrivalSpeed="13.24" duration="245.00" routeLength="1748.75" waitingTime="84.00" waitingCount="5" stopTime="0.00" timeLoss="118.81" rerouteNo="0" devices="tripinfo_98" vType="DEFAULT_VEHTYPE" speedFactor="1.02" vaporized=""/>
    <tripinfo id="123" depart="518.00" departLane="right0D0_0" departPos="5.10" departSpeed="0.00" departDelay="0.00" arrival="671.00" arrivalLane="D0bottom3_0" arrivalPos="286.40" arrivalSpeed="13.91" duration="153.00" routeLength="597.55" waitingTime="99.00" waitingCount="1" stopTime="0.00" timeLoss="110.32" rerouteNo="0" devices="tripinfo_123" vType="DEFAULT_VEHTYPE" speedFactor="1.03" vaporized=""/>
    <tripinfo id="90" depart="391.00" departLane="top3D3_0" departPos="5.10" departSpeed="0.00" departDelay="0.00" arrival="688.00" arrivalLane="A3top0_0" arrivalPos="286.40" arrivalSpeed="12.30" duration="297.00" routeLength="1461.60" waitingTime="156.00" waitingCount="4" stopTime="0.00" timeLoss="187.07" rerouteNo="0" devices="tripinfo_90" vType="DEFAULT_VEHTYPE" speedFactor="0.97" vaporized=""/>
    <tripinfo id="150" depart="612.00" departLane="left3A3_0" departPos="5.10" departSpeed="0.00" departDelay="0.00" arrival="693.00" arrivalLane="A1left1_0" arrivalPos="286.40" arrivalSpeed="17.15" duration="81.00" routeLength="1161.43" waitingTime="1.00" waitingCount="1" stopTime="0.00" timeLoss="15.88" rerouteNo="0" devices="tripinfo_150" vType="DEFAULT_VEHTYPE" speedFactor="1.30" vaporized=""/>
    <tripinfo id="154" depart="630.00" departLane="top0A3_0" departPos="5.10" departSpeed="0.00" departDelay="0.00" arrival="698.00" arrivalLane="A2left2_0" arrivalPos="286.40" arrivalSpeed="13.75" duration="68.00" routeLength="876.90" waitingTime="0.00" waitingCount="0" stopTime="0.00" timeLoss="8.14" rerouteNo="0" devices="tripinfo_154" vType="DEFAULT_VEHTYPE" speedFactor="1.08" vaporized=""/>
    <tripinfo id="165" depart="661.00" departLane="right3D3_0" departPos="5.10" departSpeed="0.00" departDelay="0.00" arrival="713.00" arrivalLane="D3top3_0" arrivalPos="286.40" arrivalSpeed="13.91" duration="52.00" routeLength="576.73" waitingTime="1.00" waitingCount="1" stopTime="0.00" timeLoss="12.11" rerouteNo="0" devices="tripinfo_165" vType="DEFAULT_VEHTYPE" speedFactor="1.06" vaporized=""/>
    <tripinfo id="147" depart="604.00" departLane="top3D3_0" departPos="5.10" departSpeed="0.00" departDelay="0.00" arrival="723.00" arrivalLane="D2right2_0" arrivalPos="286.40" arrivalSpeed="12.40" duration="119.00" routeLength="897.72" waitingTime="35.00" waitingCount="1" stopTime="0.00" timeLoss="45.73" rerouteNo="0" devices="tripinfo_147" vType="DEFAULT_VEHTYPE" speedFactor="0.90" vaporized=""/>
    <tripinfo id="3" depart="18.00" departLane="bottom3D0_0" departPos="5.10" departSpeed="0.00" departDelay="0.00" arrival="727.00" arrivalLane="A3top0_0" arrivalPos="286.40" arrivalSpeed="12.59" duration="709.00" routeLength="2380.22" waitingTime="490.00" waitingCount="4" stopTime="0.00" timeLoss="530.89" rerouteNo="0" devices="tripinfo_3" vType="DEFAULT_VEHTYPE" speedFactor="0.97" vaporized=""/>
    <tripinfo id="136" depart="574.00" departLane="top0A3_0" departPos="5.10" departSpeed="0.00" departDelay="0.00" arrival="731.00" arrivalLane="A3top0_0" arrivalPos="286.40" arrivalSpeed="12.88" duration="157.00" routeLength="1745.91" waitingTime="5.00" waitingCount="2" stopTime="0.00" timeLoss="25.02" rerouteNo="0" devices="tripinfo_136" vType="DEFAULT_VEHTYPE" speedFactor="0.97" vaporized=""/>
    <tripinfo id="166" depart="662.00" departLane="bottom2C0_0" departPos="5.10" departSpeed="0.00" departDelay="0.00" arrival="745.00" arrivalLane="D0bottom3_0" arrivalPos="286.40" arrivalSpeed="12.26" duration="83.00" routeLength="858.56" waitingTime="1.00" waitingCount="1" stopTime="0.00" timeLoss="14.30" rerouteNo="0" devices="tripinfo_166" vType="DEFAULT_VEHTYPE" speedFactor="0.92" vaporized=""/>
    <tripinfo id="26" depart="121.00" departLane="right0D0_0" departPos="5.10" departSpeed="0.00" departDelay="0.00" arrival="751.00" arrivalLane="D0right0_1" arrivalPos="286.40" arrivalSpeed="14.29" duration="630.00" routeLength="1748.75" waitingTime="470.00" waitingCount="5" stopTime="0.00" timeLoss="507.42" rerouteNo="0" devices="tripinfo_26" vType="DEFAULT_VEHTYPE" speedFactor="1.05" vaporized=""/>
    <tripinfo id="45" depart="197.00" departLane="right2D2_0" departPos="5.10" departSpeed="0.00" departDelay="0.00" arrival="753.00" arrivalLane="D0right0_0" arrivalPos="286.40" arrivalSpeed="11.79" duration="556.00" routeLength="1197.66" waitingTime="444.00" waitingCount="1" stopTime="0.00" timeLoss="456.44" rerouteNo="0" devices="tripinfo_45" vType="DEFAULT_VEHTYPE" speedFactor="0.88" vaporized=""/>
    <tripinfo id="39" depart="176.00" departLane="bottom3D0_0" departPos="5.10" departSpeed="0.00" departDelay="0.00" arrival="779.00" arrivalLane="B0bottom1_0" arrivalPos="286.40" arrivalSpeed="13.43" duration="603.00" routeLength="1197.66" waitingTime="494.00" waitingCount="3" stopTime="0.00" timeLoss="515.45" rerouteNo="0" devices="tripinfo_39" vType="DEFAULT_VEHTYPE" speedFactor="1.00" vaporized=""/>
    <tripinfo id="185" depart="734.00" departLane="top0A3_0" departPos="5.10" departSpeed="0.00" departDelay="0.00" arrival="790.00" arrivalLane="A3left3_0" arrivalPos="286.40" arrivalSpeed="11.33" duration="56.00" routeLength="576.73" waitingTime="0.00" waitingCount="0" stopTime="0.00" timeLoss="7.00" rerouteNo="0" devices="tripinfo_185" vType="DEFAULT_VEHTYPE" speedFactor="0.86" vaporized=""/>
    <tripinfo id="184" depart="731.00" departLane="left0A0_0" departPos="5.10" departSpeed="0.00" departDelay="0.00" arrival="791.00" arrivalLane="A0bottom0_0" arrivalPos="286.40" arrivalSpeed="11.53" duration="60.00" routeLength="576.73" waitingTime="1.00" waitingCount="1" stopTime="0.00" timeLoss="11.61" rerouteNo="0" devices="tripinfo_184" vType="DEFAULT_VEHTYPE" speedFactor="0.88" vaporized=""/>
    <tripinfo id="92" depart="400.00" departLane="bottom0A0_0" departPos="5.10" departSpeed="0.00" departDelay="0.00" arrival="801.00" arrivalLane="D0right0_0" arrivalPos="286.40" arrivalSpeed="13.47" duration="401.00" routeLength="1479.94" waitingTime="277.00" waitingCount="2" stopTime="0.00" timeLoss="295.73" rerouteNo="0" devices="tripinfo_92" vType="DEFAULT_VEHTYPE" speedFactor="1.03" vaporized=""/>
    <tripinfo id="133" depart="555.00" departLane="bottom0A0_0" departPos="5.10" departSpeed="0.00" departDelay="0.00" arrival="802.00" arrivalLane="A1left1_0" arrivalPos="286.40" arrivalSpeed="11.58" duration="247.00" routeLength="897.72" waitingTime="157.00" waitingCount="2" stopTime="0.00" timeLoss="173.24" rerouteNo="0" devices="tripinfo_133" vType="DEFAULT_VEHTYPE" speedFactor="0.89" vaporized=""/>
    <tripinfo id="158" depart="650.00" departLane="top0A3_0" departPos="5.10" departSpeed="0.00" departDelay="0.00" arrival="811.00" arrivalLane="A3top0_0" arrivalPos="286.40" arrivalSpeed="14.14" duration="161.00" routeLength="1745.91" waitingTime="9.00" waitingCount="4" stopTime="0.00" timeLoss="40.59" rerouteNo="0" devices="tripinfo_158" vType="DEFAULT_VEHTYPE" speedFactor="1.06" vaporized=""/>
    <tripinfo id="59" depart="276.00" departLane="left2A2_0" departPos="5.10" departSpeed="0.00" departDelay="0.00" arrival="812.00" arrivalLane="D2right2_1" arrivalPos="286.40" arrivalSpeed="13.51" duration="536.00" routeLength="1495.58" waitingTime="395.00" waitingCount="3" stopTime="0.00" timeLoss="426.39" rerouteNo="0" devices="tripinfo_59" vType="DEFAULT_VEHTYPE" speedFactor="0.99" vaporized=""/>
    <tripinfo id="100" depart="432.00" departLane="bottom0A0_0" departPos="5.10" departSpeed="0.00" departDelay="0.00" arrival="812.00" arrivalLane="D2right2_2" arrivalPos="286.40" arrivalSpeed="14.19" duration="380.00" routeLength="2080.28" waitingTime="188.00" waitingCount="7" stopTime="0.00" timeLoss="244.83" rerouteNo="0" devices="tripinfo_100" vType="DEFAULT_VEHTYPE" speedFactor="1.11" vaporized=""/>
    <tripinfo id="1" depart="1.00" departLane="top1B3_0" departPos="5.10" departSpeed="0.00" departDelay="0.00" arrival="814.00" arrivalLane="D2right2_0" arrivalPos="286.40" arrivalSpeed="10.39" duration="813.00" routeLength="1495.35" waitingTime="659.00" waitingCount="2" stopTime="0.00" timeLoss="679.51" rerouteNo="0" devices="tripinfo_1" vType="DEFAULT_VEHTYPE" speedFactor="0.81" vaporized=""/>
    <tripinfo id="148" depart="610.00" departLane="bottom1B0_0" departPos="5.10" departSpeed="0.00" departDelay="0.00" arrival="817.00" arrivalLane="D0bottom3_0" arrivalPos="286.40" arrivalSpeed="11.07" duration="207.00" routeLength="1161.43" waitingTime="83.00" waitingCount="2" stopTime="0.00" timeLoss="102.90" rerouteNo="0" devices="tripinfo_148" vType="DEFAULT_VEHTYPE" speedFactor="0.82" vaporized=""/>
    <tripinfo id="49" depart="219.00" departLane="left1A1_0" departPos="5.10" departSpeed="0.00" departDelay="0.00" arrival="820.00" arrivalLane="A2left2_0" arrivalPos="286.40" arrivalSpeed="12.50" duration="601.00" routeLength="894.86" waitingTime="516.00" waitingCount="2" stopTime="0.00" timeLoss="533.83" rerouteNo="0" devices="tripinfo_49" vType="DEFAULT_VEHTYPE" speedFactor="0.97" vaporized=""/>
    <tripinfo id="53" depart="248.00" departLane="left1A1_0" departPos="5.10" departSpeed="0.00" departDelay="0.00" arrival="822.00" arrivalLane="A2left2_1" arrivalPos="286.40" arrivalSpeed="13.26" duration="574.00" routeLength="894.86" waitingTime="489.00" waitingCount="2" stopTime="0.00" timeLoss="508.93" rerouteNo="0" devices="tripinfo_53" vType="DEFAULT_VEHTYPE" speedFactor="1.02" vaporized=""/>
    <tripinfo id="38" depart="169.00" departLane="top2C3_0" departPos="5.10" departSpeed="0.00" departDelay="0.00" arrival="823.00" arrivalLane="D1right1_0" arrivalPos="286.40" arrivalSpeed="11.34" duration="654.00" routeLength="1495.35" waitingTime="498.00" waitingCount="4" stopTime="0.00" timeLoss="529.07" rerouteNo="0" devices="tripinfo_38" vType="DEFAULT_VEHTYPE" speedFactor="0.87" vaporized=""/>
    <tripinfo id="193" depart="757.00" departLane="top3D3_0" departPos="5.10" departSpeed="0.00" departDelay="0.00" arrival="856.00" arrivalLane="B3top1_0" arrivalPos="286.40" arrivalSpeed="13.64" duration="99.00" routeLength="1161.43" waitingTime="1.00" waitingCount="1" stopTime="0.00" timeLoss="16.91" rerouteNo="0" devices="tripinfo_193" vType="DEFAULT_VEHTYPE" speedFactor="1.04" vaporized=""/>
    <tripinfo id="115" depart="489.00" departLane="top2C3_0" departPos="5.10" departSpeed="0.00" departDelay="0.00" arrival="858.00" arrivalLane="D3right3_1" arrivalPos="286.40" arrivalSpeed="14.95" duration="369.00" routeLength="895.01" waitingTime="292.00" waitingCount="2" stopTime="0.00" timeLoss="313.05" rerouteNo="0" devices="tripinfo_115" vType="DEFAULT_VEHTYPE" speedFactor="1.17" vaporized=""/>
    <tripinfo id="68" depart="305.00" departLane="top2C3_0" departPos="5.10" departSpeed="0.00" departDelay="0.00" arrival="860.00" arrivalLane="D3right3_0" arrivalPos="286.40" arrivalSpeed="11.81" duration="555.00" routeLength="895.01" waitingTime="470.00" waitingCount="2" stopTime="0.00" timeLoss="485.86" rerouteNo="0" devices="tripinfo_68" vType="DEFAULT_VEHTYPE" speedFactor="0.94" vaporized=""/>