<?xml version="1.0" encoding="UTF-8"?>

<!-- generated on 2023-08-30 13:41:01 by Eclipse SUMO libsumo Version 1.18.0
<configuration xmlns:xsi="http://www.w3.org/2001/XMLSchema-instance" xsi:noNamespaceSchemaLocation="http://sumo.dlr.de/xsd/libsumoConfiguration.xsd">

    <input>
        <net-file value="/home/stefan/RESCO/./environments/grid4x4/grid4x4.net.xml"/>
        <route-files value="/home/stefan/RESCO/./environments/grid4x4/grid4x4_72.rou.xml"/>
    </input>

    <output>
        <tripinfo-output value="/home/stefan/results/RAINBOW-tr0-grid4x4-0-drq_norm-wait_norm/tripinfo_72.xml"/>
        <tripinfo-output.write-unfinished value="true"/>
    </output>

    <processing>
        <time-to-teleport value="-1"/>
    </processing>

    <report>
        <no-warnings value="True"/>
        <no-step-log value="True"/>
    </report>

    <random_number>
        <random value="true"/>
    </random_number>

</configuration>
-->

<tripinfos xmlns:xsi="http://www.w3.org/2001/XMLSchema-instance" xsi:noNamespaceSchemaLocation="http://sumo.dlr.de/xsd/tripinfo_file.xsd">
    <tripinfo id="31" depart="123.00" departLane="bottom2C0_0" departPos="5.10" departSpeed="0.00" departDelay="0.00" arrival="196.00" arrivalLane="D0right0_0" arrivalPos="286.40" arrivalSpeed="13.37" duration="73.00" routeLength="879.60" waitingTime="0.00" waitingCount="0" stopTime="0.00" timeLoss="7.78" rerouteNo="0" devices="tripinfo_31" vType="DEFAULT_VEHTYPE" speedFactor="0.98" vaporized=""/>
    <tripinfo id="27" depart="111.00" departLane="bottom0A0_0" departPos="5.10" departSpeed="0.00" departDelay="0.00" arrival="216.00" arrivalLane="C0bottom2_0" arrivalPos="286.40" arrivalSpeed="14.39" duration="105.00" routeLength="1161.43" waitingTime="3.00" waitingCount="3" stopTime="0.00" timeLoss="27.80" rerouteNo="0" devices="tripinfo_27" vType="DEFAULT_VEHTYPE" speedFactor="1.11" vaporized=""/>
    <tripinfo id="12" depart="48.00" departLane="left0A0_0" departPos="5.10" departSpeed="0.00" departDelay="0.00" arrival="230.00" arrivalLane="A2left2_0" arrivalPos="286.40" arrivalSpeed="13.30" duration="182.00" routeLength="1197.66" waitingTime="77.00" waitingCount="1" stopTime="0.00" timeLoss="91.36" rerouteNo="0" devices="tripinfo_12" vType="DEFAULT_VEHTYPE" speedFactor="0.97" vaporized=""/>
    <tripinfo id="37" depart="146.00" departLane="right1D1_0" departPos="5.10" departSpeed="0.00" departDelay="0.00" arrival="231.00" arrivalLane="D2right2_0" arrivalPos="286.40" arrivalSpeed="12.35" duration="85.00" routeLength="858.56" waitingTime="1.00" waitingCount="1" stopTime="0.00" timeLoss="16.23" rerouteNo="0" devices="tripinfo_37" vType="DEFAULT_VEHTYPE" speedFactor="0.92" vaporized=""/>
    <tripinfo id="25" depart="103.00" departLane="top0A3_0" departPos="5.10" departSpeed="0.00" departDelay="0.00" arrival="247.00" arrivalLane="A0left0_0" arrivalPos="286.40" arrivalSpeed="13.61" duration="144.00" routeLength="1477.24" waitingTime="14.00" waitingCount="2" stopTime="0.00" timeLoss="39.54" rerouteNo="0" devices="tripinfo_25" vType="DEFAULT_VEHTYPE" speedFactor="1.02" vaporized=""/>
    <tripinfo id="28" depart="112.00" departLane="bottom2C0_0" departPos="5.10" departSpeed="0.00" departDelay="0.00" arrival="266.00" arrivalLane="D2right2_0" arrivalPos="286.40" arrivalSpeed="15.58" duration="154.00" routeLength="1479.94" waitingTime="42.00" waitingCount="2" stopTime="0.00" timeLoss="62.06" rerouteNo="0" devices="tripinfo_28" vType="DEFAULT_VEHTYPE" speedFactor="1.17" vaporized=""/>
    <tripinfo id="13" depart="50.00" departLane="bottom1B0_0" departPos="5.10" departSpeed="0.00" departDelay="0.00" arrival="270.00" arrivalLane="D2right2_0" arrivalPos="286.40" arrivalSpeed="13.60" duration="220.00" routeLength="1780.11" waitingTime="75.00" waitingCount="2" stopTime="0.00" timeLoss="99.24" rerouteNo="0" devices="tripinfo_13" vType="DEFAULT_VEHTYPE" speedFactor="1.07" vaporized=""/>
    <tripinfo id="55" depart="221.00" departLane="top1B3_0" departPos="5.10" departSpeed="0.00" departDelay="0.00" arrival="320.00" arrivalLane="A2left2_0" arrivalPos="286.40" arrivalSpeed="12.61" duration="99.00" routeLength="1179.77" waitingTime="0.00" waitingCount="0" stopTime="0.00" timeLoss="9.24" rerouteNo="0" devices="tripinfo_55" vType="DEFAULT_VEHTYPE" speedFactor="0.96" vaporized=""/>
    <tripinfo id="41" depart="166.00" departLane="bottom0A0_0" departPos="5.10" departSpeed="0.00" departDelay="0.00" arrival="323.00" arrivalLane="A0left0_0" arrivalPos="286.40" arrivalSpeed="12.19" duration="157.00" routeLength="597.55" waitingTime="97.00" waitingCount="1" stopTime="0.00" timeLoss="106.99" rerouteNo="0" devices="tripinfo_41" vType="DEFAULT_VEHTYPE" speedFactor="0.88" vaporized=""/>
    <tripinfo id="30" depart="122.00" departLane="top2C3_0" departPos="5.10" departSpeed="0.00" departDelay="0.00" arrival="328.00" arrivalLane="A3top0_0" arrivalPos="286.40" arrivalSpeed="12.67" duration="206.00" routeLength="1161.43" waitingTime="99.00" waitingCount="2" stopTime="0.00" timeLoss="118.79" rerouteNo="0" devices="tripinfo_30" vType="DEFAULT_VEHTYPE" speedFactor="0.98" vaporized=""/>
    <tripinfo id="58" depart="253.00" departLane="top0A3_0" departPos="5.10" departSpeed="0.00" departDelay="0.00" arrival="340.00" arrivalLane="B3top1_0" arrivalPos="286.40" arrivalSpeed="13.27" duration="87.00" routeLength="894.86" waitingTime="10.00" waitingCount="1" stopTime="0.00" timeLoss="20.66" rerouteNo="0" devices="tripinfo_58" vType="DEFAULT_VEHTYPE" speedFactor="0.99" vaporized=""/>
    <tripinfo id="68" depart="289.00" departLane="right3D3_0" departPos="5.10" departSpeed="0.00" departDelay="0.00" arrival="346.00" arrivalLane="D3top3_0" arrivalPos="286.40" arrivalSpeed="11.32" duration="57.00" routeLength="576.73" waitingTime="0.00" waitingCount="0" stopTime="0.00" timeLoss="6.67" rerouteNo="0" devices="tripinfo_68" vType="DEFAULT_VEHTYPE" speedFactor="0.84" vaporized=""/>
    <tripinfo id="64" depart="274.00" departLane="top3D3_0" departPos="5.10" departSpeed="0.00" departDelay="0.00" arrival="361.00" arrivalLane="D2right2_0" arrivalPos="286.40" arrivalSpeed="11.46" duration="87.00" routeLength="897.72" waitingTime="0.00" waitingCount="0" stopTime="0.00" timeLoss="7.45" rerouteNo="0" devices="tripinfo_64" vType="DEFAULT_VEHTYPE" speedFactor="0.83" vaporized=""/>
    <tripinfo id="50" depart="199.00" departLane="top0A3_0" departPos="5.10" departSpeed="0.00" departDelay="0.00" arrival="363.00" arrivalLane="A1left1_0" arrivalPos="286.40" arrivalSpeed="12.94" duration="164.00" routeLength="1177.07" waitingTime="64.00" waitingCount="1" stopTime="0.00" timeLoss="78.00" rerouteNo="0" devices="tripinfo_50" vType="DEFAULT_VEHTYPE" speedFactor="1.00" vaporized=""/>
    <tripinfo id="70" depart="305.00" departLane="left2A2_0" departPos="5.10" departSpeed="0.00" departDelay="0.00" arrival="375.00" arrivalLane="A1left1_0" arrivalPos="286.40" arrivalSpeed="15.26" duration="70.00" routeLength="858.56" waitingTime="1.00" waitingCount="1" stopTime="0.00" timeLoss="14.47" rerouteNo="0" devices="tripinfo_70" vType="DEFAULT_VEHTYPE" speedFactor="1.14" vaporized=""/>
    <tripinfo id="6" depart="36.00" departLane="bottom2C0_0" departPos="5.10" departSpeed="0.00" departDelay="0.00" arrival="376.00" arrivalLane="D1right1_0" arrivalPos="286.40" arrivalSpeed="14.98" duration="340.00" routeLength="1179.77" waitingTime="251.00" waitingCount="1" stopTime="0.00" timeLoss="266.76" rerouteNo="0" devices="tripinfo_6" vType="DEFAULT_VEHTYPE" speedFactor="1.17" vaporized=""/>
    <tripinfo id="53" depart="205.00" departLane="bottom1B0_0" departPos="5.10" departSpeed="0.00" departDelay="0.00" arrival="381.00" arrivalLane="B0bottom1_0" arrivalPos="286.40" arrivalSpeed="13.36" duration="176.00" routeLength="1748.75" waitingTime="16.00" waitingCount="4" stopTime="0.00" timeLoss="43.44" rerouteNo="0" devices="tripinfo_53" vType="DEFAULT_VEHTYPE" speedFactor="0.97" vaporized=""/>
    <tripinfo id="76" depart="317.00" departLane="top1B3_0" departPos="5.10" departSpeed="0.00" departDelay="0.00" arrival="388.00" arrivalLane="A3top0_0" arrivalPos="286.40" arrivalSpeed="15.80" duration="71.00" routeLength="858.56" waitingTime="1.00" waitingCount="1" stopTime="0.00" timeLoss="15.78" rerouteNo="0" devices="tripinfo_76" vType="DEFAULT_VEHTYPE" speedFactor="1.15" vaporized=""/>
    <tripinfo id="47" depart="191.00" departLane="left3A3_0" departPos="5.10" departSpeed="0.00" departDelay="0.00" arrival="391.00" arrivalLane="A0left0_0" arrivalPos="286.40" arrivalSpeed="13.35" duration="200.00" routeLength="1461.60" waitingTime="70.00" waitingCount="3" stopTime="0.00" timeLoss="94.25" rerouteNo="0" devices="tripinfo_47" vType="DEFAULT_VEHTYPE" speedFactor="1.01" vaporized=""/>
    <tripinfo id="16" depart="61.00" departLane="right0D0_0" departPos="5.10" departSpeed="0.00" departDelay="0.00" arrival="426.00" arrivalLane="D0right0_0" arrivalPos="286.40" arrivalSpeed="16.69" duration="365.00" routeLength="1748.75" waitingTime="225.00" waitingCount="4" stopTime="0.00" timeLoss="261.96" rerouteNo="0" devices="tripinfo_16" vType="DEFAULT_VEHTYPE" speedFactor="1.25" vaporized=""/>
    <tripinfo id="18" depart="72.00" departLane="top1B3_0" departPos="5.10" departSpeed="0.00" departDelay="0.00" arrival="458.00" arrivalLane="C0bottom2_0" arrivalPos="286.40" arrivalSpeed="14.62" duration="386.00" routeLength="1782.59" waitingTime="244.00" waitingCount="2" stopTime="0.00" timeLoss="267.44" rerouteNo="0" devices="tripinfo_18" vType="DEFAULT_VEHTYPE" speedFactor="1.10" vaporized=""/>
    <tripinfo id="39" depart="148.00" departLane="top1B3_0" departPos="5.10" departSpeed="0.00" departDelay="0.00" arrival="465.00" arrivalLane="C0bottom2_0" arrivalPos="286.40" arrivalSpeed="12.40" duration="317.00" routeLength="1782.59" waitingTime="162.00" waitingCount="2" stopTime="0.00" timeLoss="183.70" rerouteNo="0" devices="tripinfo_39" vType="DEFAULT_VEHTYPE" speedFactor="0.98" vaporized=""/>
    <tripinfo id="29" depart="118.00" departLane="right3D3_0" departPos="5.10" departSpeed="0.00" departDelay="0.00" arrival="485.00" arrivalLane="D3right3_0" arrivalPos="286.40" arrivalSpeed="10.24" duration="367.00" routeLength="1745.91" waitingTime="178.00" waitingCount="3" stopTime="0.00" timeLoss="207.83" rerouteNo="0" devices="tripinfo_29" vType="DEFAULT_VEHTYPE" speedFactor="0.81" vaporized=""/>
    <tripinfo id="96" depart="415.00" departLane="top3D3_0" departPos="5.10" departSpeed="0.00" departDelay="0.00" arrival="507.00" arrivalLane="D1right1_0" arrivalPos="286.40" arrivalSpeed="14.25" duration="92.00" routeLength="1197.89" waitingTime="0.00" waitingCount="0" stopTime="0.00" timeLoss="7.75" rerouteNo="0" devices="tripinfo_96" vType="DEFAULT_VEHTYPE" speedFactor="1.03" vaporized=""/>
    <tripinfo id="45" depart="183.00" departLane="left1A1_0" departPos="5.10" departSpeed="0.00" departDelay="0.00" arrival="511.00" arrivalLane="A2left2_0" arrivalPos="286.40" arrivalSpeed="12.90" duration="328.00" routeLength="894.86" waitingTime="241.00" waitingCount="2" stopTime="0.00" timeLoss="258.95" rerouteNo="0" devices="tripinfo_45" vType="DEFAULT_VEHTYPE" speedFactor="0.96" vaporized=""/>
    <tripinfo id="38" depart="147.00" departLane="bottom0A0_0" departPos="5.10" departSpeed="0.00" departDelay="0.00" arrival="512.00" arrivalLane="D0bottom3_0" arrivalPos="286.40" arrivalSpeed="13.08" duration="365.00" routeLength="1461.60" waitingTime="230.00" waitingCount="4" stopTime="0.00" timeLoss="260.30" rerouteNo="0" devices="tripinfo_38" vType="DEFAULT_VEHTYPE" speedFactor="1.01" vaporized=""/>
    <tripinfo id="105" depart="452.00" departLane="top1B3_0" departPos="5.10" departSpeed="0.00" departDelay="0.00" arrival="518.00" arrivalLane="A3top0_0" arrivalPos="286.40" arrivalSpeed="15.92" duration="66.00" routeLength="858.56" waitingTime="1.00" waitingCount="1" stopTime="0.00" timeLoss="13.90" rerouteNo="0" devices="tripinfo_105" vType="DEFAULT_VEHTYPE" speedFactor="1.21" vaporized=""/>
    <tripinfo id="3" depart="7.00" departLane="bottom0A0_0" departPos="5.10" departSpeed="0.00" departDelay="0.00" arrival="520.00" arrivalLane="A3left3_0" arrivalPos="286.40" arrivalSpeed="12.67" duration="513.00" routeLength="1498.06" waitingTime="384.00" waitingCount="2" stopTime="0.00" timeLoss="404.01" rerouteNo="0" devices="tripinfo_3" vType="DEFAULT_VEHTYPE" speedFactor="1.00" vaporized=""/>
    <tripinfo id="101" depart="432.00" departLane="left3A3_0" departPos="5.10" departSpeed="0.00" departDelay="0.00" arrival="520.00" arrivalLane="A2left2_0" arrivalPos="286.40" arrivalSpeed="12.00" duration="88.00" routeLength="858.56" waitingTime="1.00" waitingCount="1" stopTime="0.00" timeLoss="19.30" rerouteNo="0" devices="tripinfo_101" vType="DEFAULT_VEHTYPE" speedFactor="0.92" vaporized=""/>
    <tripinfo id="77" depart="324.00" departLane="top1B3_0" departPos="5.10" departSpeed="0.00" departDelay="0.00" arrival="557.00" arrivalLane="A2left2_0" arrivalPos="286.40" arrivalSpeed="15.92" duration="233.00" routeLength="1179.77" waitingTime="142.00" waitingCount="1" stopTime="0.00" timeLoss="159.02" rerouteNo="0" devices="tripinfo_77" vType="DEFAULT_VEHTYPE" speedFactor="1.17" vaporized=""/>
    <tripinfo id="7" depart="37.00" departLane="bottom0A0_0" departPos="5.10" departSpeed="0.00" departDelay="0.00" arrival="562.00" arrivalLane="D0right0_0" arrivalPos="286.40" arrivalSpeed="11.42" duration="525.00" routeLength="1479.94" waitingTime="375.00" waitingCount="4" stopTime="0.00" timeLoss="406.46" rerouteNo="0" devices="tripinfo_7" vType="DEFAULT_VEHTYPE" speedFactor="0.91" vaporized=""/>
    <tripinfo id="33" depart="125.00" departLane="top2C3_0" departPos="5.10" departSpeed="0.00" departDelay="0.00" arrival="562.00" arrivalLane="A2left2_0" arrivalPos="286.40" arrivalSpeed="12.80" duration="437.00" routeLength="1479.94" waitingTime="302.00" waitingCount="3" stopTime="0.00" timeLoss="328.99" rerouteNo="0" devices="tripinfo_33" vType="DEFAULT_VEHTYPE" speedFactor="1.00" vaporized=""/>
    <tripinfo id="74" depart="311.00" departLane="bottom1B0_0" departPos="5.10" departSpeed="0.00" departDelay="0.00" arrival="569.00" arrivalLane="B0bottom1_0" arrivalPos="286.40" arrivalSpeed="13.87" duration="258.00" routeLength="1748.75" waitingTime="104.00" waitingCount="3" stopTime="0.00" timeLoss="131.01" rerouteNo="0" devices="tripinfo_74" vType="DEFAULT_VEHTYPE" speedFactor="1.01" vaporized=""/>
    <tripinfo id="5" depart="23.00" departLane="right0D0_0" departPos="5.10" departSpeed="0.00" departDelay="0.00" arrival="570.00" arrivalLane="B0bottom1_1" arrivalPos="286.40" arrivalSpeed="13.64" duration="547.00" routeLength="1197.89" waitingTime="437.00" waitingCount="3" stopTime="0.00" timeLoss="465.48" rerouteNo="0" devices="tripinfo_5" vType="DEFAULT_VEHTYPE" speedFactor="1.07" vaporized=""/>
    <tripinfo id="44" depart="177.00" departLane="bottom1B0_0" departPos="5.10" departSpeed="0.00" departDelay="0.00" arrival="571.00" arrivalLane="D0right0_0" arrivalPos="286.40" arrivalSpeed="9.75" duration="394.00" routeLength="1179.77" waitingTime="253.00" waitingCount="2" stopTime="0.00" timeLoss="273.14" rerouteNo="0" devices="tripinfo_44" vType="DEFAULT_VEHTYPE" speedFactor="0.71" vaporized=""/>
    <tripinfo id="17" depart="63.00" departLane="top1B3_0" departPos="5.10" departSpeed="0.00" departDelay="0.00" arrival="581.00" arrivalLane="C3top2_0" arrivalPos="286.40" arrivalSpeed="12.59" duration="518.00" routeLength="894.86" waitingTime="430.00" waitingCount="2" stopTime="0.00" timeLoss="448.44" rerouteNo="0" devices="tripinfo_17" vType="DEFAULT_VEHTYPE" speedFactor="0.95" vaporized=""/>
    <tripinfo id="19" depart="72.00" departLane="left0A0_0" departPos="5.10" departSpeed="0.00" departDelay="0.00" arrival="611.00" arrivalLane="A1left1_0" arrivalPos="286.40" arrivalSpeed="12.44" duration="539.00" routeLength="894.86" waitingTime="455.00" waitingCount="1" stopTime="0.00" timeLoss="466.73" rerouteNo="0" devices="tripinfo_19" vType="DEFAULT_VEHTYPE" speedFactor="0.91" vaporized=""/>
    <tripinfo id="46" depart="189.00" departLane="left0A0_0" departPos="5.10" departSpeed="0.00" departDelay="0.00" arrival="613.00" arrivalLane="A1left1_0" arrivalPos="286.40" arrivalSpeed="11.73" duration="424.00" routeLength="894.86" waitingTime="342.00" waitingCount="1" stopTime="0.00" timeLoss="353.46" rerouteNo="0" devices="tripinfo_46" vType="DEFAULT_VEHTYPE" speedFactor="0.93" vaporized=""/>
    <tripinfo id="123" depart="534.00" departLane="left2A2_0" departPos="5.10" departSpeed="0.00" departDelay="0.00" arrival="615.00" arrivalLane="A1left1_0" arrivalPos="286.40" arrivalSpeed="13.21" duration="81.00" routeLength="858.56" waitingTime="4.00" waitingCount="3" stopTime="0.00" timeLoss="18.82" rerouteNo="0" devices="tripinfo_123" vType="DEFAULT_VEHTYPE" speedFactor="1.02" vaporized=""/>
    <tripinfo id="0" depart="3.00" departLane="bottom0A0_0" departPos="5.10" departSpeed="0.00" departDelay="0.00" arrival="618.00" arrivalLane="A1left1_0" arrivalPos="286.40" arrivalSpeed="12.46" duration="615.00" routeLength="897.72" waitingTime="524.00" waitingCount="2" stopTime="0.00" timeLoss="548.14" rerouteNo="0" devices="tripinfo_0" vType="DEFAULT_VEHTYPE" speedFactor="0.98" vaporized=""/>
    <tripinfo id="124" depart="537.00" departLane="bottom2C0_0" departPos="5.10" departSpeed="0.00" departDelay="0.00" arrival="620.00" arrivalLane="D0bottom3_0" arrivalPos="286.40" arrivalSpeed="12.24" duration="83.00" routeLength="858.56" waitingTime="1.00" waitingCount="1" stopTime="0.00" timeLoss="12.19" rerouteNo="0" devices="tripinfo_124" vType="DEFAULT_VEHTYPE" speedFactor="0.90" vaporized=""/>
    <tripinfo id="107" depart="462.00" departLane="left3A3_0" departPos="5.10" departSpeed="0.00" departDelay="0.00" arrival="659.00" arrivalLane="A3top0_0" arrivalPos="286.40" arrivalSpeed="13.59" duration="197.00" routeLength="597.55" waitingTime="142.00" waitingCount="1" stopTime="0.00" timeLoss="152.84" rerouteNo="0" devices="tripinfo_107" vType="DEFAULT_VEHTYPE" speedFactor="0.99" vaporized=""/>
    <tripinfo id="141" depart="575.00" departLane="top0A3_0" departPos="5.10" departSpeed="0.00" departDelay="0.00" arrival="700.00" arrivalLane="A0left0_0" arrivalPos="286.40" arrivalSpeed="12.67" duration="125.00" routeLength="1477.24" waitingTime="1.00" waitingCount="1" stopTime="0.00" timeLoss="14.66" rerouteNo="0" devices="tripinfo_141" vType="DEFAULT_VEHTYPE" speedFactor="0.98" vaporized=""/>
    <tripinfo id="22" depart="87.00" departLane="right0D0_0" departPos="5.10" departSpeed="0.00" departDelay="0.00" arrival="703.00" arrivalLane="D2right2_0" arrivalPos="286.40" arrivalSpeed="13.99" duration="616.00" routeLength="1161.43" waitingTime="517.00" waitingCount="1" stopTime="0.00" timeLoss="534.35" rerouteNo="0" devices="tripinfo_22" vType="DEFAULT_VEHTYPE" speedFactor="1.05" vaporized=""/>
    <tripinfo id="61" depart="268.00" departLane="top0A3_0" departPos="5.10" departSpeed="0.00" departDelay="1.00" arrival="706.00" arrivalLane="B0bottom1_0" arrivalPos="286.40" arrivalSpeed="15.53" duration="438.00" routeLength="1782.59" waitingTime="281.00" waitingCount="4" stopTime="0.00" timeLoss="329.83" rerouteNo="0" devices="tripinfo_61" vType="DEFAULT_VEHTYPE" speedFactor="1.20" vaporized=""/>
    <tripinfo id="162" depart="674.00" departLane="right3D3_0" departPos="5.10" departSpeed="0.00" departDelay="0.00" arrival="724.00" arrivalLane="D3top3_0" arrivalPos="286.40" arrivalSpeed="12.66" duration="50.00" routeLength="576.73" waitingTime="0.00" waitingCount="0" stopTime="0.00" timeLoss="6.07" rerouteNo="0" devices="tripinfo_162" vType="DEFAULT_VEHTYPE" speedFactor="0.96" vaporized=""/>
    <tripinfo id="56" depart="230.00" departLane="right2D2_0" departPos="5.10" departSpeed="0.00" departDelay="0.00" arrival="730.00" arrivalLane="D1right1_0" arrivalPos="286.40" arrivalSpeed="13.52" duration="500.00" routeLength="894.86" waitingTime="425.00" waitingCount="1" stopTime="0.00" timeLoss="437.84" rerouteNo="0" devices="tripinfo_56" vType="DEFAULT_VEHTYPE" speedFactor="1.05" vaporized=""/>
    <tripinfo id="43" depart="173.00" departLane="top2C3_0" departPos="5.10" departSpeed="0.00" departDelay="0.00" arrival="774.00" arrivalLane="D2right2_0" arrivalPos="286.40" arrivalSpeed="11.20" duration="601.00" routeLength="1195.18" waitingTime="478.00" waitingCount="2" stopTime="0.00" timeLoss="497.65" rerouteNo="0" devices="tripinfo_43" vType="DEFAULT_VEHTYPE" speedFactor="0.84" vaporized=""/>
    <tripinfo id="48" depart="192.00" departLane="bottom2C0_0" departPos="5.10" departSpeed="0.00" departDelay="0.00" arrival="774.00" arrivalLane="D2right2_1" arrivalPos="286.40" arrivalSpeed="11.82" duration="582.00" routeLength="1479.94" waitingTime="442.00" waitingCount="2" stopTime="0.00" timeLoss="463.90" rerouteNo="0" devices="tripinfo_48" vType="DEFAULT_VEHTYPE" speedFactor="0.91" vaporized=""/>
    <tripinfo id="95" depart="404.00" departLane="right0D0_0" departPos="5.10" departSpeed="0.00" departDelay="0.00" arrival="778.00" arrivalLane="C0bottom2_0" arrivalPos="286.40" arrivalSpeed="14.55" duration="374.00" routeLength="897.72" waitingTime="295.00" waitingCount="2" stopTime="0.00" timeLoss="312.44" rerouteNo="0" devices="tripinfo_95" vType="DEFAULT_VEHTYPE" speedFactor="1.07" vaporized=""/>
    <tripinfo id="69" depart="294.00" departLane="right1D1_0" departPos="5.10" departSpeed="0.00" departDelay="0.00" arrival="779.00" arrivalLane="D3top3_0" arrivalPos="286.40" arrivalSpeed="12.97" duration="485.00" routeLength="1179.77" waitingTime="378.00" waitingCount="3" stopTime="0.00" timeLoss="398.43" rerouteNo="0" devices="tripinfo_69" vType="DEFAULT_VEHTYPE" speedFactor="0.99" vaporized=""/>
    <tripinfo id="119" depart="489.00" departLane="bottom2C0_0" departPos="5.10" departSpeed="0.00" departDelay="0.00" arrival="780.00" arrivalLane="D0right0_0" arrivalPos="286.40" arrivalSpeed="13.01" duration="291.00" routeLength="879.60" waitingTime="208.00" waitingCount="2" stopTime="0.00" timeLoss="222.70" rerouteNo="0" devices="tripinfo_119" vType="DEFAULT_VEHTYPE" speedFactor="0.94" vaporized=""/>
    <tripinfo id="180" depart="743.00" departLane="right3D3_0" departPos="5.10" departSpeed="0.00" departDelay="0.00" arrival="799.00" arrivalLane="D3top3_0" arrivalPos="286.40" arrivalSpeed="13.29" duration="56.00" routeLength="576.73" waitingTime="1.00" waitingCount="1" stopTime="0.00" timeLoss="12.42" rerouteNo="0" devices="tripinfo_180" vType="DEFAULT_VEHTYPE" speedFactor="0.98" vaporized=""/>
    <tripinfo id="82" depart="351.00" departLane="right1D1_0" departPos="5.10" departSpeed="0.00" departDelay="0.00" arrival="829.00" arrivalLane="A1left1_1" arrivalPos="286.40" arrivalSpeed="14.83" duration="478.00" routeLength="1495.58" waitingTime="328.00" waitingCount="5" stopTime="0.00" timeLoss="380.38" rerouteNo="0" devices="tripinfo_82" vType="DEFAULT_VEHTYPE" speedFactor="1.11" vaporized=""/>
    <tripinfo id="67" depart="288.00" departLane="top1B3_0" departPos="5.10" departSpeed="0.00" departDelay="0.00" arrival="830.00" arrivalLane="A1left1_0" arrivalPos="286.40" arrivalSpeed="12.24" duration="542.00" routeLength="1479.94" waitingTime="403.00" waitingCount="3" stopTime="0.00" timeLoss="428.84" rerouteNo="0" devices="tripinfo_67" vType="DEFAULT_VEHTYPE" speedFactor="0.95" vaporized=""/>
    <tripinfo id="4" depart="17.00" departLane="right0D0_0" departPos="5.10" departSpeed="0.00" departDelay="0.00" arrival="869.00" arrivalLane="A0bottom0_0" arrivalPos="286.40" arrivalSpeed="13.75" duration="852.00" routeLength="1498.06" waitingTime="713.00" waitingCount="4" stopTime="0.00" timeLoss="746.20" rerouteNo="0" devices="tripinfo_4" vType="DEFAULT_VEHTYPE" speedFactor="1.03" vaporized=""/>
    <tripinfo id="205" depart="819.00" departLane="top2C3_0" departPos="5.10" departSpeed="0.00" departDelay="0.00" arrival="885.00" arrivalLane="B3top1_0" arrivalPos="286.40" arrivalSpeed="16.52" duration="66.00" routeLength="858.56" waitingTime="1.00" waitingCount="1" stopTime="0.00" timeLoss="16.02" rerouteNo="0" devices="tripinfo_205" vType="DEFAULT_VEHTYPE" speedFactor="1.28" vaporized=""/>
    <tripinfo id="78" depart="331.00" departLane="bottom0A0_0" departPos="5.10" departSpeed="0.00" departDelay="0.00" arrival="887.00" arrivalLane="A2left2_0" arrivalPos="286.40" arrivalSpeed="15.01" duration="556.00" routeLength="1197.89" waitingTime="460.00" waitingCount="2" stopTime="0.00" timeLoss="479.40" rerouteNo="0" devices="tripinfo_78" vType="DEFAULT_VEHTYPE" speedFactor="1.14" vaporized=""/>
    <tripinfo id="112" depart="474.00" departLane="bottom0A0_0" departPos="5.10" departSpeed="0.00" departDelay="0.00" arrival="893.00" arrivalLane="A2left2_0" arrivalPos="286.40" arrivalSpeed="12.64" duration="419.00" routeLength="1197.89" waitingTime="309.00" waitingCount="2" stopTime="0.00" timeLoss="327.40" rerouteNo="0" devices="tripinfo_112" vType="DEFAULT_VEHTYPE" speedFactor="0.96" vaporized=""/>
    <tripinfo id="139" depart="575.00" departLane="left2A2_0" departPos="5.10" departSpeed="0.00" departDelay="0.00" arrival="893.00" arrivalLane="A2left2_1" arrivalPos="286.40" arrivalSpeed="13.76" duration="318.00" routeLength="1748.75" waitingTime="155.00" waitingCount="5" stopTime="0.00" timeLoss="194.55" rerouteNo="0" devices="tripinfo_139" vType="DEFAULT_VEHTYPE" speedFactor="1.04" vaporized=""/>
    <tripinfo id="203" depart="812.00" departLane="right0D0_0" departPos="5.10" departSpeed="0.00" departDelay="0.00" arrival="900.00" arrivalLane="D1right1_0" arrivalPos="286.40" arrivalSpeed="11.80" duration="88.00" routeLength="858.56" waitingTime="2.00" waitingCount="2" stopTime="0.00" timeLoss="19.08" rerouteNo="0" devices="tripinfo_203" vType="DEFAULT_VEHTYPE" speedFactor="0.92" vaporized=""/>
    <tripinfo id="65" depart="276.00" departLane="right0D0_0" departPos="5.10" departSpeed="0.00" departDelay="0.00" arrival="918.00" arrivalLane="A0left0_0" arrivalPos="286.40" arrivalSpeed="13.66" duration="642.00" routeLength="1495.58" waitingTime="513.00" waitingCount="3" stopTime="0.00" timeLoss="539.49" rerouteNo="0" devices="tripinfo_65" vType="DEFAULT_VEHTYPE" speedFactor="1.05" vaporized=""/>
    <tripinfo id="164" depart="678.00" departLane="bottom2C0_0" departPos="5.10" departSpeed="0.00" departDelay="0.00" arrival="920.00" arrivalLane="D3right3_0" arrivalPos="286.40" arrivalSpeed="12.98" duration="242.00" routeLength="1780.11" waitingTime="90.00" waitingCount="1" stopTime="0.00" timeLoss="104.84" rerouteNo="0" devices="tripinfo_164" vType="DEFAULT_VEHTYPE" speedFactor="0.95" vaporized=""/>
    <tripinfo id="183" depart="757.00" departLane="left0A0_0" departPos="5.10" departSpeed="0.00" departDelay="0.00" arrival="928.00" arrivalLane="D0right0_0" arrivalPos="286.40" arrivalSpeed="14.23" duration="171.00" routeLength="1495.58" waitingTime="58.00" waitingCount="1" stopTime="0.00" timeLoss="73.56" rerouteNo="0" devices="tripinfo_183" vType="DEFAULT_VEHTYPE" speedFactor="1.11" vaporized=""/>
    <tripinfo id="102" depart="435.00" departLane="bottom0A0_0" departPos="5.10" departSpeed="0.00" departDelay="0.00" arrival="931.00" arrivalLane="A3top0_0" arrivalPos="286.40" arrivalSpeed="12.47" duration="496.00" routeLength="1495.58" waitingTime="361.00" waitingCount="2" stopTime="0.00" timeLoss="379.30" rerouteNo="0" devices="tripinfo_102" vType="DEFAULT_VEHTYPE" speedFactor="0.93" vaporized=""/>
    <tripinfo id="151" depart="617.00" departLane="left2A2_0" departPos="5.10" departSpeed="0.00" departDelay="0.00" arrival="933.00" arrivalLane="A3top0_0" arrivalPos="286.40" arrivalSpeed="12.85" duration="316.00" routeLength="895.01" waitingTime="228.00" waitingCount="2" stopTime="0.00" timeLoss="245.47" rerouteNo="0" devices="tripinfo_151" vType="DEFAULT_VEHTYPE" speedFactor="0.93" vaporized=""/>
    <tripinfo id="168" depart="693.00" departLane="top0A3_0" departPos="5.10" departSpeed="0.00" departDelay="0.00" arrival="934.00" arrivalLane="A3top0_0" arrivalPos="286.40" arrivalSpeed="13.20" duration="241.00" routeLength="1745.91" waitingTime="77.00" waitingCount="4" stopTime="0.00" timeLoss="108.86" rerouteNo="0" devices="tripinfo_168" vType="DEFAULT_VEHTYPE" speedFactor="0.97" vaporized=""/>
    <tripinfo id="114" depart="480.00" departLane="bottom2C0_0" departPos="5.10" departSpeed="0.00" departDelay="0.00" arrival="935.00" arrivalLane="A3top0_1" arrivalPos="286.40" arrivalSpeed="14.15" duration="455.00" routeLength="2080.05" waitingTime="268.00" waitingCount="5" stopTime="0.00" timeLoss="306.79" rerouteNo="0" devices="tripinfo_114" vType="DEFAULT_VEHTYPE" speedFactor="1.02" vaporized=""/>
    <tripinfo id="34" depart="128.00" departLane="right0D0_0" departPos="5.10" departSpeed="0.00" departDelay="0.00" arrival="938.00" arrivalLane="B3top1_0" arrivalPos="286.40" arrivalSpeed="14.42" duration="810.00" routeLength="2080.28" waitingTime="625.00" waitingCount="5" stopTime="0.00" timeLoss="665.16" rerouteNo="0" devices="tripinfo_34" vType="DEFAULT_VEHTYPE" speedFactor="1.04" vaporized=""/>
    <tripinfo id="79" depart="332.00" departLane="right1D1_0" departPos="5.10" departSpeed="0.00" departDelay="0.00" arrival="939.00" arrivalLane="A3top0_0" arrivalPos="286.40" arrivalSpeed="12.10" duration="607.00" routeLength="2080.28" waitingTime="396.00" waitingCount="6" stopTime="0.00" timeLoss="444.26" rerouteNo="0" devices="tripinfo_79" vType="DEFAULT_VEHTYPE" speedFactor="0.93" vaporized=""/>
    <tripinfo id="60" depart="265.00" departLane="top0A3_0" departPos="5.10" departSpeed="0.00" departDelay="0.00" arrival="943.00" arrivalLane="C0bottom2_0" arrivalPos="286.40" arrivalSpeed="10.81" duration="678.00" routeLength="2080.05" waitingTime="462.00" waitingCount="3" stopTime="0.00" timeLoss="491.33" rerouteNo="0" devices="tripinfo_60" vType="DEFAULT_VEHTYPE" speedFactor="0.81" vaporized=""/>