<?xml version="1.0" encoding="UTF-8"?>

<!-- generated on 2023-08-30 13:53:01 by Eclipse SUMO libsumo Version 1.18.0
<configuration xmlns:xsi="http://www.w3.org/2001/XMLSchema-instance" xsi:noNamespaceSchemaLocation="http://sumo.dlr.de/xsd/libsumoConfiguration.xsd">

    <input>
        <net-file value="/home/stefan/RESCO/./environments/grid4x4/grid4x4.net.xml"/>
        <route-files value="/home/stefan/RESCO/./environments/grid4x4/grid4x4_88.rou.xml"/>
    </input>

    <output>
        <tripinfo-output value="/home/stefan/results/RAINBOW-tr0-grid4x4-0-drq_norm-wait_norm/tripinfo_88.xml"/>
        <tripinfo-output.write-unfinished value="true"/>
    </output>

    <processing>
        <time-to-teleport value="-1"/>
    </processing>

    <report>
        <no-warnings value="True"/>
        <no-step-log value="True"/>
    </report>

    <random_number>
        <random value="true"/>
    </random_number>

</configuration>
-->

<tripinfos xmlns:xsi="http://www.w3.org/2001/XMLSchema-instance" xsi:noNamespaceSchemaLocation="http://sumo.dlr.de/xsd/tripinfo_file.xsd">
    <tripinfo id="5" depart="38.00" departLane="right3D3_0" departPos="5.10" departSpeed="0.00" departDelay="0.00" arrival="111.00" arrivalLane="D2right2_0" arrivalPos="286.40" arrivalSpeed="13.29" duration="73.00" routeLength="894.86" waitingTime="0.00" waitingCount="0" stopTime="0.00" timeLoss="6.33" rerouteNo="0" devices="tripinfo_5" vType="DEFAULT_VEHTYPE" speedFactor="0.98" vaporized=""/>
    <tripinfo id="21" depart="123.00" departLane="right3D3_0" departPos="5.10" departSpeed="0.00" departDelay="0.00" arrival="196.00" arrivalLane="D2right2_0" arrivalPos="286.40" arrivalSpeed="13.38" duration="73.00" routeLength="894.86" waitingTime="0.00" waitingCount="0" stopTime="0.00" timeLoss="7.03" rerouteNo="0" devices="tripinfo_21" vType="DEFAULT_VEHTYPE" speedFactor="1.00" vaporized=""/>
    <tripinfo id="30" depart="167.00" departLane="top1B3_0" departPos="5.10" departSpeed="0.00" departDelay="0.00" arrival="242.00" arrivalLane="A3top0_0" arrivalPos="286.40" arrivalSpeed="13.37" duration="75.00" routeLength="858.56" waitingTime="1.00" waitingCount="1" stopTime="0.00" timeLoss="15.03" rerouteNo="0" devices="tripinfo_30" vType="DEFAULT_VEHTYPE" speedFactor="1.06" vaporized=""/>
    <tripinfo id="60" depart="327.00" departLane="bottom3D0_0" departPos="5.10" departSpeed="0.00" departDelay="0.00" arrival="382.00" arrivalLane="D0right0_0" arrivalPos="286.40" arrivalSpeed="12.97" duration="55.00" routeLength="576.73" waitingTime="1.00" waitingCount="1" stopTime="0.00" timeLoss="10.57" rerouteNo="0" devices="tripinfo_60" vType="DEFAULT_VEHTYPE" speedFactor="0.95" vaporized=""/>
    <tripinfo id="71" depart="391.00" departLane="right2D2_0" departPos="5.10" departSpeed="0.00" departDelay="0.00" arrival="473.00" arrivalLane="D3right3_0" arrivalPos="286.40" arrivalSpeed="12.88" duration="82.00" routeLength="858.56" waitingTime="2.00" waitingCount="2" stopTime="0.00" timeLoss="17.51" rerouteNo="0" devices="tripinfo_71" vType="DEFAULT_VEHTYPE" speedFactor="0.98" vaporized=""/>
    <tripinfo id="72" depart="396.00" departLane="right1D1_0" departPos="5.10" departSpeed="0.00" departDelay="0.00" arrival="481.00" arrivalLane="D2right2_0" arrivalPos="286.40" arrivalSpeed="11.99" duration="85.00" routeLength="858.56" waitingTime="2.00" waitingCount="2" stopTime="0.00" timeLoss="18.80" rerouteNo="0" devices="tripinfo_72" vType="DEFAULT_VEHTYPE" speedFactor="0.96" vaporized=""/>
    <tripinfo id="81" depart="437.00" departLane="bottom1B0_0" departPos="5.10" departSpeed="0.00" departDelay="0.00" arrival="518.00" arrivalLane="C0bottom2_0" arrivalPos="286.40" arrivalSpeed="12.67" duration="81.00" routeLength="858.56" waitingTime="1.00" waitingCount="1" stopTime="0.00" timeLoss="14.48" rerouteNo="0" devices="tripinfo_81" vType="DEFAULT_VEHTYPE" speedFactor="0.95" vaporized=""/>
    <tripinfo id="76" depart="417.00" departLane="top0A3_0" departPos="5.10" departSpeed="0.00" departDelay="0.00" arrival="525.00" arrivalLane="A1left1_0" arrivalPos="286.40" arrivalSpeed="12.89" duration="108.00" routeLength="1177.07" waitingTime="1.00" waitingCount="1" stopTime="0.00" timeLoss="19.92" rerouteNo="0" devices="tripinfo_76" vType="DEFAULT_VEHTYPE" speedFactor="0.97" vaporized=""/>
    <tripinfo id="86" depart="445.00" departLane="left2A2_0" departPos="5.10" departSpeed="0.00" departDelay="0.00" arrival="528.00" arrivalLane="A1left1_0" arrivalPos="286.40" arrivalSpeed="14.65" duration="83.00" routeLength="858.56" waitingTime="5.00" waitingCount="3" stopTime="0.00" timeLoss="26.84" rerouteNo="0" devices="tripinfo_86" vType="DEFAULT_VEHTYPE" speedFactor="1.13" vaporized=""/>
    <tripinfo id="92" depart="458.00" departLane="right3D3_0" departPos="5.10" departSpeed="0.00" departDelay="0.00" arrival="538.00" arrivalLane="C3top2_0" arrivalPos="286.40" arrivalSpeed="12.05" duration="80.00" routeLength="876.90" waitingTime="1.00" waitingCount="1" stopTime="0.00" timeLoss="12.71" rerouteNo="0" devices="tripinfo_92" vType="DEFAULT_VEHTYPE" speedFactor="0.95" vaporized=""/>
    <tripinfo id="94" depart="463.00" departLane="left3A3_0" departPos="5.10" departSpeed="0.00" departDelay="0.00" arrival="543.00" arrivalLane="A2left2_0" arrivalPos="286.40" arrivalSpeed="12.99" duration="80.00" routeLength="858.56" waitingTime="1.00" waitingCount="1" stopTime="0.00" timeLoss="12.99" rerouteNo="0" devices="tripinfo_94" vType="DEFAULT_VEHTYPE" speedFactor="0.96" vaporized=""/>
    <tripinfo id="101" depart="481.00" departLane="right2D2_0" departPos="5.10" departSpeed="0.00" departDelay="0.00" arrival="573.00" arrivalLane="D3right3_0" arrivalPos="286.40" arrivalSpeed="10.55" duration="92.00" routeLength="858.56" waitingTime="2.00" waitingCount="2" stopTime="0.00" timeLoss="16.95" rerouteNo="0" devices="tripinfo_101" vType="DEFAULT_VEHTYPE" speedFactor="0.85" vaporized=""/>
    <tripinfo id="127" depart="567.00" departLane="bottom2C0_0" departPos="5.10" departSpeed="0.00" departDelay="0.00" arrival="640.00" arrivalLane="D0right0_0" arrivalPos="286.40" arrivalSpeed="13.36" duration="73.00" routeLength="879.60" waitingTime="0.00" waitingCount="0" stopTime="0.00" timeLoss="7.34" rerouteNo="0" devices="tripinfo_127" vType="DEFAULT_VEHTYPE" speedFactor="0.98" vaporized=""/>
    <tripinfo id="138" depart="599.00" departLane="right3D3_0" departPos="5.10" departSpeed="0.00" departDelay="0.00" arrival="687.00" arrivalLane="D1right1_0" arrivalPos="286.40" arrivalSpeed="15.22" duration="88.00" routeLength="1197.66" waitingTime="0.00" waitingCount="0" stopTime="0.00" timeLoss="7.81" rerouteNo="0" devices="tripinfo_138" vType="DEFAULT_VEHTYPE" speedFactor="1.10" vaporized=""/>
    <tripinfo id="70" depart="390.00" departLane="bottom1B0_0" departPos="5.10" departSpeed="0.00" departDelay="0.00" arrival="753.00" arrivalLane="A0bottom0_0" arrivalPos="286.40" arrivalSpeed="11.21" duration="363.00" routeLength="894.86" waitingTime="276.00" waitingCount="1" stopTime="0.00" timeLoss="287.68" rerouteNo="0" devices="tripinfo_70" vType="DEFAULT_VEHTYPE" speedFactor="0.87" vaporized=""/>
    <tripinfo id="172" depart="731.00" departLane="top0A3_0" departPos="5.10" departSpeed="0.00" departDelay="0.00" arrival="787.00" arrivalLane="A3left3_0" arrivalPos="286.40" arrivalSpeed="11.69" duration="56.00" routeLength="576.73" waitingTime="0.00" waitingCount="0" stopTime="0.00" timeLoss="7.12" rerouteNo="0" devices="tripinfo_172" vType="DEFAULT_VEHTYPE" speedFactor="0.87" vaporized=""/>
    <tripinfo id="173" depart="732.00" departLane="top1B3_0" departPos="5.10" departSpeed="0.00" departDelay="0.00" arrival="807.00" arrivalLane="A3top0_0" arrivalPos="286.40" arrivalSpeed="13.17" duration="75.00" routeLength="858.56" waitingTime="1.00" waitingCount="1" stopTime="0.00" timeLoss="12.44" rerouteNo="0" devices="tripinfo_173" vType="DEFAULT_VEHTYPE" speedFactor="1.01" vaporized=""/>
    <tripinfo id="176" depart="736.00" departLane="left2A2_0" departPos="5.10" departSpeed="0.00" departDelay="0.00" arrival="816.00" arrivalLane="A1left1_0" arrivalPos="286.40" arrivalSpeed="13.78" duration="80.00" routeLength="858.56" waitingTime="2.00" waitingCount="2" stopTime="0.00" timeLoss="19.94" rerouteNo="0" devices="tripinfo_176" vType="DEFAULT_VEHTYPE" speedFactor="1.06" vaporized=""/>
    <tripinfo id="27" depart="153.00" departLane="top1B3_0" departPos="5.10" departSpeed="0.00" departDelay="0.00" arrival="830.00" arrivalLane="B3top1_0" arrivalPos="286.40" arrivalSpeed="12.60" duration="677.00" routeLength="1748.75" waitingTime="522.00" waitingCount="3" stopTime="0.00" timeLoss="548.35" rerouteNo="0" devices="tripinfo_27" vType="DEFAULT_VEHTYPE" speedFactor="1.00" vaporized=""/>
    <tripinfo id="179" depart="746.00" departLane="bottom0A0_0" departPos="5.10" departSpeed="0.00" departDelay="0.00" arrival="830.00" arrivalLane="B0bottom1_0" arrivalPos="286.40" arrivalSpeed="12.77" duration="84.00" routeLength="858.56" waitingTime="2.00" waitingCount="2" stopTime="0.00" timeLoss="17.25" rerouteNo="0" devices="tripinfo_179" vType="DEFAULT_VEHTYPE" speedFactor="0.94" vaporized=""/>
    <tripinfo id="186" depart="771.00" departLane="bottom2C0_0" departPos="5.10" departSpeed="0.00" departDelay="0.00" arrival="852.00" arrivalLane="D0right0_0" arrivalPos="286.40" arrivalSpeed="12.22" duration="81.00" routeLength="879.60" waitingTime="1.00" waitingCount="1" stopTime="0.00" timeLoss="11.93" rerouteNo="0" devices="tripinfo_186" vType="DEFAULT_VEHTYPE" speedFactor="0.93" vaporized=""/>
    <tripinfo id="194" depart="790.00" departLane="top3D3_0" departPos="5.10" departSpeed="0.00" departDelay="0.00" arrival="871.00" arrivalLane="C3top2_0" arrivalPos="286.40" arrivalSpeed="11.91" duration="81.00" routeLength="858.56" waitingTime="1.00" waitingCount="1" stopTime="0.00" timeLoss="14.70" rerouteNo="0" devices="tripinfo_194" vType="DEFAULT_VEHTYPE" speedFactor="0.95" vaporized=""/>
    <tripinfo id="198" depart="804.00" departLane="bottom1B0_0" departPos="5.10" departSpeed="0.00" departDelay="0.00" arrival="872.00" arrivalLane="A0bottom0_0" arrivalPos="286.40" arrivalSpeed="14.05" duration="68.00" routeLength="894.86" waitingTime="0.00" waitingCount="0" stopTime="0.00" timeLoss="6.67" rerouteNo="0" devices="tripinfo_198" vType="DEFAULT_VEHTYPE" speedFactor="1.08" vaporized=""/>
    <tripinfo id="197" depart="802.00" departLane="top0A3_0" departPos="5.10" departSpeed="0.00" departDelay="0.00" arrival="880.00" arrivalLane="A2left2_0" arrivalPos="286.40" arrivalSpeed="12.33" duration="78.00" routeLength="876.90" waitingTime="0.00" waitingCount="0" stopTime="0.00" timeLoss="8.28" rerouteNo="0" devices="tripinfo_197" vType="DEFAULT_VEHTYPE" speedFactor="0.92" vaporized=""/>
    <tripinfo id="202" depart="816.00" departLane="right2D2_0" departPos="5.10" departSpeed="0.00" departDelay="0.00" arrival="901.00" arrivalLane="D3right3_0" arrivalPos="286.40" arrivalSpeed="11.80" duration="85.00" routeLength="858.56" waitingTime="2.00" waitingCount="2" stopTime="0.00" timeLoss="17.61" rerouteNo="0" devices="tripinfo_202" vType="DEFAULT_VEHTYPE" speedFactor="0.94" vaporized=""/>
    <tripinfo id="210" depart="840.00" departLane="top3D3_0" departPos="5.10" departSpeed="0.00" departDelay="0.00" arrival="917.00" arrivalLane="C3top2_0" arrivalPos="286.40" arrivalSpeed="13.62" duration="77.00" routeLength="858.56" waitingTime="1.00" waitingCount="1" stopTime="0.00" timeLoss="14.25" rerouteNo="0" devices="tripinfo_210" vType="DEFAULT_VEHTYPE" speedFactor="1.01" vaporized=""/>
    <tripinfo id="0" depart="7.00" departLane="top0A3_0" departPos="5.10" departSpeed="0.00" departDelay="0.00" arrival="920.00" arrivalLane="A3top0_0" arrivalPos="286.40" arrivalSpeed="12.01" duration="913.00" routeLength="1745.91" waitingTime="745.00" waitingCount="5" stopTime="0.00" timeLoss="779.43" rerouteNo="0" devices="tripinfo_0" vType="DEFAULT_VEHTYPE" speedFactor="0.96" vaporized=""/>
    <tripinfo id="227" depart="888.00" departLane="left3A3_0" departPos="5.10" departSpeed="0.00" departDelay="0.00" arrival="997.00" arrivalLane="A1left1_0" arrivalPos="286.40" arrivalSpeed="12.83" duration="109.00" routeLength="1161.43" waitingTime="2.00" waitingCount="2" stopTime="0.00" timeLoss="18.74" rerouteNo="0" devices="tripinfo_227" vType="DEFAULT_VEHTYPE" speedFactor="0.94" vaporized=""/>
    <tripinfo id="237" depart="929.00" departLane="bottom1B0_0" departPos="5.10" departSpeed="0.00" departDelay="0.00" arrival="1031.00" arrivalLane="D0right0_0" arrivalPos="286.40" arrivalSpeed="11.66" duration="102.00" routeLength="1179.77" waitingTime="0.00" waitingCount="0" stopTime="0.00" timeLoss="8.33" rerouteNo="0" devices="tripinfo_237" vType="DEFAULT_VEHTYPE" speedFactor="0.92" vaporized=""/>
    <tripinfo id="251" depart="958.00" departLane="right3D3_0" departPos="5.10" departSpeed="0.00" departDelay="0.00" arrival="1052.00" arrivalLane="B3top1_0" arrivalPos="286.40" arrivalSpeed="14.52" duration="94.00" routeLength="1177.07" waitingTime="1.00" waitingCount="1" stopTime="0.00" timeLoss="12.85" rerouteNo="0" devices="tripinfo_251" vType="DEFAULT_VEHTYPE" speedFactor="1.06" vaporized=""/>
    <tripinfo id="246" depart="951.00" departLane="left2A2_0" departPos="5.10" departSpeed="0.00" departDelay="0.00" arrival="1060.00" arrivalLane="A1left1_0" arrivalPos="286.40" arrivalSpeed="8.72" duration="109.00" routeLength="858.56" waitingTime="2.00" waitingCount="2" stopTime="0.00" timeLoss="18.99" rerouteNo="0" devices="tripinfo_246" vType="DEFAULT_VEHTYPE" speedFactor="0.70" vaporized=""/>
    <tripinfo id="247" depart="951.00" departLane="top3D3_0" departPos="5.10" departSpeed="0.00" departDelay="0.00" arrival="1061.00" arrivalLane="B3top1_0" arrivalPos="286.40" arrivalSpeed="13.12" duration="110.00" routeLength="1161.43" waitingTime="5.00" waitingCount="2" stopTime="0.00" timeLoss="25.26" rerouteNo="0" devices="tripinfo_247" vType="DEFAULT_VEHTYPE" speedFactor="1.01" vaporized=""/>
    <tripinfo id="254" depart="968.00" departLane="top3D3_0" departPos="5.10" departSpeed="0.00" departDelay="0.00" arrival="1078.00" arrivalLane="B3top1_0" arrivalPos="286.40" arrivalSpeed="12.58" duration="110.00" routeLength="1161.43" waitingTime="2.00" waitingCount="2" stopTime="0.00" timeLoss="18.11" rerouteNo="0" devices="tripinfo_254" vType="DEFAULT_VEHTYPE" speedFactor="0.93" vaporized=""/>
    <tripinfo id="272" depart="1015.00" departLane="bottom1B0_0" departPos="5.10" departSpeed="0.00" departDelay="0.00" arrival="1104.00" arrivalLane="D0right0_0" arrivalPos="286.40" arrivalSpeed="13.55" duration="89.00" routeLength="1179.77" waitingTime="0.00" waitingCount="0" stopTime="0.00" timeLoss="8.00" rerouteNo="0" devices="tripinfo_272" vType="DEFAULT_VEHTYPE" speedFactor="1.06" vaporized=""/>
    <tripinfo id="276" depart="1031.00" departLane="top1B3_0" departPos="5.10" departSpeed="0.00" departDelay="0.00" arrival="1105.00" arrivalLane="A3top0_0" arrivalPos="286.40" arrivalSpeed="14.88" duration="74.00" routeLength="858.56" waitingTime="1.00" waitingCount="1" stopTime="0.00" timeLoss="14.85" rerouteNo="0" devices="tripinfo_276" vType="DEFAULT_VEHTYPE" speedFactor="1.08" vaporized=""/>
    <tripinfo id="280" depart="1041.00" departLane="bottom3D0_0" departPos="5.10" departSpeed="0.00" departDelay="0.00" arrival="1109.00" arrivalLane="D0right0_0" arrivalPos="286.40" arrivalSpeed="14.25" duration="68.00" routeLength="576.73" waitingTime="17.00" waitingCount="1" stopTime="0.00" timeLoss="26.66" rerouteNo="0" devices="tripinfo_280" vType="DEFAULT_VEHTYPE" speedFactor="1.04" vaporized=""/>
    <tripinfo id="48" depart="276.00" departLane="bottom3D0_0" departPos="5.10" departSpeed="0.00" departDelay="0.00" arrival="1140.00" arrivalLane="D0bottom3_0" arrivalPos="286.40" arrivalSpeed="12.25" duration="864.00" routeLength="1745.91" waitingTime="698.00" waitingCount="4" stopTime="0.00" timeLoss="728.62" rerouteNo="0" devices="tripinfo_48" vType="DEFAULT_VEHTYPE" speedFactor="0.95" vaporized=""/>
    <tripinfo id="295" depart="1073.00" departLane="bottom1B0_0" departPos="5.10" departSpeed="0.00" departDelay="0.00" arrival="1142.00" arrivalLane="C0bottom2_0" arrivalPos="286.40" arrivalSpeed="14.15" duration="69.00" routeLength="858.56" waitingTime="0.00" waitingCount="0" stopTime="0.00" timeLoss="9.28" rerouteNo="0" devices="tripinfo_295" vType="DEFAULT_VEHTYPE" speedFactor="1.07" vaporized=""/>
    <tripinfo id="137" depart="595.00" departLane="bottom3D0_0" departPos="5.10" departSpeed="0.00" departDelay="0.00" arrival="1145.00" arrivalLane="D0bottom3_0" arrivalPos="286.40" arrivalSpeed="11.91" duration="550.00" routeLength="1745.91" waitingTime="368.00" waitingCount="4" stopTime="0.00" timeLoss="400.67" rerouteNo="0" devices="tripinfo_137" vType="DEFAULT_VEHTYPE" speedFactor="0.86" vaporized=""/>
    <tripinfo id="292" depart="1069.00" departLane="left1A1_0" departPos="5.10" departSpeed="0.00" departDelay="0.00" arrival="1148.00" arrivalLane="A0left0_0" arrivalPos="286.40" arrivalSpeed="12.45" duration="79.00" routeLength="858.56" waitingTime="1.00" waitingCount="1" stopTime="0.00" timeLoss="14.82" rerouteNo="0" devices="tripinfo_292" vType="DEFAULT_VEHTYPE" speedFactor="0.99" vaporized=""/>
    <tripinfo id="289" depart="1064.00" departLane="right1D1_0" departPos="5.10" departSpeed="0.00" departDelay="0.00" arrival="1158.00" arrivalLane="D0bottom3_1" arrivalPos="286.40" arrivalSpeed="16.28" duration="94.00" routeLength="895.01" waitingTime="18.00" waitingCount="1" stopTime="0.00" timeLoss="38.96" rerouteNo="0" devices="tripinfo_289" vType="DEFAULT_VEHTYPE" speedFactor="1.18" vaporized=""/>
    <tripinfo id="58" depart="314.00" departLane="right1D1_0" departPos="5.10" departSpeed="0.00" departDelay="0.00" arrival="1162.00" arrivalLane="D0bottom3_0" arrivalPos="286.40" arrivalSpeed="10.11" duration="848.00" routeLength="895.01" waitingTime="756.00" waitingCount="1" stopTime="0.00" timeLoss="768.06" rerouteNo="0" devices="tripinfo_58" vType="DEFAULT_VEHTYPE" speedFactor="0.82" vaporized=""/>
    <tripinfo id="156" depart="677.00" departLane="right1D1_0" departPos="5.10" departSpeed="0.00" departDelay="0.00" arrival="1163.00" arrivalLane="D0bottom3_1" arrivalPos="286.40" arrivalSpeed="11.63" duration="486.00" routeLength="895.01" waitingTime="400.00" waitingCount="1" stopTime="0.00" timeLoss="411.97" rerouteNo="0" devices="tripinfo_156" vType="DEFAULT_VEHTYPE" speedFactor="0.88" vaporized=""/>
    <tripinfo id="69" depart="382.00" departLane="bottom3D0_0" departPos="5.10" departSpeed="0.00" departDelay="0.00" arrival="1192.00" arrivalLane="D1right1_0" arrivalPos="286.40" arrivalSpeed="8.91" duration="810.00" routeLength="876.90" waitingTime="699.00" waitingCount="2" stopTime="0.00" timeLoss="717.54" rerouteNo="0" devices="tripinfo_69" vType="DEFAULT_VEHTYPE" speedFactor="0.70" vaporized=""/>
    <tripinfo id="315" depart="1126.00" departLane="top2C3_0" departPos="5.10" departSpeed="0.00" departDelay="0.00" arrival="1208.00" arrivalLane="B3top1_0" arrivalPos="286.40" arrivalSpeed="12.08" duration="82.00" routeLength="858.56" waitingTime="2.00" waitingCount="2" stopTime="0.00" timeLoss="15.58" rerouteNo="0" devices="tripinfo_315" vType="DEFAULT_VEHTYPE" speedFactor="0.96" vaporized=""/>
    <tripinfo id="320" depart="1142.00" departLane="right1D1_0" departPos="5.10" departSpeed="0.00" departDelay="0.00" arrival="1218.00" arrivalLane="D2right2_0" arrivalPos="286.40" arrivalSpeed="14.60" duration="76.00" routeLength="858.56" waitingTime="2.00" waitingCount="2" stopTime="0.00" timeLoss="20.15" rerouteNo="0" devices="tripinfo_320" vType="DEFAULT_VEHTYPE" speedFactor="1.14" vaporized=""/>
    <tripinfo id="316" depart="1133.00" departLane="bottom2C0_0" departPos="5.10" departSpeed="0.00" departDelay="0.00" arrival="1226.00" arrivalLane="D0bottom3_0" arrivalPos="286.40" arrivalSpeed="11.24" duration="93.00" routeLength="858.56" waitingTime="2.00" waitingCount="2" stopTime="0.00" timeLoss="17.26" rerouteNo="0" devices="tripinfo_316" vType="DEFAULT_VEHTYPE" speedFactor="0.83" vaporized=""/>
    <tripinfo id="330" depart="1165.00" departLane="bottom1B0_0" departPos="5.10" departSpeed="0.00" departDelay="0.00" arrival="1233.00" arrivalLane="C0bottom2_0" arrivalPos="286.40" arrivalSpeed="14.42" duration="68.00" routeLength="858.56" waitingTime="0.00" waitingCount="0" stopTime="0.00" timeLoss="9.14" rerouteNo="0" devices="tripinfo_330" vType="DEFAULT_VEHTYPE" speedFactor="1.10" vaporized=""/>
    <tripinfo id="324" depart="1154.00" departLane="right3D3_0" departPos="5.10" departSpeed="0.00" departDelay="0.00" arrival="1246.00" arrivalLane="B3top1_0" arrivalPos="286.40" arrivalSpeed="13.66" duration="92.00" routeLength="1177.07" waitingTime="1.00" waitingCount="1" stopTime="0.00" timeLoss="12.53" rerouteNo="0" devices="tripinfo_324" vType="DEFAULT_VEHTYPE" speedFactor="1.08" vaporized=""/>
    <tripinfo id="353" depart="1247.00" departLane="bottom3D0_0" departPos="5.10" departSpeed="0.00" departDelay="0.00" arrival="1293.00" arrivalLane="D0right0_0" arrivalPos="286.40" arrivalSpeed="14.21" duration="46.00" routeLength="576.73" waitingTime="0.00" waitingCount="0" stopTime="0.00" timeLoss="7.31" rerouteNo="0" devices="tripinfo_353" vType="DEFAULT_VEHTYPE" speedFactor="1.11" vaporized=""/>
    <tripinfo id="252" depart="962.00" departLane="bottom1B0_0" departPos="5.10" departSpeed="0.00" departDelay="0.00" arrival="1294.00" arrivalLane="A3top0_0" arrivalPos="286.40" arrivalSpeed="16.96" duration="332.00" routeLength="1782.59" waitingTime="210.00" waitingCount="1" stopTime="0.00" timeLoss="226.47" rerouteNo="0" devices="tripinfo_252" vType="DEFAULT_VEHTYPE" speedFactor="1.24" vaporized=""/>
    <tripinfo id="354" depart="1249.00" departLane="bottom1B0_0" departPos="5.10" departSpeed="0.00" departDelay="0.00" arrival="1314.00" arrivalLane="A0bottom0_0" arrivalPos="286.40" arrivalSpeed="15.51" duration="65.00" routeLength="894.86" waitingTime="0.00" waitingCount="0" stopTime="0.00" timeLoss="6.06" rerouteNo="0" devices="tripinfo_354" vType="DEFAULT_VEHTYPE" speedFactor="1.12" vaporized=""/>
    <tripinfo id="370" depart="1291.00" departLane="left0A0_0" departPos="5.10" departSpeed="0.00" departDelay="0.00" arrival="1348.00" arrivalLane="A0bottom0_0" arrivalPos="286.40" arrivalSpeed="12.28" duration="57.00" routeLength="576.73" waitingTime="1.00" waitingCount="1" stopTime="0.00" timeLoss="10.47" rerouteNo="0" devices="tripinfo_370" vType="DEFAULT_VEHTYPE" speedFactor="0.91" vaporized=""/>
    <tripinfo id="368" depart="1286.00" departLane="top1B3_0" departPos="5.10" departSpeed="0.00" departDelay="0.00" arrival="1367.00" arrivalLane="A3top0_0" arrivalPos="286.40" arrivalSpeed="12.77" duration="81.00" routeLength="858.56" waitingTime="1.00" waitingCount="1" stopTime="0.00" timeLoss="14.02" rerouteNo="0" devices="tripinfo_368" vType="DEFAULT_VEHTYPE" speedFactor="0.94" vaporized=""/>
    <tripinfo id="361" depart="1261.00" departLane="top0A3_0" departPos="5.10" departSpeed="0.00" departDelay="0.00" arrival="1377.00" arrivalLane="A1left1_0" arrivalPos="286.40" arrivalSpeed="10.86" duration="116.00" routeLength="1177.07" waitingTime="1.00" waitingCount="1" stopTime="0.00" timeLoss="13.80" rerouteNo="0" devices="tripinfo_361" vType="DEFAULT_VEHTYPE" speedFactor="0.84" vaporized=""/>
    <tripinfo id="39" depart="215.00" departLane="left0A0_0" departPos="5.10" departSpeed="0.00" departDelay="0.00" arrival="1380.00" arrivalLane="A0left0_0" arrivalPos="286.40" arrivalSpeed="12.19" duration="1165.00" routeLength="1745.91" waitingTime="996.00" waitingCount="4" stopTime="0.00" timeLoss="1026.92" rerouteNo="0" devices="tripinfo_39" vType="DEFAULT_VEHTYPE" speedFactor="0.93" vaporized=""/>
    <tripinfo id="321" depart="1143.00" departLane="bottom1B0_0" departPos="5.10" departSpeed="0.00" departDelay="0.00" arrival="1380.00" arrivalLane="A0left0_1" arrivalPos="286.40" arrivalSpeed="15.61" duration="237.00" routeLength="895.01" waitingTime="169.00" waitingCount="1" stopTime="0.00" timeLoss="179.85" rerouteNo="0" devices="tripinfo_321" vType="DEFAULT_VEHTYPE" speedFactor="1.15" vaporized=""/>
    <tripinfo id="225" depart="884.00" departLane="left0A0_0" departPos="5.10" departSpeed="0.00" departDelay="0.00" arrival="1382.00" arrivalLane="A0left0_0" arrivalPos="286.40" arrivalSpeed="12.82" duration="498.00" routeLength="1745.91" waitingTime="334.00" waitingCount="4" stopTime="0.00" timeLoss="362.72" rerouteNo="0" devices="tripinfo_225" vType="DEFAULT_VEHTYPE" speedFactor="0.95" vaporized=""/>
    <tripinfo id="308" depart="1116.00" departLane="left0A0_0" departPos="5.10" departSpeed="0.00" departDelay="0.00" arrival="1383.00" arrivalLane="A0left0_1" arrivalPos="286.40" arrivalSpeed="14.61" duration="267.00" routeLength="1745.91" waitingTime="115.00" waitingCount="4" stopTime="0.00" timeLoss="146.20" rerouteNo="0" devices="tripinfo_308" vType="DEFAULT_VEHTYPE" speedFactor="1.06" vaporized=""/>
    <tripinfo id="373" depart="1300.00" departLane="top0A3_0" departPos="5.10" departSpeed="0.00" departDelay="0.00" arrival="1393.00" arrivalLane="A1left1_0" arrivalPos="286.40" arrivalSpeed="14.06" duration="93.00" routeLength="1177.07" waitingTime="1.00" waitingCount="1" stopTime="0.00" timeLoss="13.14" rerouteNo="0" devices="tripinfo_373" vType="DEFAULT_VEHTYPE" speedFactor="1.08" vaporized=""/>
    <tripinfo id="229" depart="896.00" departLane="top1B3_0" departPos="5.10" departSpeed="0.00" departDelay="0.00" arrival="1407.00" arrivalLane="C3top2_0" arrivalPos="286.40" arrivalSpeed="14.97" duration="511.00" routeLength="894.86" waitingTime="440.00" waitingCount="1" stopTime="0.00" timeLoss="451.58" rerouteNo="0" devices="tripinfo_229" vType="DEFAULT_VEHTYPE" speedFactor="1.10" vaporized=""/>
    <tripinfo id="180" depart="749.00" departLane="right0D0_0" departPos="5.10" departSpeed="0.00" departDelay="0.00" arrival="1409.00" arrivalLane="D0bottom3_1" arrivalPos="286.40" arrivalSpeed="15.49" duration="660.00" routeLength="597.55" waitingTime="611.00" waitingCount="1" stopTime="0.00" timeLoss="621.51" rerouteNo="0" devices="tripinfo_180" vType="DEFAULT_VEHTYPE" speedFactor="1.14" vaporized=""/>
    <tripinfo id="378" depart="1311.00" departLane="right0D0_0" departPos="5.10" departSpeed="0.00" departDelay="0.00" arrival="1411.00" arrivalLane="D0bottom3_1" arrivalPos="286.40" arrivalSpeed="14.89" duration="100.00" routeLength="597.55" waitingTime="48.00" waitingCount="1" stopTime="0.00" timeLoss="60.24" rerouteNo="0" devices="tripinfo_378" vType="DEFAULT_VEHTYPE" speedFactor="1.10" vaporized=""/>
    <tripinfo id="381" depart="1315.00" departLane="top1B3_0" departPos="5.10" departSpeed="0.00" departDelay="0.00" arrival="1412.00" arrivalLane="C3top2_1" arrivalPos="286.40" arrivalSpeed="14.66" duration="97.00" routeLength="894.86" waitingTime="23.00" waitingCount="1" stopTime="0.00" timeLoss="35.52" rerouteNo="0" devices="tripinfo_381" vType="DEFAULT_VEHTYPE" speedFactor="1.08" vaporized=""/>
    <tripinfo id="338" depart="1205.00" departLane="top1B3_0" departPos="5.10" departSpeed="0.00" departDelay="0.00" arrival="1413.00" arrivalLane="C3top2_0" arrivalPos="286.40" arrivalSpeed="12.29" duration="208.00" routeLength="894.86" waitingTime="125.00" waitingCount="1" stopTime="0.00" timeLoss="137.93" rerouteNo="0" devices="tripinfo_338" vType="DEFAULT_VEHTYPE" speedFactor="0.94" vaporized=""/>
    <tripinfo id="130" depart="581.00" departLane="right0D0_0" departPos="5.10" departSpeed="0.00" departDelay="0.00" arrival="1415.00" arrivalLane="D0bottom3_0" arrivalPos="286.40" arrivalSpeed="10.95" duration="834.00" routeLength="597.55" waitingTime="770.00" waitingCount="1" stopTime="0.00" timeLoss="779.58" rerouteNo="0" devices="tripinfo_130" vType="DEFAULT_VEHTYPE" speedFactor="0.81" vaporized=""/>
    <tripinfo id="410" depart="1368.00" departLane="right0D0_0" departPos="5.10" departSpeed="0.00" departDelay="0.00" arrival="1417.00" arrivalLane="D0bottom3_0" arrivalPos="286.40" arrivalSpeed="13.74" duration="49.00" routeLength="597.55" waitingTime="0.00" waitingCount="0" stopTime="0.00" timeLoss="5.44" rerouteNo="0" devices="tripinfo_410" vType="DEFAULT_VEHTYPE" speedFactor="1.01" vaporized=""/>
    <tripinfo id="408" depart="1364.00" departLane="bottom1B0_0" departPos="5.10" departSpeed="0.00" departDelay="0.00" arrival="1449.00" arrivalLane="A0bottom0_0" arrivalPos="286.40" arrivalSpeed="11.81" duration="85.00" routeLength="894.86" waitingTime="0.00" waitingCount="0" stopTime="0.00" timeLoss="7.16" rerouteNo="0" devices="tripinfo_408" vType="DEFAULT_VEHTYPE" speedFactor="0.85" vaporized=""/>
    <tripinfo id="430" depart="1406.00" departLane="right3D3_0" departPos="5.10" departSpeed="0.00" departDelay="0.00" arrival="1485.00" arrivalLane="C3top2_0" arrivalPos="286.40" arrivalSpeed="12.71" duration="79.00" routeLength="876.90" waitingTime="1.00" waitingCount="1" stopTime="0.00" timeLoss="12.31" rerouteNo="0" devices="tripinfo_430" vType="DEFAULT_VEHTYPE" speedFactor="0.95" vaporized=""/>
    <tripinfo id="439" depart="1413.00" departLane="left1A1_0" departPos="5.10" departSpeed="0.00" departDelay="0.00" arrival="1487.00" arrivalLane="A0left0_0" arrivalPos="286.40" arrivalSpeed="14.14" duration="74.00" routeLength="858.56" waitingTime="1.00" waitingCount="1" stopTime="0.00" timeLoss="12.29" rerouteNo="0" devices="tripinfo_439" vType="DEFAULT_VEHTYPE" speedFactor="1.02" vaporized=""/>
    <tripinfo id="453" depart="1435.00" departLane="right3D3_0" departPos="5.10" departSpeed="0.00" departDelay="0.00" arrival="1487.00" arrivalLane="D3top3_0" arrivalPos="286.40" arrivalSpeed="12.48" duration="52.00" routeLength="576.73" waitingTime="0.00" waitingCount="0" stopTime="0.00" timeLoss="6.39" rerouteNo="0" devices="tripinfo_453" vType="DEFAULT_VEHTYPE" speedFactor="0.94" vaporized=""/>