<?xml version="1.0" encoding="UTF-8"?>

<!-- generated on 2023-08-30 13:46:54 by Eclipse SUMO libsumo Version 1.18.0
<configuration xmlns:xsi="http://www.w3.org/2001/XMLSchema-instance" xsi:noNamespaceSchemaLocation="http://sumo.dlr.de/xsd/libsumoConfiguration.xsd">

    <input>
        <net-file value="/home/stefan/RESCO/./environments/grid4x4/grid4x4.net.xml"/>
        <route-files value="/home/stefan/RESCO/./environments/grid4x4/grid4x4_80.rou.xml"/>
    </input>

    <output>
        <tripinfo-output value="/home/stefan/results/RAINBOW-tr0-grid4x4-0-drq_norm-wait_norm/tripinfo_80.xml"/>
        <tripinfo-output.write-unfinished value="true"/>
    </output>

    <processing>
        <time-to-teleport value="-1"/>
    </processing>

    <report>
        <no-warnings value="True"/>
        <no-step-log value="True"/>
    </report>

    <random_number>
        <random value="true"/>
    </random_number>

</configuration>
-->

<tripinfos xmlns:xsi="http://www.w3.org/2001/XMLSchema-instance" xsi:noNamespaceSchemaLocation="http://sumo.dlr.de/xsd/tripinfo_file.xsd">
    <tripinfo id="1" depart="3.00" departLane="right1D1_0" departPos="5.10" departSpeed="0.00" departDelay="0.00" arrival="77.00" arrivalLane="D2right2_0" arrivalPos="286.40" arrivalSpeed="15.28" duration="74.00" routeLength="858.56" waitingTime="2.00" waitingCount="2" stopTime="0.00" timeLoss="16.87" rerouteNo="0" devices="tripinfo_1" vType="DEFAULT_VEHTYPE" speedFactor="1.11" vaporized=""/>
    <tripinfo id="17" depart="53.00" departLane="right3D3_0" departPos="5.10" departSpeed="0.00" departDelay="0.00" arrival="129.00" arrivalLane="C3top2_0" arrivalPos="286.40" arrivalSpeed="12.96" duration="76.00" routeLength="876.90" waitingTime="0.00" waitingCount="0" stopTime="0.00" timeLoss="7.75" rerouteNo="0" devices="tripinfo_17" vType="DEFAULT_VEHTYPE" speedFactor="0.95" vaporized=""/>
    <tripinfo id="20" depart="72.00" departLane="right0D0_0" departPos="5.10" departSpeed="0.00" departDelay="0.00" arrival="178.00" arrivalLane="D0bottom3_0" arrivalPos="286.40" arrivalSpeed="13.52" duration="106.00" routeLength="597.55" waitingTime="55.00" waitingCount="1" stopTime="0.00" timeLoss="64.64" rerouteNo="0" devices="tripinfo_20" vType="DEFAULT_VEHTYPE" speedFactor="1.06" vaporized=""/>
    <tripinfo id="24" depart="82.00" departLane="bottom1B0_0" departPos="5.10" departSpeed="0.00" departDelay="2.00" arrival="253.00" arrivalLane="D0right0_0" arrivalPos="286.40" arrivalSpeed="11.48" duration="171.00" routeLength="1179.77" waitingTime="54.00" waitingCount="1" stopTime="0.00" timeLoss="69.84" rerouteNo="0" devices="tripinfo_24" vType="DEFAULT_VEHTYPE" speedFactor="0.85" vaporized=""/>
    <tripinfo id="23" depart="79.00" departLane="bottom1B0_0" departPos="5.10" departSpeed="0.00" departDelay="0.00" arrival="281.00" arrivalLane="A3top0_0" arrivalPos="286.40" arrivalSpeed="13.04" duration="202.00" routeLength="1782.59" waitingTime="56.00" waitingCount="2" stopTime="0.00" timeLoss="74.28" rerouteNo="0" devices="tripinfo_23" vType="DEFAULT_VEHTYPE" speedFactor="1.02" vaporized=""/>
    <tripinfo id="54" depart="230.00" departLane="bottom1B0_0" departPos="5.10" departSpeed="0.00" departDelay="0.00" arrival="295.00" arrivalLane="C0bottom2_0" arrivalPos="286.40" arrivalSpeed="15.66" duration="65.00" routeLength="858.56" waitingTime="0.00" waitingCount="0" stopTime="0.00" timeLoss="9.37" rerouteNo="0" devices="tripinfo_54" vType="DEFAULT_VEHTYPE" speedFactor="1.14" vaporized=""/>
    <tripinfo id="73" depart="330.00" departLane="bottom2C0_0" departPos="5.10" departSpeed="0.00" departDelay="0.00" arrival="419.00" arrivalLane="D0right0_0" arrivalPos="286.40" arrivalSpeed="11.01" duration="89.00" routeLength="879.60" waitingTime="1.00" waitingCount="1" stopTime="0.00" timeLoss="11.09" rerouteNo="0" devices="tripinfo_73" vType="DEFAULT_VEHTYPE" speedFactor="0.82" vaporized=""/>
    <tripinfo id="74" depart="338.00" departLane="top3D3_0" departPos="5.10" departSpeed="0.00" departDelay="0.00" arrival="422.00" arrivalLane="C3top2_0" arrivalPos="286.40" arrivalSpeed="12.40" duration="84.00" routeLength="858.56" waitingTime="2.00" waitingCount="2" stopTime="0.00" timeLoss="15.78" rerouteNo="0" devices="tripinfo_74" vType="DEFAULT_VEHTYPE" speedFactor="0.93" vaporized=""/>
    <tripinfo id="67" depart="306.00" departLane="left0A0_0" departPos="5.10" departSpeed="0.00" departDelay="0.00" arrival="454.00" arrivalLane="B0bottom1_0" arrivalPos="286.40" arrivalSpeed="13.98" duration="148.00" routeLength="876.90" waitingTime="67.00" waitingCount="2" stopTime="0.00" timeLoss="84.83" rerouteNo="0" devices="tripinfo_67" vType="DEFAULT_VEHTYPE" speedFactor="1.01" vaporized=""/>
    <tripinfo id="91" depart="415.00" departLane="left3A3_0" departPos="5.10" departSpeed="0.00" departDelay="0.00" arrival="487.00" arrivalLane="A2left2_0" arrivalPos="286.40" arrivalSpeed="14.47" duration="72.00" routeLength="858.56" waitingTime="1.00" waitingCount="1" stopTime="0.00" timeLoss="15.10" rerouteNo="0" devices="tripinfo_91" vType="DEFAULT_VEHTYPE" speedFactor="1.11" vaporized=""/>
    <tripinfo id="52" depart="223.00" departLane="bottom1B0_0" departPos="5.10" departSpeed="0.00" departDelay="0.00" arrival="621.00" arrivalLane="A1left1_0" arrivalPos="286.40" arrivalSpeed="12.32" duration="398.00" routeLength="1195.18" waitingTime="289.00" waitingCount="1" stopTime="0.00" timeLoss="302.15" rerouteNo="0" devices="tripinfo_52" vType="DEFAULT_VEHTYPE" speedFactor="0.90" vaporized=""/>
    <tripinfo id="128" depart="559.00" departLane="left1A1_0" departPos="5.10" departSpeed="0.00" departDelay="0.00" arrival="635.00" arrivalLane="A0left0_0" arrivalPos="286.40" arrivalSpeed="14.43" duration="76.00" routeLength="858.56" waitingTime="1.00" waitingCount="1" stopTime="0.00" timeLoss="14.48" rerouteNo="0" devices="tripinfo_128" vType="DEFAULT_VEHTYPE" speedFactor="1.04" vaporized=""/>
    <tripinfo id="12" depart="28.00" departLane="top2C3_0" departPos="5.10" departSpeed="0.00" departDelay="0.00" arrival="710.00" arrivalLane="A3top0_0" arrivalPos="286.40" arrivalSpeed="10.19" duration="682.00" routeLength="1161.43" waitingTime="549.00" waitingCount="3" stopTime="0.00" timeLoss="571.64" rerouteNo="0" devices="tripinfo_12" vType="DEFAULT_VEHTYPE" speedFactor="0.77" vaporized=""/>
    <tripinfo id="69" depart="312.00" departLane="left2A2_0" departPos="5.10" departSpeed="0.00" departDelay="0.00" arrival="724.00" arrivalLane="A0left0_0" arrivalPos="286.40" arrivalSpeed="14.31" duration="412.00" routeLength="1161.43" waitingTime="311.00" waitingCount="3" stopTime="0.00" timeLoss="331.80" rerouteNo="0" devices="tripinfo_69" vType="DEFAULT_VEHTYPE" speedFactor="1.06" vaporized=""/>
    <tripinfo id="112" depart="495.00" departLane="left3A3_0" departPos="5.10" departSpeed="0.00" departDelay="0.00" arrival="729.00" arrivalLane="A0left0_0" arrivalPos="286.40" arrivalSpeed="15.05" duration="234.00" routeLength="1461.60" waitingTime="110.00" waitingCount="3" stopTime="0.00" timeLoss="140.23" rerouteNo="0" devices="tripinfo_112" vType="DEFAULT_VEHTYPE" speedFactor="1.14" vaporized=""/>
    <tripinfo id="165" depart="716.00" departLane="left3A3_0" departPos="5.10" departSpeed="0.00" departDelay="0.00" arrival="814.00" arrivalLane="A1left1_0" arrivalPos="286.40" arrivalSpeed="14.94" duration="98.00" routeLength="1161.43" waitingTime="2.00" waitingCount="2" stopTime="0.00" timeLoss="20.56" rerouteNo="0" devices="tripinfo_165" vType="DEFAULT_VEHTYPE" speedFactor="1.10" vaporized=""/>
    <tripinfo id="177" depart="748.00" departLane="top2C3_0" departPos="5.10" departSpeed="0.00" departDelay="0.00" arrival="826.00" arrivalLane="B3top1_0" arrivalPos="286.40" arrivalSpeed="13.58" duration="78.00" routeLength="858.56" waitingTime="1.00" waitingCount="1" stopTime="0.00" timeLoss="13.83" rerouteNo="0" devices="tripinfo_177" vType="DEFAULT_VEHTYPE" speedFactor="0.99" vaporized=""/>
    <tripinfo id="60" depart="281.00" departLane="right3D3_0" departPos="5.10" departSpeed="0.00" departDelay="0.00" arrival="876.00" arrivalLane="B3top1_0" arrivalPos="286.40" arrivalSpeed="13.56" duration="595.00" routeLength="1177.07" waitingTime="495.00" waitingCount="2" stopTime="0.00" timeLoss="510.96" rerouteNo="0" devices="tripinfo_60" vType="DEFAULT_VEHTYPE" speedFactor="1.02" vaporized=""/>
    <tripinfo id="189" depart="776.00" departLane="bottom1B0_0" departPos="5.10" departSpeed="0.00" departDelay="0.00" arrival="877.00" arrivalLane="D0bottom3_0" arrivalPos="286.40" arrivalSpeed="13.86" duration="101.00" routeLength="1161.43" waitingTime="1.00" waitingCount="1" stopTime="0.00" timeLoss="15.59" rerouteNo="0" devices="tripinfo_189" vType="DEFAULT_VEHTYPE" speedFactor="1.00" vaporized=""/>
    <tripinfo id="151" depart="658.00" departLane="left2A2_0" departPos="5.10" departSpeed="0.00" departDelay="0.00" arrival="879.00" arrivalLane="A0left0_0" arrivalPos="286.40" arrivalSpeed="13.84" duration="221.00" routeLength="1161.43" waitingTime="113.00" waitingCount="3" stopTime="0.00" timeLoss="138.15" rerouteNo="0" devices="tripinfo_151" vType="DEFAULT_VEHTYPE" speedFactor="1.02" vaporized=""/>
    <tripinfo id="193" depart="789.00" departLane="bottom1B0_0" departPos="5.10" departSpeed="0.00" departDelay="0.00" arrival="898.00" arrivalLane="D0bottom3_0" arrivalPos="286.40" arrivalSpeed="12.63" duration="109.00" routeLength="1161.43" waitingTime="1.00" waitingCount="1" stopTime="0.00" timeLoss="15.29" rerouteNo="0" devices="tripinfo_193" vType="DEFAULT_VEHTYPE" speedFactor="0.91" vaporized=""/>
    <tripinfo id="99" depart="433.00" departLane="right3D3_0" departPos="5.10" departSpeed="0.00" departDelay="0.00" arrival="901.00" arrivalLane="B3top1_0" arrivalPos="286.40" arrivalSpeed="12.42" duration="468.00" routeLength="1177.07" waitingTime="353.00" waitingCount="3" stopTime="0.00" timeLoss="378.52" rerouteNo="0" devices="tripinfo_99" vType="DEFAULT_VEHTYPE" speedFactor="0.96" vaporized=""/>
    <tripinfo id="190" depart="781.00" departLane="top0A3_0" departPos="5.10" departSpeed="0.00" departDelay="0.00" arrival="904.00" arrivalLane="A0left0_0" arrivalPos="286.40" arrivalSpeed="12.74" duration="123.00" routeLength="1477.24" waitingTime="1.00" waitingCount="1" stopTime="0.00" timeLoss="13.20" rerouteNo="0" devices="tripinfo_190" vType="DEFAULT_VEHTYPE" speedFactor="0.97" vaporized=""/>
    <tripinfo id="154" depart="666.00" departLane="right3D3_0" departPos="5.10" departSpeed="0.00" departDelay="0.00" arrival="960.00" arrivalLane="B3top1_0" arrivalPos="286.40" arrivalSpeed="13.65" duration="294.00" routeLength="1177.07" waitingTime="175.00" waitingCount="4" stopTime="0.00" timeLoss="208.40" rerouteNo="0" devices="tripinfo_154" vType="DEFAULT_VEHTYPE" speedFactor="1.01" vaporized=""/>
    <tripinfo id="222" depart="884.00" departLane="bottom0A0_0" departPos="5.10" departSpeed="0.00" departDelay="0.00" arrival="961.00" arrivalLane="B0bottom1_0" arrivalPos="286.40" arrivalSpeed="14.15" duration="77.00" routeLength="858.56" waitingTime="2.00" waitingCount="2" stopTime="0.00" timeLoss="16.95" rerouteNo="0" devices="tripinfo_222" vType="DEFAULT_VEHTYPE" speedFactor="1.05" vaporized=""/>
    <tripinfo id="208" depart="841.00" departLane="left3A3_0" departPos="5.10" departSpeed="0.00" departDelay="0.00" arrival="975.00" arrivalLane="A0left0_0" arrivalPos="286.40" arrivalSpeed="13.01" duration="134.00" routeLength="1461.60" waitingTime="2.00" waitingCount="2" stopTime="0.00" timeLoss="21.04" rerouteNo="0" devices="tripinfo_208" vType="DEFAULT_VEHTYPE" speedFactor="0.94" vaporized=""/>
    <tripinfo id="226" depart="900.00" departLane="bottom1B0_0" departPos="5.10" departSpeed="0.00" departDelay="0.00" arrival="1009.00" arrivalLane="D0bottom3_0" arrivalPos="286.40" arrivalSpeed="11.25" duration="109.00" routeLength="1161.43" waitingTime="1.00" waitingCount="1" stopTime="0.00" timeLoss="13.65" rerouteNo="0" devices="tripinfo_226" vType="DEFAULT_VEHTYPE" speedFactor="0.89" vaporized=""/>
    <tripinfo id="249" depart="963.00" departLane="bottom2C0_0" departPos="5.10" departSpeed="0.00" departDelay="0.00" arrival="1044.00" arrivalLane="D0bottom3_0" arrivalPos="286.40" arrivalSpeed="13.85" duration="81.00" routeLength="858.56" waitingTime="2.00" waitingCount="2" stopTime="0.00" timeLoss="17.37" rerouteNo="0" devices="tripinfo_249" vType="DEFAULT_VEHTYPE" speedFactor="1.00" vaporized=""/>
    <tripinfo id="236" depart="937.00" departLane="bottom0A0_0" departPos="5.10" departSpeed="0.00" departDelay="0.00" arrival="1065.00" arrivalLane="A0left0_0" arrivalPos="286.40" arrivalSpeed="16.74" duration="128.00" routeLength="597.55" waitingTime="81.00" waitingCount="1" stopTime="0.00" timeLoss="93.49" rerouteNo="0" devices="tripinfo_236" vType="DEFAULT_VEHTYPE" speedFactor="1.29" vaporized=""/>
    <tripinfo id="261" depart="1001.00" departLane="left3A3_0" departPos="5.10" departSpeed="0.00" departDelay="0.00" arrival="1071.00" arrivalLane="A2left2_0" arrivalPos="286.40" arrivalSpeed="14.70" duration="70.00" routeLength="858.56" waitingTime="1.00" waitingCount="1" stopTime="0.00" timeLoss="13.94" rerouteNo="0" devices="tripinfo_261" vType="DEFAULT_VEHTYPE" speedFactor="1.14" vaporized=""/>
    <tripinfo id="256" depart="980.00" departLane="top3D3_0" departPos="5.10" departSpeed="0.00" departDelay="3.00" arrival="1077.00" arrivalLane="B3top1_0" arrivalPos="286.40" arrivalSpeed="14.82" duration="97.00" routeLength="1161.43" waitingTime="2.00" waitingCount="2" stopTime="0.00" timeLoss="18.76" rerouteNo="0" devices="tripinfo_256" vType="DEFAULT_VEHTYPE" speedFactor="1.09" vaporized=""/>
    <tripinfo id="271" depart="1016.00" departLane="bottom2C0_0" departPos="5.10" departSpeed="0.00" departDelay="0.00" arrival="1093.00" arrivalLane="D0bottom3_0" arrivalPos="286.40" arrivalSpeed="14.56" duration="77.00" routeLength="858.56" waitingTime="2.00" waitingCount="2" stopTime="0.00" timeLoss="18.05" rerouteNo="0" devices="tripinfo_271" vType="DEFAULT_VEHTYPE" speedFactor="1.07" vaporized=""/>
    <tripinfo id="278" depart="1039.00" departLane="top3D3_0" departPos="5.10" departSpeed="0.00" departDelay="0.00" arrival="1113.00" arrivalLane="C3top2_0" arrivalPos="286.40" arrivalSpeed="13.51" duration="74.00" routeLength="858.56" waitingTime="1.00" waitingCount="1" stopTime="0.00" timeLoss="12.51" rerouteNo="0" devices="tripinfo_278" vType="DEFAULT_VEHTYPE" speedFactor="1.03" vaporized=""/>
    <tripinfo id="288" depart="1075.00" departLane="top0A3_0" departPos="5.10" departSpeed="0.00" departDelay="0.00" arrival="1182.00" arrivalLane="A1left1_0" arrivalPos="286.40" arrivalSpeed="13.57" duration="107.00" routeLength="1177.07" waitingTime="1.00" waitingCount="1" stopTime="0.00" timeLoss="24.27" rerouteNo="0" devices="tripinfo_288" vType="DEFAULT_VEHTYPE" speedFactor="1.04" vaporized=""/>
    <tripinfo id="301" depart="1115.00" departLane="right3D3_0" departPos="5.10" departSpeed="0.00" departDelay="0.00" arrival="1187.00" arrivalLane="C3top2_0" arrivalPos="286.40" arrivalSpeed="12.89" duration="72.00" routeLength="876.90" waitingTime="0.00" waitingCount="0" stopTime="0.00" timeLoss="8.22" rerouteNo="0" devices="tripinfo_301" vType="DEFAULT_VEHTYPE" speedFactor="1.01" vaporized=""/>
    <tripinfo id="333" depart="1183.00" departLane="right2D2_0" departPos="5.10" departSpeed="0.00" departDelay="0.00" arrival="1265.00" arrivalLane="D3right3_0" arrivalPos="286.40" arrivalSpeed="12.94" duration="82.00" routeLength="858.56" waitingTime="2.00" waitingCount="2" stopTime="0.00" timeLoss="18.20" rerouteNo="0" devices="tripinfo_333" vType="DEFAULT_VEHTYPE" speedFactor="0.99" vaporized=""/>
    <tripinfo id="212" depart="851.00" departLane="right0D0_0" departPos="5.10" departSpeed="0.00" departDelay="0.00" arrival="1321.00" arrivalLane="D0bottom3_0" arrivalPos="286.40" arrivalSpeed="12.68" duration="470.00" routeLength="597.55" waitingTime="414.00" waitingCount="1" stopTime="0.00" timeLoss="423.64" rerouteNo="0" devices="tripinfo_212" vType="DEFAULT_VEHTYPE" speedFactor="0.96" vaporized=""/>
    <tripinfo id="245" depart="960.00" departLane="left3A3_0" departPos="5.10" departSpeed="0.00" departDelay="0.00" arrival="1328.00" arrivalLane="A0left0_0" arrivalPos="286.40" arrivalSpeed="13.64" duration="368.00" routeLength="1461.60" waitingTime="243.00" waitingCount="3" stopTime="0.00" timeLoss="264.59" rerouteNo="0" devices="tripinfo_245" vType="DEFAULT_VEHTYPE" speedFactor="1.03" vaporized=""/>
    <tripinfo id="372" depart="1264.00" departLane="right2D2_0" departPos="5.10" departSpeed="0.00" departDelay="0.00" arrival="1351.00" arrivalLane="D3right3_0" arrivalPos="286.40" arrivalSpeed="11.26" duration="87.00" routeLength="858.56" waitingTime="2.00" waitingCount="2" stopTime="0.00" timeLoss="15.93" rerouteNo="0" devices="tripinfo_372" vType="DEFAULT_VEHTYPE" speedFactor="0.89" vaporized=""/>
    <tripinfo id="397" depart="1315.00" departLane="top0A3_0" departPos="5.10" departSpeed="0.00" departDelay="0.00" arrival="1361.00" arrivalLane="A3left3_0" arrivalPos="286.40" arrivalSpeed="13.72" duration="46.00" routeLength="576.73" waitingTime="0.00" waitingCount="0" stopTime="0.00" timeLoss="5.95" rerouteNo="0" devices="tripinfo_397" vType="DEFAULT_VEHTYPE" speedFactor="1.06" vaporized=""/>
    <tripinfo id="317" depart="1149.00" departLane="left3A3_0" departPos="5.10" departSpeed="0.00" departDelay="0.00" arrival="1367.00" arrivalLane="A0left0_0" arrivalPos="286.40" arrivalSpeed="13.42" duration="218.00" routeLength="1461.60" waitingTime="82.00" waitingCount="4" stopTime="0.00" timeLoss="109.28" rerouteNo="0" devices="tripinfo_317" vType="DEFAULT_VEHTYPE" speedFactor="0.98" vaporized=""/>
    <tripinfo id="338" depart="1191.00" departLane="left3A3_0" departPos="5.10" departSpeed="0.00" departDelay="0.00" arrival="1376.00" arrivalLane="A0left0_0" arrivalPos="286.40" arrivalSpeed="10.71" duration="185.00" routeLength="1461.60" waitingTime="31.00" waitingCount="3" stopTime="0.00" timeLoss="56.14" rerouteNo="0" devices="tripinfo_338" vType="DEFAULT_VEHTYPE" speedFactor="0.83" vaporized=""/>
    <tripinfo id="320" depart="1156.00" departLane="left0A0_0" departPos="5.10" departSpeed="0.00" departDelay="0.00" arrival="1380.00" arrivalLane="B0bottom1_0" arrivalPos="286.40" arrivalSpeed="13.13" duration="224.00" routeLength="876.90" waitingTime="144.00" waitingCount="2" stopTime="0.00" timeLoss="159.70" rerouteNo="0" devices="tripinfo_320" vType="DEFAULT_VEHTYPE" speedFactor="0.99" vaporized=""/>
    <tripinfo id="87" depart="397.00" departLane="bottom3D0_0" departPos="5.10" departSpeed="0.00" departDelay="0.00" arrival="1381.00" arrivalLane="C0bottom2_0" arrivalPos="286.40" arrivalSpeed="12.10" duration="984.00" routeLength="894.86" waitingTime="897.00" waitingCount="2" stopTime="0.00" timeLoss="913.69" rerouteNo="0" devices="tripinfo_87" vType="DEFAULT_VEHTYPE" speedFactor="0.93" vaporized=""/>
    <tripinfo id="132" depart="584.00" departLane="bottom3D0_0" departPos="5.10" departSpeed="0.00" departDelay="0.00" arrival="1382.00" arrivalLane="C0bottom2_1" arrivalPos="286.40" arrivalSpeed="12.70" duration="798.00" routeLength="894.86" waitingTime="711.00" waitingCount="2" stopTime="0.00" timeLoss="731.23" rerouteNo="0" devices="tripinfo_132" vType="DEFAULT_VEHTYPE" speedFactor="0.99" vaporized=""/>
    <tripinfo id="153" depart="665.00" departLane="bottom3D0_0" departPos="5.10" departSpeed="0.00" departDelay="0.00" arrival="1388.00" arrivalLane="C0bottom2_0" arrivalPos="286.40" arrivalSpeed="10.59" duration="723.00" routeLength="894.86" waitingTime="631.00" waitingCount="1" stopTime="0.00" timeLoss="644.88" rerouteNo="0" devices="tripinfo_153" vType="DEFAULT_VEHTYPE" speedFactor="0.84" vaporized=""/>
    <tripinfo id="398" depart="1316.00" departLane="right2D2_0" departPos="5.10" departSpeed="0.00" departDelay="0.00" arrival="1393.00" arrivalLane="D3right3_0" arrivalPos="286.40" arrivalSpeed="14.30" duration="77.00" routeLength="858.56" waitingTime="2.00" waitingCount="2" stopTime="0.00" timeLoss="18.04" rerouteNo="0" devices="tripinfo_398" vType="DEFAULT_VEHTYPE" speedFactor="1.07" vaporized=""/>
    <tripinfo id="404" depart="1325.00" departLane="right2D2_0" departPos="5.10" departSpeed="0.00" departDelay="0.00" arrival="1418.00" arrivalLane="D3right3_0" arrivalPos="286.40" arrivalSpeed="11.89" duration="93.00" routeLength="858.56" waitingTime="2.00" waitingCount="2" stopTime="0.00" timeLoss="19.62" rerouteNo="0" devices="tripinfo_404" vType="DEFAULT_VEHTYPE" speedFactor="0.86" vaporized=""/>
    <tripinfo id="423" depart="1361.00" departLane="top0A3_0" departPos="5.10" departSpeed="0.00" departDelay="0.00" arrival="1439.00" arrivalLane="A2left2_0" arrivalPos="286.40" arrivalSpeed="13.35" duration="78.00" routeLength="876.90" waitingTime="1.00" waitingCount="1" stopTime="0.00" timeLoss="11.70" rerouteNo="0" devices="tripinfo_423" vType="DEFAULT_VEHTYPE" speedFactor="0.97" vaporized=""/>
    <tripinfo id="442" depart="1398.00" departLane="right3D3_0" departPos="5.10" departSpeed="0.00" departDelay="0.00" arrival="1443.00" arrivalLane="D3top3_0" arrivalPos="286.40" arrivalSpeed="15.20" duration="45.00" routeLength="576.73" waitingTime="0.00" waitingCount="0" stopTime="0.00" timeLoss="7.17" rerouteNo="0" devices="tripinfo_442" vType="DEFAULT_VEHTYPE" speedFactor="1.12" vaporized=""/>
    <tripinfo id="447" depart="1406.00" departLane="left0A0_0" departPos="5.10" departSpeed="0.00" departDelay="0.00" arrival="1456.00" arrivalLane="A0bottom0_0" arrivalPos="286.40" arrivalSpeed="13.49" duration="50.00" routeLength="576.73" waitingTime="0.00" waitingCount="0" stopTime="0.00" timeLoss="6.74" rerouteNo="0" devices="tripinfo_447" vType="DEFAULT_VEHTYPE" speedFactor="0.99" vaporized=""/>
    <tripinfo id="168" depart="728.00" departLane="right2D2_0" departPos="5.10" departSpeed="0.00" departDelay="0.00" arrival="1467.00" arrivalLane="D3top3_0" arrivalPos="286.40" arrivalSpeed="14.41" duration="739.00" routeLength="879.60" waitingTime="665.00" waitingCount="2" stopTime="0.00" timeLoss="681.30" rerouteNo="0" devices="tripinfo_168" vType="DEFAULT_VEHTYPE" speedFactor="1.11" vaporized=""/>
    <tripinfo id="100" depart="434.00" departLane="right1D1_0" departPos="5.10" departSpeed="0.00" departDelay="0.00" arrival="1470.00" arrivalLane="D3top3_0" arrivalPos="286.40" arrivalSpeed="13.91" duration="1036.00" routeLength="1179.77" waitingTime="929.00" waitingCount="3" stopTime="0.00" timeLoss="952.76" rerouteNo="0" devices="tripinfo_100" vType="DEFAULT_VEHTYPE" speedFactor="1.03" vaporized=""/>
    <tripinfo id="246" depart="961.00" departLane="right1D1_0" departPos="5.10" departSpeed="0.00" departDelay="0.00" arrival="1472.00" arrivalLane="D3top3_0" arrivalPos="286.40" arrivalSpeed="13.90" duration="511.00" routeLength="1179.77" waitingTime="411.00" waitingCount="2" stopTime="0.00" timeLoss="429.72" rerouteNo="0" devices="tripinfo_246" vType="DEFAULT_VEHTYPE" speedFactor="1.06" vaporized=""/>
    <tripinfo id="456" depart="1423.00" departLane="right2D2_0" departPos="5.10" departSpeed="0.00" departDelay="0.00" arrival="1514.00" arrivalLane="D3right3_0" arrivalPos="286.40" arrivalSpeed="11.50" duration="91.00" routeLength="858.56" waitingTime="2.00" waitingCount="2" stopTime="0.00" timeLoss="17.38" rerouteNo="0" devices="tripinfo_456" vType="DEFAULT_VEHTYPE" speedFactor="0.86" vaporized=""/>
    <tripinfo id="28" depart="120.00" departLane="bottom1B0_0" departPos="5.10" departSpeed="0.00" departDelay="0.00" arrival="1518.00" arrivalLane="A0bottom0_0" arrivalPos="286.40" arrivalSpeed="14.57" duration="1398.00" routeLength="894.86" waitingTime="1326.00" waitingCount="1" stopTime="0.00" timeLoss="1336.76" rerouteNo="0" devices="tripinfo_28" vType="DEFAULT_VEHTYPE" speedFactor="1.08" vaporized=""/>
    <tripinfo id="36" depart="146.00" departLane="left0A0_0" departPos="5.10" departSpeed="0.00" departDelay="0.00" arrival="1521.00" arrivalLane="A0left0_0" arrivalPos="286.40" arrivalSpeed="11.57" duration="1375.00" routeLength="1745.91" waitingTime="1204.00" waitingCount="5" stopTime="0.00" timeLoss="1236.08" rerouteNo="0" devices="tripinfo_36" vType="DEFAULT_VEHTYPE" speedFactor="0.92" vaporized=""/>
    <tripinfo id="186" depart="772.00" departLane="bottom1B0_0" departPos="5.10" departSpeed="0.00" departDelay="0.00" arrival="1522.00" arrivalLane="A0left0_1" arrivalPos="286.40" arrivalSpeed="12.96" duration="750.00" routeLength="895.01" waitingTime="671.00" waitingCount="1" stopTime="0.00" timeLoss="683.70" rerouteNo="0" devices="tripinfo_186" vType="DEFAULT_VEHTYPE" speedFactor="0.99" vaporized=""/>
    <tripinfo id="290" depart="1079.00" departLane="bottom1B0_0" departPos="5.10" departSpeed="0.00" departDelay="0.00" arrival="1522.00" arrivalLane="A0bottom0_0" arrivalPos="286.40" arrivalSpeed="13.21" duration="443.00" routeLength="894.86" waitingTime="362.00" waitingCount="1" stopTime="0.00" timeLoss="375.12" rerouteNo="0" devices="tripinfo_290" vType="DEFAULT_VEHTYPE" speedFactor="0.97" vaporized=""/>
    <tripinfo id="441" depart="1397.00" departLane="bottom1B0_0" departPos="5.10" departSpeed="0.00" departDelay="0.00" arrival="1522.00" arrivalLane="A0bottom0_1" arrivalPos="286.40" arrivalSpeed="14.62" duration="125.00" routeLength="894.86" waitingTime="51.00" waitingCount="1" stopTime="0.00" timeLoss="65.70" rerouteNo="0" devices="tripinfo_441" vType="DEFAULT_VEHTYPE" speedFactor="1.11" vaporized=""/>
    <tripinfo id="487" depart="1477.00" departLane="bottom1B0_0" departPos="5.10" departSpeed="0.00" departDelay="0.00" arrival="1542.00" arrivalLane="A0left0_0" arrivalPos="286.40" arrivalSpeed="14.54" duration="65.00" routeLength="895.01" waitingTime="0.00" waitingCount="0" stopTime="0.00" timeLoss="6.30" rerouteNo="0" devices="tripinfo_487" vType="DEFAULT_VEHTYPE" speedFactor="1.11" vaporized=""/>
    <tripinfo id="459" depart="1429.00" departLane="right2D2_0" departPos="5.10" departSpeed="0.00" departDelay="0.00" arrival="1547.00" arrivalLane="D3right3_0" arrivalPos="286.40" arrivalSpeed="8.03" duration="118.00" routeLength="858.56" waitingTime="2.00" waitingCount="2" stopTime="0.00" timeLoss="19.66" rerouteNo="0" devices="tripinfo_459" vType="DEFAULT_VEHTYPE" speedFactor="0.64" vaporized=""/>
    <tripinfo id="251" depart="972.00" departLane="right1D1_0" departPos="5.10" departSpeed="0.00" departDelay="0.00" arrival="1568.00" arrivalLane="D3top3_0" arrivalPos="286.40" arrivalSpeed="14.80" duration="596.00" routeLength="1179.77" waitingTime="493.00" waitingCount="3" stopTime="0.00" timeLoss="517.03" rerouteNo="0" devices="tripinfo_251" vType="DEFAULT_VEHTYPE" speedFactor="1.09" vaporized=""/>
    <tripinfo id="19" depart="56.00" departLane="left2A2_0" departPos="5.10" departSpeed="0.00" departDelay="0.00" arrival="1570.00" arrivalLane="D3top3_1" arrivalPos="286.40" arrivalSpeed="15.25" duration="1514.00" routeLength="1795.52" waitingTime="1357.00" waitingCount="5" stopTime="0.00" timeLoss="1396.40" rerouteNo="0" devices="tripinfo_19" vType="DEFAULT_VEHTYPE" speedFactor="1.11" vaporized=""/>
    <tripinfo id="464" depart="1443.00" departLane="right0D0_0" departPos="5.10" departSpeed="0.00" departDelay="0.00" arrival="1606.00" arrivalLane="D0bottom3_0" arrivalPos="286.40" arrivalSpeed="15.34" duration="163.00" routeLength="597.55" waitingTime="115.00" waitingCount="1" stopTime="0.00" timeLoss="125.41" rerouteNo="0" devices="tripinfo_464" vType="DEFAULT_VEHTYPE" speedFactor="1.17" vaporized=""/>
    <tripinfo id="526" depart="1544.00" departLane="top1B3_0" departPos="5.10" departSpeed="0.00" departDelay="0.00" arrival="1624.00" arrivalLane="A3top0_0" arrivalPos="286.40" arrivalSpeed="13.03" duration="80.00" routeLength="858.56" waitingTime="1.00" waitingCount="1" stopTime="0.00" timeLoss="14.87" rerouteNo="0" devices="tripinfo_526" vType="DEFAULT_VEHTYPE" speedFactor="0.98" vaporized=""/>
    <tripinfo id="523" depart="1539.00" departLane="top3D3_0" departPos="5.10" departSpeed="0.00" departDelay="0.00" arrival="1643.00" arrivalLane="B3top1_0" arrivalPos="286.40" arrivalSpeed="12.89" duration="104.00" routeLength="1161.43" waitingTime="2.00" waitingCount="2" stopTime="0.00" timeLoss="18.02" rerouteNo="0" devices="tripinfo_523" vType="DEFAULT_VEHTYPE" speedFactor="1.00" vaporized=""/>
    <tripinfo id="562" depart="1601.00" departLane="left0A0_0" departPos="5.10" departSpeed="0.00" departDelay="0.00" arrival="1654.00" arrivalLane="A0bottom0_0" arrivalPos="286.40" arrivalSpeed="13.41" duration="53.00" routeLength="576.73" waitingTime="1.00" waitingCount="1" stopTime="0.00" timeLoss="9.72" rerouteNo="0" devices="tripinfo_562" vType="DEFAULT_VEHTYPE" speedFactor="0.99" vaporized=""/>
    <tripinfo id="550" depart="1587.00" departLane="top0A3_0" departPos="5.10" departSpeed="0.00" departDelay="0.00" arrival="1659.00" arrivalLane="A2left2_0" arrivalPos="286.40" arrivalSpeed="13.72" duration="72.00" routeLength="876.90" waitingTime="1.00" waitingCount="1" stopTime="0.00" timeLoss="11.86" rerouteNo="0" devices="tripinfo_550" vType="DEFAULT_VEHTYPE" speedFactor="1.06" vaporized=""/>
    <tripinfo id="597" depart="1644.00" departLane="top0A3_0" departPos="5.10" departSpeed="0.00" departDelay="0.00" arrival="1688.00" arrivalLane="A3left3_0" arrivalPos="286.40" arrivalSpeed="15.48" duration="44.00" routeLength="576.73" waitingTime="0.00" waitingCount="0" stopTime="0.00" timeLoss="7.18" rerouteNo="0" devices="tripinfo_597" vType="DEFAULT_VEHTYPE" speedFactor="1.16" vaporized=""/>
    <tripinfo id="555" depart="1594.00" departLane="bottom1B0_0" departPos="5.10" departSpeed="0.00" departDelay="0.00" arrival="1693.00" arrivalLane="D0bottom3_0" arrivalPos="286.40" arrivalSpeed="12.69" duration="99.00" routeLength="1161.43" waitingTime="1.00" waitingCount="1" stopTime="0.00" timeLoss="13.64" rerouteNo="0" devices="tripinfo_555" vType="DEFAULT_VEHTYPE" speedFactor="1.01" vaporized=""/>