<?xml version="1.0" encoding="UTF-8"?>

<!-- generated on 2023-08-30 13:38:14 by Eclipse SUMO libsumo Version 1.18.0
<configuration xmlns:xsi="http://www.w3.org/2001/XMLSchema-instance" xsi:noNamespaceSchemaLocation="http://sumo.dlr.de/xsd/libsumoConfiguration.xsd">

    <input>
        <net-file value="/home/stefan/RESCO/./environments/grid4x4/grid4x4.net.xml"/>
        <route-files value="/home/stefan/RESCO/./environments/grid4x4/grid4x4_68.rou.xml"/>
    </input>

    <output>
        <tripinfo-output value="/home/stefan/results/RAINBOW-tr0-grid4x4-0-drq_norm-wait_norm/tripinfo_68.xml"/>
        <tripinfo-output.write-unfinished value="true"/>
    </output>

    <processing>
        <time-to-teleport value="-1"/>
    </processing>

    <report>
        <no-warnings value="True"/>
        <no-step-log value="True"/>
    </report>

    <random_number>
        <random value="true"/>
    </random_number>

</configuration>
-->

<tripinfos xmlns:xsi="http://www.w3.org/2001/XMLSchema-instance" xsi:noNamespaceSchemaLocation="http://sumo.dlr.de/xsd/tripinfo_file.xsd">
    <tripinfo id="19" depart="84.00" departLane="bottom3D0_0" departPos="5.10" departSpeed="0.00" departDelay="0.00" arrival="134.00" arrivalLane="D0right0_0" arrivalPos="286.40" arrivalSpeed="14.62" duration="50.00" routeLength="576.73" waitingTime="1.00" waitingCount="1" stopTime="0.00" timeLoss="12.22" rerouteNo="0" devices="tripinfo_19" vType="DEFAULT_VEHTYPE" speedFactor="1.13" vaporized=""/>
    <tripinfo id="8" depart="45.00" departLane="bottom1B0_0" departPos="5.10" departSpeed="0.00" departDelay="0.00" arrival="143.00" arrivalLane="A0left0_0" arrivalPos="286.40" arrivalSpeed="13.18" duration="98.00" routeLength="895.01" waitingTime="22.00" waitingCount="1" stopTime="0.00" timeLoss="31.07" rerouteNo="0" devices="tripinfo_8" vType="DEFAULT_VEHTYPE" speedFactor="0.97" vaporized=""/>
    <tripinfo id="14" depart="66.00" departLane="bottom1B0_0" departPos="5.10" departSpeed="0.00" departDelay="0.00" arrival="147.00" arrivalLane="A0bottom0_0" arrivalPos="286.40" arrivalSpeed="12.21" duration="81.00" routeLength="894.86" waitingTime="0.00" waitingCount="0" stopTime="0.00" timeLoss="11.60" rerouteNo="0" devices="tripinfo_14" vType="DEFAULT_VEHTYPE" speedFactor="0.95" vaporized=""/>
    <tripinfo id="15" depart="69.00" departLane="bottom1B0_0" departPos="5.10" departSpeed="0.00" departDelay="1.00" arrival="147.00" arrivalLane="A0left0_0" arrivalPos="286.40" arrivalSpeed="12.27" duration="78.00" routeLength="895.01" waitingTime="0.00" waitingCount="0" stopTime="0.00" timeLoss="10.81" rerouteNo="0" devices="tripinfo_15" vType="DEFAULT_VEHTYPE" speedFactor="0.98" vaporized=""/>
    <tripinfo id="10" depart="50.00" departLane="top1B3_0" departPos="5.10" departSpeed="0.00" departDelay="0.00" arrival="168.00" arrivalLane="A2left2_0" arrivalPos="286.40" arrivalSpeed="14.21" duration="118.00" routeLength="1179.77" waitingTime="10.00" waitingCount="2" stopTime="0.00" timeLoss="36.18" rerouteNo="0" devices="tripinfo_10" vType="DEFAULT_VEHTYPE" speedFactor="1.06" vaporized=""/>
    <tripinfo id="34" depart="155.00" departLane="bottom3D0_0" departPos="5.10" departSpeed="0.00" departDelay="0.00" arrival="211.00" arrivalLane="D0right0_0" arrivalPos="286.40" arrivalSpeed="13.28" duration="56.00" routeLength="576.73" waitingTime="1.00" waitingCount="1" stopTime="0.00" timeLoss="11.72" rerouteNo="0" devices="tripinfo_34" vType="DEFAULT_VEHTYPE" speedFactor="0.97" vaporized=""/>
    <tripinfo id="17" depart="77.00" departLane="left0A0_0" departPos="5.10" departSpeed="0.00" departDelay="0.00" arrival="227.00" arrivalLane="A0left0_0" arrivalPos="286.40" arrivalSpeed="13.65" duration="150.00" routeLength="1745.91" waitingTime="2.00" waitingCount="2" stopTime="0.00" timeLoss="20.64" rerouteNo="0" devices="tripinfo_17" vType="DEFAULT_VEHTYPE" speedFactor="0.99" vaporized=""/>
    <tripinfo id="7" depart="44.00" departLane="top1B3_0" departPos="5.10" departSpeed="0.00" departDelay="0.00" arrival="250.00" arrivalLane="B3top1_0" arrivalPos="286.40" arrivalSpeed="13.34" duration="206.00" routeLength="1748.75" waitingTime="47.00" waitingCount="4" stopTime="0.00" timeLoss="74.50" rerouteNo="0" devices="tripinfo_7" vType="DEFAULT_VEHTYPE" speedFactor="0.98" vaporized=""/>
    <tripinfo id="50" depart="219.00" departLane="bottom0A0_0" departPos="5.10" departSpeed="0.00" departDelay="0.00" arrival="277.00" arrivalLane="A0left0_0" arrivalPos="286.40" arrivalSpeed="14.39" duration="58.00" routeLength="597.55" waitingTime="9.00" waitingCount="1" stopTime="0.00" timeLoss="18.80" rerouteNo="0" devices="tripinfo_50" vType="DEFAULT_VEHTYPE" speedFactor="1.11" vaporized=""/>
    <tripinfo id="1" depart="4.00" departLane="left1A1_0" departPos="5.10" departSpeed="0.00" departDelay="0.00" arrival="309.00" arrivalLane="B3top1_0" arrivalPos="286.40" arrivalSpeed="13.92" duration="305.00" routeLength="1495.35" waitingTime="174.00" waitingCount="3" stopTime="0.00" timeLoss="199.17" rerouteNo="0" devices="tripinfo_1" vType="DEFAULT_VEHTYPE" speedFactor="1.03" vaporized=""/>
    <tripinfo id="4" depart="17.00" departLane="bottom1B0_0" departPos="5.10" departSpeed="0.00" departDelay="0.00" arrival="352.00" arrivalLane="D1right1_0" arrivalPos="286.40" arrivalSpeed="11.41" duration="335.00" routeLength="1479.94" waitingTime="197.00" waitingCount="3" stopTime="0.00" timeLoss="216.44" rerouteNo="0" devices="tripinfo_4" vType="DEFAULT_VEHTYPE" speedFactor="0.91" vaporized=""/>
    <tripinfo id="59" depart="263.00" departLane="left3A3_0" departPos="5.10" departSpeed="0.00" departDelay="0.00" arrival="353.00" arrivalLane="A2left2_0" arrivalPos="286.40" arrivalSpeed="11.16" duration="90.00" routeLength="858.56" waitingTime="1.00" waitingCount="1" stopTime="0.00" timeLoss="16.26" rerouteNo="0" devices="tripinfo_59" vType="DEFAULT_VEHTYPE" speedFactor="0.87" vaporized=""/>
    <tripinfo id="41" depart="189.00" departLane="top1B3_0" departPos="5.10" departSpeed="0.00" departDelay="0.00" arrival="357.00" arrivalLane="B3top1_0" arrivalPos="286.40" arrivalSpeed="11.33" duration="168.00" routeLength="1748.75" waitingTime="2.00" waitingCount="2" stopTime="0.00" timeLoss="24.77" rerouteNo="0" devices="tripinfo_41" vType="DEFAULT_VEHTYPE" speedFactor="0.89" vaporized=""/>
    <tripinfo id="68" depart="288.00" departLane="right0D0_0" departPos="5.10" departSpeed="0.00" departDelay="0.00" arrival="358.00" arrivalLane="D1right1_0" arrivalPos="286.40" arrivalSpeed="13.79" duration="70.00" routeLength="858.56" waitingTime="0.00" waitingCount="0" stopTime="0.00" timeLoss="9.66" rerouteNo="0" devices="tripinfo_68" vType="DEFAULT_VEHTYPE" speedFactor="1.04" vaporized=""/>
    <tripinfo id="2" depart="7.00" departLane="top1B3_0" departPos="5.10" departSpeed="0.00" departDelay="0.00" arrival="381.00" arrivalLane="B0bottom1_0" arrivalPos="286.40" arrivalSpeed="11.48" duration="374.00" routeLength="1495.58" waitingTime="238.00" waitingCount="2" stopTime="0.00" timeLoss="255.78" rerouteNo="0" devices="tripinfo_2" vType="DEFAULT_VEHTYPE" speedFactor="0.92" vaporized=""/>
    <tripinfo id="22" depart="88.00" departLane="top1B3_0" departPos="5.10" departSpeed="0.00" departDelay="0.00" arrival="382.00" arrivalLane="B0bottom1_0" arrivalPos="286.40" arrivalSpeed="13.01" duration="294.00" routeLength="1495.58" waitingTime="158.00" waitingCount="2" stopTime="0.00" timeLoss="181.63" rerouteNo="0" devices="tripinfo_22" vType="DEFAULT_VEHTYPE" speedFactor="0.96" vaporized=""/>
    <tripinfo id="11" depart="52.00" departLane="right3D3_0" departPos="5.10" departSpeed="0.00" departDelay="0.00" arrival="383.00" arrivalLane="B0bottom1_1" arrivalPos="286.40" arrivalSpeed="13.62" duration="331.00" routeLength="2095.69" waitingTime="149.00" waitingCount="3" stopTime="0.00" timeLoss="181.80" rerouteNo="0" devices="tripinfo_11" vType="DEFAULT_VEHTYPE" speedFactor="1.02" vaporized=""/>
    <tripinfo id="73" depart="310.00" departLane="left2A2_0" departPos="5.10" departSpeed="0.00" departDelay="0.00" arrival="388.00" arrivalLane="A1left1_0" arrivalPos="286.40" arrivalSpeed="14.74" duration="78.00" routeLength="858.56" waitingTime="2.00" waitingCount="2" stopTime="0.00" timeLoss="20.99" rerouteNo="0" devices="tripinfo_73" vType="DEFAULT_VEHTYPE" speedFactor="1.11" vaporized=""/>
    <tripinfo id="78" depart="330.00" departLane="top2C3_0" departPos="5.10" departSpeed="0.00" departDelay="0.00" arrival="409.00" arrivalLane="B3top1_0" arrivalPos="286.40" arrivalSpeed="13.33" duration="79.00" routeLength="858.56" waitingTime="2.00" waitingCount="2" stopTime="0.00" timeLoss="18.55" rerouteNo="0" devices="tripinfo_78" vType="DEFAULT_VEHTYPE" speedFactor="1.04" vaporized=""/>
    <tripinfo id="13" depart="64.00" departLane="right0D0_0" departPos="5.10" departSpeed="0.00" departDelay="0.00" arrival="415.00" arrivalLane="D3top3_0" arrivalPos="286.40" arrivalSpeed="12.61" duration="351.00" routeLength="1479.94" waitingTime="208.00" waitingCount="3" stopTime="0.00" timeLoss="234.77" rerouteNo="0" devices="tripinfo_13" vType="DEFAULT_VEHTYPE" speedFactor="0.92" vaporized=""/>
    <tripinfo id="31" depart="149.00" departLane="bottom3D0_0" departPos="5.10" departSpeed="0.00" departDelay="0.00" arrival="416.00" arrivalLane="D3right3_0" arrivalPos="286.40" arrivalSpeed="12.09" duration="267.00" routeLength="1477.24" waitingTime="125.00" waitingCount="3" stopTime="0.00" timeLoss="154.93" rerouteNo="0" devices="tripinfo_31" vType="DEFAULT_VEHTYPE" speedFactor="0.95" vaporized=""/>
    <tripinfo id="29" depart="135.00" departLane="right3D3_0" departPos="5.10" departSpeed="0.00" departDelay="0.00" arrival="432.00" arrivalLane="D1right1_0" arrivalPos="286.40" arrivalSpeed="11.69" duration="297.00" routeLength="1197.66" waitingTime="181.00" waitingCount="3" stopTime="0.00" timeLoss="201.37" rerouteNo="0" devices="tripinfo_29" vType="DEFAULT_VEHTYPE" speedFactor="0.92" vaporized=""/>
    <tripinfo id="12" depart="63.00" departLane="top1B3_0" departPos="5.10" departSpeed="0.00" departDelay="0.00" arrival="433.00" arrivalLane="C0bottom2_1" arrivalPos="286.40" arrivalSpeed="11.71" duration="370.00" routeLength="1782.59" waitingTime="207.00" waitingCount="2" stopTime="0.00" timeLoss="230.39" rerouteNo="0" devices="tripinfo_12" vType="DEFAULT_VEHTYPE" speedFactor="0.93" vaporized=""/>
    <tripinfo id="30" depart="147.00" departLane="top0A3_0" departPos="5.10" departSpeed="0.00" departDelay="0.00" arrival="433.00" arrivalLane="C0bottom2_2" arrivalPos="286.40" arrivalSpeed="13.91" duration="286.00" routeLength="2080.05" waitingTime="112.00" waitingCount="3" stopTime="0.00" timeLoss="139.56" rerouteNo="0" devices="tripinfo_30" vType="DEFAULT_VEHTYPE" speedFactor="1.03" vaporized=""/>
    <tripinfo id="23" depart="90.00" departLane="left1A1_0" departPos="5.10" departSpeed="0.00" departDelay="0.00" arrival="435.00" arrivalLane="C0bottom2_0" arrivalPos="286.40" arrivalSpeed="10.54" duration="345.00" routeLength="1479.94" waitingTime="187.00" waitingCount="2" stopTime="0.00" timeLoss="207.67" rerouteNo="0" devices="tripinfo_23" vType="DEFAULT_VEHTYPE" speedFactor="0.78" vaporized=""/>
    <tripinfo id="20" depart="87.00" departLane="right1D1_0" departPos="5.10" departSpeed="0.00" departDelay="0.00" arrival="460.00" arrivalLane="A0left0_0" arrivalPos="286.40" arrivalSpeed="14.30" duration="373.00" routeLength="1782.59" waitingTime="220.00" waitingCount="4" stopTime="0.00" timeLoss="248.75" rerouteNo="0" devices="tripinfo_20" vType="DEFAULT_VEHTYPE" speedFactor="1.05" vaporized=""/>
    <tripinfo id="26" depart="121.00" departLane="bottom2C0_0" departPos="5.10" departSpeed="0.00" departDelay="0.00" arrival="460.00" arrivalLane="A0left0_1" arrivalPos="286.40" arrivalSpeed="15.46" duration="339.00" routeLength="1195.18" waitingTime="240.00" waitingCount="2" stopTime="0.00" timeLoss="262.58" rerouteNo="0" devices="tripinfo_26" vType="DEFAULT_VEHTYPE" speedFactor="1.14" vaporized=""/>
    <tripinfo id="64" depart="276.00" departLane="right0D0_0" departPos="5.10" departSpeed="0.00" departDelay="0.00" arrival="463.00" arrivalLane="A0bottom0_0" arrivalPos="286.40" arrivalSpeed="14.07" duration="187.00" routeLength="1498.06" waitingTime="71.00" waitingCount="1" stopTime="0.00" timeLoss="85.39" rerouteNo="0" devices="tripinfo_64" vType="DEFAULT_VEHTYPE" speedFactor="1.07" vaporized=""/>
    <tripinfo id="82" depart="340.00" departLane="left2A2_0" departPos="5.10" departSpeed="0.00" departDelay="0.00" arrival="470.00" arrivalLane="A3top0_0" arrivalPos="286.40" arrivalSpeed="13.77" duration="130.00" routeLength="895.01" waitingTime="54.00" waitingCount="1" stopTime="0.00" timeLoss="66.22" rerouteNo="0" devices="tripinfo_82" vType="DEFAULT_VEHTYPE" speedFactor="1.02" vaporized=""/>
    <tripinfo id="89" depart="386.00" departLane="left2A2_0" departPos="5.10" departSpeed="0.00" departDelay="0.00" arrival="473.00" arrivalLane="A3top0_0" arrivalPos="286.40" arrivalSpeed="12.91" duration="87.00" routeLength="895.01" waitingTime="11.00" waitingCount="1" stopTime="0.00" timeLoss="22.17" rerouteNo="0" devices="tripinfo_89" vType="DEFAULT_VEHTYPE" speedFactor="1.01" vaporized=""/>
    <tripinfo id="62" depart="276.00" departLane="left1A1_0" departPos="5.10" departSpeed="0.00" departDelay="2.00" arrival="481.00" arrivalLane="A2left2_0" arrivalPos="286.40" arrivalSpeed="11.94" duration="205.00" routeLength="894.86" waitingTime="115.00" waitingCount="2" stopTime="0.00" timeLoss="133.40" rerouteNo="0" devices="tripinfo_62" vType="DEFAULT_VEHTYPE" speedFactor="0.91" vaporized=""/>
    <tripinfo id="96" depart="425.00" departLane="left1A1_0" departPos="5.10" departSpeed="0.00" departDelay="0.00" arrival="504.00" arrivalLane="A0left0_0" arrivalPos="286.40" arrivalSpeed="14.40" duration="79.00" routeLength="858.56" waitingTime="2.00" waitingCount="2" stopTime="0.00" timeLoss="19.72" rerouteNo="0" devices="tripinfo_96" vType="DEFAULT_VEHTYPE" speedFactor="1.07" vaporized=""/>
    <tripinfo id="35" depart="156.00" departLane="right1D1_0" departPos="5.10" departSpeed="0.00" departDelay="0.00" arrival="506.00" arrivalLane="D0bottom3_0" arrivalPos="286.40" arrivalSpeed="15.34" duration="350.00" routeLength="895.01" waitingTime="277.00" waitingCount="2" stopTime="0.00" timeLoss="295.32" rerouteNo="0" devices="tripinfo_35" vType="DEFAULT_VEHTYPE" speedFactor="1.20" vaporized=""/>
    <tripinfo id="54" depart="234.00" departLane="right1D1_0" departPos="5.10" departSpeed="0.00" departDelay="0.00" arrival="510.00" arrivalLane="D0bottom3_0" arrivalPos="286.40" arrivalSpeed="14.47" duration="276.00" routeLength="895.01" waitingTime="196.00" waitingCount="2" stopTime="0.00" timeLoss="214.27" rerouteNo="0" devices="tripinfo_54" vType="DEFAULT_VEHTYPE" speedFactor="1.05" vaporized=""/>
    <tripinfo id="67" depart="285.00" departLane="top0A3_0" departPos="5.10" departSpeed="0.00" departDelay="0.00" arrival="511.00" arrivalLane="D0bottom3_1" arrivalPos="286.40" arrivalSpeed="14.62" duration="226.00" routeLength="2380.22" waitingTime="37.00" waitingCount="3" stopTime="0.00" timeLoss="66.55" rerouteNo="0" devices="tripinfo_67" vType="DEFAULT_VEHTYPE" speedFactor="1.08" vaporized=""/>
    <tripinfo id="60" depart="264.00" departLane="top2C3_0" departPos="5.10" departSpeed="0.00" departDelay="0.00" arrival="526.00" arrivalLane="A3top0_0" arrivalPos="286.40" arrivalSpeed="12.83" duration="262.00" routeLength="1161.43" waitingTime="160.00" waitingCount="2" stopTime="0.00" timeLoss="177.92" rerouteNo="0" devices="tripinfo_60" vType="DEFAULT_VEHTYPE" speedFactor="1.01" vaporized=""/>
    <tripinfo id="46" depart="196.00" departLane="left0A0_0" departPos="5.10" departSpeed="0.00" departDelay="0.00" arrival="540.00" arrivalLane="A3left3_0" arrivalPos="286.40" arrivalSpeed="12.42" duration="344.00" routeLength="1497.83" waitingTime="199.00" waitingCount="4" stopTime="0.00" timeLoss="233.61" rerouteNo="0" devices="tripinfo_46" vType="DEFAULT_VEHTYPE" speedFactor="0.99" vaporized=""/>
    <tripinfo id="72" depart="306.00" departLane="right3D3_0" departPos="5.10" departSpeed="0.00" departDelay="0.00" arrival="543.00" arrivalLane="B3top1_0" arrivalPos="286.40" arrivalSpeed="15.21" duration="237.00" routeLength="1177.07" waitingTime="141.00" waitingCount="2" stopTime="0.00" timeLoss="160.73" rerouteNo="0" devices="tripinfo_72" vType="DEFAULT_VEHTYPE" speedFactor="1.12" vaporized=""/>
    <tripinfo id="91" depart="402.00" departLane="bottom0A0_0" departPos="5.10" departSpeed="0.00" departDelay="0.00" arrival="544.00" arrivalLane="C0bottom2_0" arrivalPos="286.40" arrivalSpeed="14.96" duration="142.00" routeLength="1161.43" waitingTime="39.00" waitingCount="3" stopTime="0.00" timeLoss="65.30" rerouteNo="0" devices="tripinfo_91" vType="DEFAULT_VEHTYPE" speedFactor="1.11" vaporized=""/>
    <tripinfo id="77" depart="329.00" departLane="left3A3_0" departPos="5.10" departSpeed="0.00" departDelay="0.00" arrival="560.00" arrivalLane="A0left0_0" arrivalPos="286.40" arrivalSpeed="16.28" duration="231.00" routeLength="1461.60" waitingTime="116.00" waitingCount="3" stopTime="0.00" timeLoss="141.64" rerouteNo="0" devices="tripinfo_77" vType="DEFAULT_VEHTYPE" speedFactor="1.20" vaporized=""/>
    <tripinfo id="112" depart="478.00" departLane="bottom0A0_0" departPos="5.10" departSpeed="0.00" departDelay="0.00" arrival="562.00" arrivalLane="B0bottom1_0" arrivalPos="286.40" arrivalSpeed="11.88" duration="84.00" routeLength="858.56" waitingTime="1.00" waitingCount="1" stopTime="0.00" timeLoss="13.77" rerouteNo="0" devices="tripinfo_112" vType="DEFAULT_VEHTYPE" speedFactor="0.90" vaporized=""/>
    <tripinfo id="57" depart="254.00" departLane="top0A3_0" departPos="5.10" departSpeed="0.00" departDelay="0.00" arrival="563.00" arrivalLane="B3top1_0" arrivalPos="286.40" arrivalSpeed="13.65" duration="309.00" routeLength="894.86" waitingTime="232.00" waitingCount="1" stopTime="0.00" timeLoss="242.49" rerouteNo="0" devices="tripinfo_57" vType="DEFAULT_VEHTYPE" speedFactor="0.99" vaporized=""/>
    <tripinfo id="3" depart="16.00" departLane="left1A1_0" departPos="5.10" departSpeed="0.00" departDelay="0.00" arrival="568.00" arrivalLane="C3top2_0" arrivalPos="286.40" arrivalSpeed="14.63" duration="552.00" routeLength="1795.52" waitingTime="399.00" waitingCount="4" stopTime="0.00" timeLoss="430.48" rerouteNo="0" devices="tripinfo_3" vType="DEFAULT_VEHTYPE" speedFactor="1.07" vaporized=""/>
    <tripinfo id="28" depart="134.00" departLane="right0D0_0" departPos="5.10" departSpeed="0.00" departDelay="0.00" arrival="581.00" arrivalLane="A1left1_0" arrivalPos="286.40" arrivalSpeed="11.90" duration="447.00" routeLength="1782.72" waitingTime="277.00" waitingCount="4" stopTime="0.00" timeLoss="308.14" rerouteNo="0" devices="tripinfo_28" vType="DEFAULT_VEHTYPE" speedFactor="0.94" vaporized=""/>
    <tripinfo id="93" depart="418.00" departLane="top0A3_0" departPos="5.10" departSpeed="0.00" departDelay="0.00" arrival="589.00" arrivalLane="B3top1_0" arrivalPos="286.40" arrivalSpeed="12.56" duration="171.00" routeLength="894.86" waitingTime="89.00" waitingCount="2" stopTime="0.00" timeLoss="104.33" rerouteNo="0" devices="tripinfo_93" vType="DEFAULT_VEHTYPE" speedFactor="0.98" vaporized=""/>
    <tripinfo id="101" depart="441.00" departLane="left0A0_0" departPos="5.10" departSpeed="0.00" departDelay="0.00" arrival="591.00" arrivalLane="A1left1_0" arrivalPos="286.40" arrivalSpeed="12.62" duration="150.00" routeLength="894.86" waitingTime="64.00" waitingCount="2" stopTime="0.00" timeLoss="79.49" rerouteNo="0" devices="tripinfo_101" vType="DEFAULT_VEHTYPE" speedFactor="0.94" vaporized=""/>
    <tripinfo id="100" depart="437.00" departLane="top2C3_0" departPos="5.10" departSpeed="0.00" departDelay="0.00" arrival="596.00" arrivalLane="A3top0_0" arrivalPos="286.40" arrivalSpeed="13.44" duration="159.00" routeLength="1161.43" waitingTime="54.00" waitingCount="3" stopTime="0.00" timeLoss="77.53" rerouteNo="0" devices="tripinfo_100" vType="DEFAULT_VEHTYPE" speedFactor="1.05" vaporized=""/>
    <tripinfo id="90" depart="393.00" departLane="left1A1_0" departPos="5.10" departSpeed="0.00" departDelay="0.00" arrival="597.00" arrivalLane="A1left1_0" arrivalPos="286.40" arrivalSpeed="10.40" duration="204.00" routeLength="1748.75" waitingTime="12.00" waitingCount="4" stopTime="0.00" timeLoss="45.46" rerouteNo="0" devices="tripinfo_90" vType="DEFAULT_VEHTYPE" speedFactor="0.81" vaporized=""/>
    <tripinfo id="6" depart="28.00" departLane="top2C3_0" departPos="5.10" departSpeed="0.00" departDelay="0.00" arrival="609.00" arrivalLane="D1right1_0" arrivalPos="286.40" arrivalSpeed="13.45" duration="581.00" routeLength="1495.35" waitingTime="450.00" waitingCount="3" stopTime="0.00" timeLoss="473.10" rerouteNo="0" devices="tripinfo_6" vType="DEFAULT_VEHTYPE" speedFactor="1.01" vaporized=""/>
    <tripinfo id="58" depart="260.00" departLane="top2C3_0" departPos="5.10" departSpeed="0.00" departDelay="0.00" arrival="614.00" arrivalLane="D1right1_0" arrivalPos="286.40" arrivalSpeed="11.59" duration="354.00" routeLength="1495.35" waitingTime="204.00" waitingCount="3" stopTime="0.00" timeLoss="233.14" rerouteNo="0" devices="tripinfo_58" vType="DEFAULT_VEHTYPE" speedFactor="0.90" vaporized=""/>
    <tripinfo id="83" depart="341.00" departLane="bottom1B0_0" departPos="5.10" departSpeed="0.00" departDelay="0.00" arrival="616.00" arrivalLane="A2left2_0" arrivalPos="286.40" arrivalSpeed="15.71" duration="275.00" routeLength="1495.35" waitingTime="160.00" waitingCount="2" stopTime="0.00" timeLoss="182.36" rerouteNo="0" devices="tripinfo_83" vType="DEFAULT_VEHTYPE" speedFactor="1.17" vaporized=""/>
    <tripinfo id="9" depart="48.00" departLane="right1D1_0" departPos="5.10" departSpeed="0.00" departDelay="0.00" arrival="626.00" arrivalLane="B3top1_0" arrivalPos="286.40" arrivalSpeed="11.50" duration="578.00" routeLength="1780.11" waitingTime="413.00" waitingCount="3" stopTime="0.00" timeLoss="436.42" rerouteNo="0" devices="tripinfo_9" vType="DEFAULT_VEHTYPE" speedFactor="0.91" vaporized=""/>
    <tripinfo id="94" depart="421.00" departLane="right0D0_0" departPos="5.10" departSpeed="0.00" departDelay="0.00" arrival="638.00" arrivalLane="B0bottom1_0" arrivalPos="286.40" arrivalSpeed="13.97" duration="217.00" routeLength="1197.89" waitingTime="122.00" waitingCount="1" stopTime="0.00" timeLoss="133.39" rerouteNo="0" devices="tripinfo_94" vType="DEFAULT_VEHTYPE" speedFactor="1.04" vaporized=""/>
    <tripinfo id="80" depart="335.00" departLane="bottom3D0_0" departPos="5.10" departSpeed="0.00" departDelay="0.00" arrival="640.00" arrivalLane="B0bottom1_1" arrivalPos="286.40" arrivalSpeed="14.09" duration="305.00" routeLength="1197.66" waitingTime="201.00" waitingCount="3" stopTime="0.00" timeLoss="224.77" rerouteNo="0" devices="tripinfo_80" vType="DEFAULT_VEHTYPE" speedFactor="1.09" vaporized=""/>
    <tripinfo id="115" depart="484.00" departLane="left0A0_0" departPos="5.10" departSpeed="0.00" departDelay="1.00" arrival="656.00" arrivalLane="A0left0_0" arrivalPos="286.40" arrivalSpeed="14.30" duration="172.00" routeLength="1745.91" waitingTime="17.00" waitingCount="5" stopTime="0.00" timeLoss="56.26" rerouteNo="0" devices="tripinfo_115" vType="DEFAULT_VEHTYPE" speedFactor="1.11" vaporized=""/>
    <tripinfo id="134" depart="546.00" departLane="left0A0_0" departPos="5.10" departSpeed="0.00" departDelay="0.00" arrival="668.00" arrivalLane="D0right0_0" arrivalPos="286.40" arrivalSpeed="12.20" duration="122.00" routeLength="1495.58" waitingTime="0.00" waitingCount="0" stopTime="0.00" timeLoss="9.75" rerouteNo="0" devices="tripinfo_134" vType="DEFAULT_VEHTYPE" speedFactor="0.96" vaporized=""/>
    <tripinfo id="114" depart="481.00" departLane="left0A0_0" departPos="5.10" departSpeed="0.00" departDelay="0.00" arrival="680.00" arrivalLane="A3top0_0" arrivalPos="286.40" arrivalSpeed="12.17" duration="199.00" routeLength="1495.35" waitingTime="60.00" waitingCount="3" stopTime="0.00" timeLoss="84.76" rerouteNo="0" devices="tripinfo_114" vType="DEFAULT_VEHTYPE" speedFactor="0.95" vaporized=""/>
    <tripinfo id="121" depart="494.00" departLane="left3A3_0" departPos="5.10" departSpeed="0.00" departDelay="0.00" arrival="681.00" arrivalLane="B3top1_0" arrivalPos="286.40" arrivalSpeed="13.95" duration="187.00" routeLength="897.72" waitingTime="115.00" waitingCount="1" stopTime="0.00" timeLoss="126.71" rerouteNo="0" devices="tripinfo_121" vType="DEFAULT_VEHTYPE" speedFactor="1.10" vaporized=""/>
    <tripinfo id="98" depart="430.00" departLane="bottom3D0_0" departPos="5.10" departSpeed="0.00" departDelay="0.00" arrival="685.00" arrivalLane="D1right1_0" arrivalPos="286.40" arrivalSpeed="12.91" duration="255.00" routeLength="876.90" waitingTime="173.00" waitingCount="2" stopTime="0.00" timeLoss="190.98" rerouteNo="0" devices="tripinfo_98" vType="DEFAULT_VEHTYPE" speedFactor="1.01" vaporized=""/>
    <tripinfo id="99" depart="436.00" departLane="bottom3D0_0" departPos="5.10" departSpeed="0.00" departDelay="0.00" arrival="687.00" arrivalLane="D1right1_0" arrivalPos="286.40" arrivalSpeed="13.48" duration="251.00" routeLength="876.90" waitingTime="169.00" waitingCount="1" stopTime="0.00" timeLoss="187.02" rerouteNo="0" devices="tripinfo_99" vType="DEFAULT_VEHTYPE" speedFactor="1.01" vaporized=""/>
    <tripinfo id="150" depart="604.00" departLane="top3D3_0" departPos="5.10" departSpeed="0.00" departDelay="0.00" arrival="714.00" arrivalLane="B3top1_0" arrivalPos="286.40" arrivalSpeed="11.76" duration="110.00" routeLength="1161.43" waitingTime="2.00" waitingCount="2" stopTime="0.00" timeLoss="17.87" rerouteNo="0" devices="tripinfo_150" vType="DEFAULT_VEHTYPE" speedFactor="0.93" vaporized=""/>
    <tripinfo id="155" depart="623.00" departLane="top3D3_0" departPos="5.10" departSpeed="0.00" departDelay="0.00" arrival="717.00" arrivalLane="B3top1_0" arrivalPos="286.40" arrivalSpeed="15.73" duration="94.00" routeLength="1161.43" waitingTime="2.00" waitingCount="2" stopTime="0.00" timeLoss="19.93" rerouteNo="0" devices="tripinfo_155" vType="DEFAULT_VEHTYPE" speedFactor="1.15" vaporized=""/>
    <tripinfo id="124" depart="512.00" departLane="top0A3_0" departPos="5.10" departSpeed="0.00" departDelay="0.00" arrival="731.00" arrivalLane="B3top1_0" arrivalPos="286.40" arrivalSpeed="10.11" duration="219.00" routeLength="894.86" waitingTime="119.00" waitingCount="1" stopTime="0.00" timeLoss="131.59" rerouteNo="0" devices="tripinfo_124" vType="DEFAULT_VEHTYPE" speedFactor="0.75" vaporized=""/>
    <tripinfo id="122" depart="503.00" departLane="left2A2_0" departPos="5.10" departSpeed="0.00" departDelay="0.00" arrival="759.00" arrivalLane="A2left2_0" arrivalPos="286.40" arrivalSpeed="13.70" duration="256.00" routeLength="1748.75" waitingTime="100.00" waitingCount="3" stopTime="0.00" timeLoss="129.25" rerouteNo="0" devices="tripinfo_122" vType="DEFAULT_VEHTYPE" speedFactor="1.01" vaporized=""/>
    <tripinfo id="132" depart="536.00" departLane="right3D3_0" departPos="5.10" departSpeed="0.00" departDelay="0.00" arrival="769.00" arrivalLane="C3top2_0" arrivalPos="286.40" arrivalSpeed="12.40" duration="233.00" routeLength="876.90" waitingTime="151.00" waitingCount="1" stopTime="0.00" timeLoss="166.33" rerouteNo="0" devices="tripinfo_132" vType="DEFAULT_VEHTYPE" speedFactor="0.97" vaporized=""/>
    <tripinfo id="120" depart="490.00" departLane="left1A1_0" departPos="5.10" departSpeed="0.00" departDelay="0.00" arrival="781.00" arrivalLane="D1right1_1" arrivalPos="286.40" arrivalSpeed="13.53" duration="291.00" routeLength="1495.58" waitingTime="153.00" waitingCount="3" stopTime="0.00" timeLoss="187.91" rerouteNo="0" devices="tripinfo_120" vType="DEFAULT_VEHTYPE" speedFactor="1.05" vaporized=""/>
    <tripinfo id="65" depart="282.00" departLane="bottom2C0_0" departPos="5.10" departSpeed="0.00" departDelay="0.00" arrival="786.00" arrivalLane="D1right1_1" arrivalPos="286.40" arrivalSpeed="12.29" duration="504.00" routeLength="1179.77" waitingTime="378.00" waitingCount="3" stopTime="0.00" timeLoss="407.05" rerouteNo="0" devices="tripinfo_65" vType="DEFAULT_VEHTYPE" speedFactor="0.89" vaporized=""/>
    <tripinfo id="92" depart="409.00" departLane="left2A2_0" departPos="5.10" departSpeed="0.00" departDelay="0.00" arrival="786.00" arrivalLane="D1right1_0" arrivalPos="286.40" arrivalSpeed="10.20" duration="377.00" routeLength="1782.72" waitingTime="178.00" waitingCount="4" stopTime="0.00" timeLoss="205.78" rerouteNo="0" devices="tripinfo_92" vType="DEFAULT_VEHTYPE" speedFactor="0.76" vaporized=""/>
    <tripinfo id="71" depart="300.00" departLane="top0A3_0" departPos="5.10" departSpeed="0.00" departDelay="0.00" arrival="798.00" arrivalLane="D0bottom3_0" arrivalPos="286.40" arrivalSpeed="14.35" duration="498.00" routeLength="2380.22" waitingTime="308.00" waitingCount="3" stopTime="0.00" timeLoss="333.93" rerouteNo="0" devices="tripinfo_71" vType="DEFAULT_VEHTYPE" speedFactor="1.05" vaporized=""/>
    <tripinfo id="86" depart="356.00" departLane="top3D3_0" departPos="5.10" departSpeed="0.00" departDelay="0.00" arrival="800.00" arrivalLane="D3right3_0" arrivalPos="286.40" arrivalSpeed="13.26" duration="444.00" routeLength="597.55" waitingTime="388.00" waitingCount="1" stopTime="0.00" timeLoss="399.13" rerouteNo="0" devices="tripinfo_86" vType="DEFAULT_VEHTYPE" speedFactor="0.98" vaporized=""/>
    <tripinfo id="154" depart="615.00" departLane="left3A3_0" departPos="5.10" departSpeed="0.00" departDelay="0.00" arrival="800.00" arrivalLane="A1left1_0" arrivalPos="286.40" arrivalSpeed="12.81" duration="185.00" routeLength="1161.43" waitingTime="70.00" waitingCount="3" stopTime="0.00" timeLoss="94.10" rerouteNo="0" devices="tripinfo_154" vType="DEFAULT_VEHTYPE" speedFactor="0.94" vaporized=""/>