<?xml version="1.0" encoding="UTF-8"?>

<!-- generated on 2023-08-30 13:16:23 by Eclipse SUMO libsumo Version 1.18.0
<configuration xmlns:xsi="http://www.w3.org/2001/XMLSchema-instance" xsi:noNamespaceSchemaLocation="http://sumo.dlr.de/xsd/libsumoConfiguration.xsd">

    <input>
        <net-file value="/home/stefan/RESCO/./environments/grid4x4/grid4x4.net.xml"/>
        <route-files value="/home/stefan/RESCO/./environments/grid4x4/grid4x4_35.rou.xml"/>
    </input>

    <output>
        <tripinfo-output value="/home/stefan/results/RAINBOW-tr0-grid4x4-0-drq_norm-wait_norm/tripinfo_35.xml"/>
        <tripinfo-output.write-unfinished value="true"/>
    </output>

    <processing>
        <time-to-teleport value="-1"/>
    </processing>

    <report>
        <no-warnings value="True"/>
        <no-step-log value="True"/>
    </report>

    <random_number>
        <random value="true"/>
    </random_number>

</configuration>
-->

<tripinfos xmlns:xsi="http://www.w3.org/2001/XMLSchema-instance" xsi:noNamespaceSchemaLocation="http://sumo.dlr.de/xsd/tripinfo_file.xsd">
    <tripinfo id="11" depart="38.00" departLane="bottom3D0_0" departPos="5.10" departSpeed="0.00" departDelay="0.00" arrival="86.00" arrivalLane="D0right0_0" arrivalPos="286.40" arrivalSpeed="14.18" duration="48.00" routeLength="576.73" waitingTime="0.00" waitingCount="0" stopTime="0.00" timeLoss="6.75" rerouteNo="0" devices="tripinfo_11" vType="DEFAULT_VEHTYPE" speedFactor="1.03" vaporized=""/>
    <tripinfo id="8" depart="22.00" departLane="left2A2_0" departPos="5.10" departSpeed="0.00" departDelay="0.00" arrival="90.00" arrivalLane="A1left1_0" arrivalPos="286.40" arrivalSpeed="13.85" duration="68.00" routeLength="858.56" waitingTime="0.00" waitingCount="0" stopTime="0.00" timeLoss="9.32" rerouteNo="0" devices="tripinfo_8" vType="DEFAULT_VEHTYPE" speedFactor="1.08" vaporized=""/>
    <tripinfo id="4" depart="14.00" departLane="bottom1B0_0" departPos="5.10" departSpeed="0.00" departDelay="2.00" arrival="134.00" arrivalLane="D0bottom3_0" arrivalPos="286.40" arrivalSpeed="11.01" duration="120.00" routeLength="1161.43" waitingTime="1.00" waitingCount="1" stopTime="0.00" timeLoss="17.93" rerouteNo="0" devices="tripinfo_4" vType="DEFAULT_VEHTYPE" speedFactor="0.84" vaporized=""/>
    <tripinfo id="12" depart="47.00" departLane="left2A2_0" departPos="5.10" departSpeed="0.00" departDelay="0.00" arrival="164.00" arrivalLane="A0left0_0" arrivalPos="286.40" arrivalSpeed="12.85" duration="117.00" routeLength="1161.43" waitingTime="11.00" waitingCount="2" stopTime="0.00" timeLoss="29.39" rerouteNo="0" devices="tripinfo_12" vType="DEFAULT_VEHTYPE" speedFactor="0.97" vaporized=""/>
    <tripinfo id="22" depart="97.00" departLane="top2C3_0" departPos="5.10" departSpeed="0.00" departDelay="0.00" arrival="182.00" arrivalLane="B3top1_0" arrivalPos="286.40" arrivalSpeed="12.55" duration="85.00" routeLength="858.56" waitingTime="2.00" waitingCount="2" stopTime="0.00" timeLoss="17.81" rerouteNo="0" devices="tripinfo_22" vType="DEFAULT_VEHTYPE" speedFactor="0.94" vaporized=""/>
    <tripinfo id="16" depart="80.00" departLane="bottom1B0_0" departPos="5.10" departSpeed="0.00" departDelay="0.00" arrival="183.00" arrivalLane="A0bottom0_0" arrivalPos="286.40" arrivalSpeed="11.57" duration="103.00" routeLength="894.86" waitingTime="15.00" waitingCount="1" stopTime="0.00" timeLoss="26.65" rerouteNo="0" devices="tripinfo_16" vType="DEFAULT_VEHTYPE" speedFactor="0.86" vaporized=""/>
    <tripinfo id="17" depart="83.00" departLane="bottom0A0_0" departPos="5.10" departSpeed="0.00" departDelay="0.00" arrival="198.00" arrivalLane="C0bottom2_0" arrivalPos="286.40" arrivalSpeed="15.56" duration="115.00" routeLength="1161.43" waitingTime="24.00" waitingCount="1" stopTime="0.00" timeLoss="41.47" rerouteNo="0" devices="tripinfo_17" vType="DEFAULT_VEHTYPE" speedFactor="1.16" vaporized=""/>
    <tripinfo id="0" depart="3.00" departLane="bottom3D0_0" departPos="5.10" departSpeed="0.00" departDelay="0.00" arrival="205.00" arrivalLane="A0left0_0" arrivalPos="286.40" arrivalSpeed="12.94" duration="202.00" routeLength="1495.35" waitingTime="63.00" waitingCount="3" stopTime="0.00" timeLoss="88.22" rerouteNo="0" devices="tripinfo_0" vType="DEFAULT_VEHTYPE" speedFactor="0.96" vaporized=""/>
    <tripinfo id="20" depart="95.00" departLane="left1A1_0" departPos="5.10" departSpeed="0.00" departDelay="0.00" arrival="223.00" arrivalLane="A2left2_0" arrivalPos="286.40" arrivalSpeed="11.00" duration="128.00" routeLength="894.86" waitingTime="36.00" waitingCount="2" stopTime="0.00" timeLoss="51.86" rerouteNo="0" devices="tripinfo_20" vType="DEFAULT_VEHTYPE" speedFactor="0.87" vaporized=""/>
    <tripinfo id="36" depart="152.00" departLane="right0D0_0" departPos="5.10" departSpeed="0.00" departDelay="2.00" arrival="226.00" arrivalLane="D1right1_0" arrivalPos="286.40" arrivalSpeed="14.05" duration="74.00" routeLength="858.56" waitingTime="1.00" waitingCount="1" stopTime="0.00" timeLoss="15.49" rerouteNo="0" devices="tripinfo_36" vType="DEFAULT_VEHTYPE" speedFactor="1.09" vaporized=""/>
    <tripinfo id="2" depart="6.00" departLane="bottom2C0_0" departPos="5.10" departSpeed="0.00" departDelay="0.00" arrival="228.00" arrivalLane="C0bottom2_0" arrivalPos="286.40" arrivalSpeed="14.30" duration="222.00" routeLength="1748.75" waitingTime="62.00" waitingCount="5" stopTime="0.00" timeLoss="99.52" rerouteNo="0" devices="tripinfo_2" vType="DEFAULT_VEHTYPE" speedFactor="1.05" vaporized=""/>
    <tripinfo id="15" depart="73.00" departLane="top3D3_0" departPos="5.10" departSpeed="0.00" departDelay="1.00" arrival="234.00" arrivalLane="D3top3_0" arrivalPos="286.40" arrivalSpeed="17.41" duration="161.00" routeLength="1748.75" waitingTime="22.00" waitingCount="5" stopTime="0.00" timeLoss="63.42" rerouteNo="0" devices="tripinfo_15" vType="DEFAULT_VEHTYPE" speedFactor="1.32" vaporized=""/>
    <tripinfo id="24" depart="98.00" departLane="left1A1_0" departPos="5.10" departSpeed="0.00" departDelay="0.00" arrival="240.00" arrivalLane="A3top0_0" arrivalPos="286.40" arrivalSpeed="14.12" duration="142.00" routeLength="1195.18" waitingTime="40.00" waitingCount="2" stopTime="0.00" timeLoss="61.84" rerouteNo="0" devices="tripinfo_24" vType="DEFAULT_VEHTYPE" speedFactor="1.08" vaporized=""/>
    <tripinfo id="47" depart="189.00" departLane="bottom3D0_0" departPos="5.10" departSpeed="0.00" departDelay="0.00" arrival="240.00" arrivalLane="D0right0_0" arrivalPos="286.40" arrivalSpeed="14.72" duration="51.00" routeLength="576.73" waitingTime="1.00" waitingCount="1" stopTime="0.00" timeLoss="12.32" rerouteNo="0" devices="tripinfo_47" vType="DEFAULT_VEHTYPE" speedFactor="1.11" vaporized=""/>
    <tripinfo id="35" depart="149.00" departLane="right0D0_0" departPos="5.10" departSpeed="0.00" departDelay="0.00" arrival="253.00" arrivalLane="B0bottom1_0" arrivalPos="286.40" arrivalSpeed="12.49" duration="104.00" routeLength="1197.89" waitingTime="0.00" waitingCount="0" stopTime="0.00" timeLoss="8.17" rerouteNo="0" devices="tripinfo_35" vType="DEFAULT_VEHTYPE" speedFactor="0.91" vaporized=""/>
    <tripinfo id="1" depart="5.00" departLane="right3D3_0" departPos="5.10" departSpeed="0.00" departDelay="0.00" arrival="257.00" arrivalLane="D0bottom3_0" arrivalPos="286.40" arrivalSpeed="12.06" duration="252.00" routeLength="1495.35" waitingTime="107.00" waitingCount="3" stopTime="0.00" timeLoss="130.43" rerouteNo="0" devices="tripinfo_1" vType="DEFAULT_VEHTYPE" speedFactor="0.89" vaporized=""/>
    <tripinfo id="49" depart="199.00" departLane="bottom1B0_0" departPos="5.10" departSpeed="0.00" departDelay="0.00" arrival="278.00" arrivalLane="C0bottom2_0" arrivalPos="286.40" arrivalSpeed="13.66" duration="79.00" routeLength="858.56" waitingTime="2.00" waitingCount="2" stopTime="0.00" timeLoss="16.72" rerouteNo="0" devices="tripinfo_49" vType="DEFAULT_VEHTYPE" speedFactor="1.02" vaporized=""/>
    <tripinfo id="52" depart="209.00" departLane="left2A2_0" departPos="5.10" departSpeed="0.00" departDelay="0.00" arrival="280.00" arrivalLane="A1left1_0" arrivalPos="286.40" arrivalSpeed="15.09" duration="71.00" routeLength="858.56" waitingTime="0.00" waitingCount="0" stopTime="0.00" timeLoss="13.18" rerouteNo="0" devices="tripinfo_52" vType="DEFAULT_VEHTYPE" speedFactor="1.10" vaporized=""/>
    <tripinfo id="7" depart="21.00" departLane="left3A3_0" departPos="5.10" departSpeed="0.00" departDelay="0.00" arrival="284.00" arrivalLane="A3left3_0" arrivalPos="286.40" arrivalSpeed="11.99" duration="263.00" routeLength="1748.75" waitingTime="95.00" waitingCount="3" stopTime="0.00" timeLoss="120.67" rerouteNo="0" devices="tripinfo_7" vType="DEFAULT_VEHTYPE" speedFactor="0.91" vaporized=""/>
    <tripinfo id="38" depart="156.00" departLane="bottom3D0_0" departPos="5.10" departSpeed="0.00" departDelay="0.00" arrival="296.00" arrivalLane="D1right1_0" arrivalPos="286.40" arrivalSpeed="13.37" duration="140.00" routeLength="876.90" waitingTime="56.00" waitingCount="2" stopTime="0.00" timeLoss="75.77" rerouteNo="0" devices="tripinfo_38" vType="DEFAULT_VEHTYPE" speedFactor="1.00" vaporized=""/>
    <tripinfo id="50" depart="205.00" departLane="left2A2_0" departPos="5.10" departSpeed="0.00" departDelay="0.00" arrival="302.00" arrivalLane="A0left0_0" arrivalPos="286.40" arrivalSpeed="13.45" duration="97.00" routeLength="1161.43" waitingTime="1.00" waitingCount="1" stopTime="0.00" timeLoss="15.11" rerouteNo="0" devices="tripinfo_50" vType="DEFAULT_VEHTYPE" speedFactor="1.04" vaporized=""/>
    <tripinfo id="29" depart="105.00" departLane="top0A3_0" departPos="5.10" departSpeed="0.00" departDelay="0.00" arrival="309.00" arrivalLane="A3top0_0" arrivalPos="286.40" arrivalSpeed="13.58" duration="204.00" routeLength="1745.91" waitingTime="54.00" waitingCount="3" stopTime="0.00" timeLoss="80.44" rerouteNo="0" devices="tripinfo_29" vType="DEFAULT_VEHTYPE" speedFactor="1.04" vaporized=""/>
    <tripinfo id="6" depart="18.00" departLane="left1A1_0" departPos="5.10" departSpeed="0.00" departDelay="0.00" arrival="317.00" arrivalLane="C0bottom2_0" arrivalPos="286.40" arrivalSpeed="14.97" duration="299.00" routeLength="1479.94" waitingTime="176.00" waitingCount="3" stopTime="0.00" timeLoss="202.23" rerouteNo="0" devices="tripinfo_6" vType="DEFAULT_VEHTYPE" speedFactor="1.11" vaporized=""/>
    <tripinfo id="43" depart="178.00" departLane="top1B3_0" departPos="5.10" departSpeed="0.00" departDelay="0.00" arrival="319.00" arrivalLane="A3left3_0" arrivalPos="286.40" arrivalSpeed="13.77" duration="141.00" routeLength="879.60" waitingTime="62.00" waitingCount="2" stopTime="0.00" timeLoss="78.37" rerouteNo="0" devices="tripinfo_43" vType="DEFAULT_VEHTYPE" speedFactor="1.03" vaporized=""/>
    <tripinfo id="13" depart="52.00" departLane="right2D2_0" departPos="5.10" departSpeed="0.00" departDelay="0.00" arrival="322.00" arrivalLane="A1left1_0" arrivalPos="286.40" arrivalSpeed="12.15" duration="270.00" routeLength="1782.59" waitingTime="91.00" waitingCount="5" stopTime="0.00" timeLoss="126.52" rerouteNo="0" devices="tripinfo_13" vType="DEFAULT_VEHTYPE" speedFactor="0.91" vaporized=""/>
    <tripinfo id="21" depart="96.00" departLane="bottom0A0_0" departPos="5.10" departSpeed="0.00" departDelay="0.00" arrival="322.00" arrivalLane="D1right1_0" arrivalPos="286.40" arrivalSpeed="10.67" duration="226.00" routeLength="1780.11" waitingTime="49.00" waitingCount="2" stopTime="0.00" timeLoss="72.03" rerouteNo="0" devices="tripinfo_21" vType="DEFAULT_VEHTYPE" speedFactor="0.84" vaporized=""/>
    <tripinfo id="25" depart="101.00" departLane="bottom2C0_0" departPos="5.10" departSpeed="0.00" departDelay="0.00" arrival="323.00" arrivalLane="A0left0_0" arrivalPos="286.40" arrivalSpeed="11.36" duration="222.00" routeLength="1195.18" waitingTime="104.00" waitingCount="1" stopTime="0.00" timeLoss="120.72" rerouteNo="0" devices="tripinfo_25" vType="DEFAULT_VEHTYPE" speedFactor="0.86" vaporized=""/>
    <tripinfo id="40" depart="170.00" departLane="right1D1_0" departPos="5.10" departSpeed="0.00" departDelay="0.00" arrival="332.00" arrivalLane="D0bottom3_0" arrivalPos="286.40" arrivalSpeed="13.12" duration="162.00" routeLength="895.01" waitingTime="86.00" waitingCount="1" stopTime="0.00" timeLoss="96.72" rerouteNo="0" devices="tripinfo_40" vType="DEFAULT_VEHTYPE" speedFactor="1.00" vaporized=""/>
    <tripinfo id="34" depart="147.00" departLane="top1B3_0" departPos="5.10" departSpeed="0.00" departDelay="0.00" arrival="337.00" arrivalLane="D3top3_0" arrivalPos="286.40" arrivalSpeed="9.42" duration="190.00" routeLength="1197.66" waitingTime="55.00" waitingCount="3" stopTime="0.00" timeLoss="75.67" rerouteNo="0" devices="tripinfo_34" vType="DEFAULT_VEHTYPE" speedFactor="0.77" vaporized=""/>
    <tripinfo id="23" depart="97.00" departLane="right1D1_0" departPos="5.10" departSpeed="0.00" departDelay="0.00" arrival="345.00" arrivalLane="A0bottom0_0" arrivalPos="286.40" arrivalSpeed="11.59" duration="248.00" routeLength="1795.52" waitingTime="84.00" waitingCount="3" stopTime="0.00" timeLoss="107.95" rerouteNo="0" devices="tripinfo_23" vType="DEFAULT_VEHTYPE" speedFactor="0.93" vaporized=""/>
    <tripinfo id="42" depart="176.00" departLane="right3D3_0" departPos="5.10" departSpeed="0.00" departDelay="0.00" arrival="355.00" arrivalLane="D0right0_0" arrivalPos="286.40" arrivalSpeed="13.56" duration="179.00" routeLength="1497.83" waitingTime="43.00" waitingCount="1" stopTime="0.00" timeLoss="68.27" rerouteNo="0" devices="tripinfo_42" vType="DEFAULT_VEHTYPE" speedFactor="0.99" vaporized=""/>
    <tripinfo id="9" depart="23.00" departLane="right0D0_0" departPos="5.10" departSpeed="0.00" departDelay="0.00" arrival="356.00" arrivalLane="A3left3_0" arrivalPos="286.40" arrivalSpeed="16.22" duration="333.00" routeLength="2382.93" waitingTime="140.00" waitingCount="5" stopTime="0.00" timeLoss="190.83" rerouteNo="0" devices="tripinfo_9" vType="DEFAULT_VEHTYPE" speedFactor="1.22" vaporized=""/>
    <tripinfo id="37" depart="155.00" departLane="right3D3_0" departPos="5.10" departSpeed="0.00" departDelay="0.00" arrival="356.00" arrivalLane="D0bottom3_0" arrivalPos="286.40" arrivalSpeed="11.65" duration="201.00" routeLength="1495.35" waitingTime="62.00" waitingCount="1" stopTime="0.00" timeLoss="81.01" rerouteNo="0" devices="tripinfo_37" vType="DEFAULT_VEHTYPE" speedFactor="0.90" vaporized=""/>
    <tripinfo id="63" depart="245.00" departLane="right0D0_0" departPos="5.10" departSpeed="0.00" departDelay="0.00" arrival="356.00" arrivalLane="D2right2_0" arrivalPos="286.40" arrivalSpeed="14.62" duration="111.00" routeLength="1161.43" waitingTime="10.00" waitingCount="3" stopTime="0.00" timeLoss="30.34" rerouteNo="0" devices="tripinfo_63" vType="DEFAULT_VEHTYPE" speedFactor="1.06" vaporized=""/>
    <tripinfo id="48" depart="193.00" departLane="bottom0A0_0" departPos="5.10" departSpeed="0.00" departDelay="0.00" arrival="359.00" arrivalLane="A3top0_0" arrivalPos="286.40" arrivalSpeed="13.07" duration="166.00" routeLength="1495.58" waitingTime="32.00" waitingCount="2" stopTime="0.00" timeLoss="57.68" rerouteNo="0" devices="tripinfo_48" vType="DEFAULT_VEHTYPE" speedFactor="0.99" vaporized=""/>
    <tripinfo id="65" depart="266.00" departLane="left2A2_0" departPos="5.10" departSpeed="0.00" departDelay="0.00" arrival="361.00" arrivalLane="A3top0_1" arrivalPos="286.40" arrivalSpeed="13.84" duration="95.00" routeLength="895.01" waitingTime="12.00" waitingCount="2" stopTime="0.00" timeLoss="31.42" rerouteNo="0" devices="tripinfo_65" vType="DEFAULT_VEHTYPE" speedFactor="1.03" vaporized=""/>
    <tripinfo id="27" depart="104.00" departLane="bottom2C0_0" departPos="5.10" departSpeed="0.00" departDelay="0.00" arrival="379.00" arrivalLane="A0bottom0_0" arrivalPos="286.40" arrivalSpeed="13.38" duration="275.00" routeLength="1197.66" waitingTime="161.00" waitingCount="2" stopTime="0.00" timeLoss="188.60" rerouteNo="0" devices="tripinfo_27" vType="DEFAULT_VEHTYPE" speedFactor="1.02" vaporized=""/>
    <tripinfo id="31" depart="125.00" departLane="top0A3_0" departPos="5.10" departSpeed="0.00" departDelay="0.00" arrival="381.00" arrivalLane="A0left0_0" arrivalPos="286.40" arrivalSpeed="9.04" duration="256.00" routeLength="1477.24" waitingTime="87.00" waitingCount="2" stopTime="0.00" timeLoss="109.72" rerouteNo="0" devices="tripinfo_31" vType="DEFAULT_VEHTYPE" speedFactor="0.73" vaporized=""/>
    <tripinfo id="28" depart="107.00" departLane="bottom2C0_0" departPos="5.10" departSpeed="0.00" departDelay="3.00" arrival="382.00" arrivalLane="A0bottom0_0" arrivalPos="286.40" arrivalSpeed="12.85" duration="275.00" routeLength="1197.66" waitingTime="158.00" waitingCount="2" stopTime="0.00" timeLoss="185.52" rerouteNo="0" devices="tripinfo_28" vType="DEFAULT_VEHTYPE" speedFactor="0.98" vaporized=""/>
    <tripinfo id="19" depart="92.00" departLane="bottom3D0_0" departPos="5.10" departSpeed="0.00" departDelay="0.00" arrival="383.00" arrivalLane="A0bottom0_1" arrivalPos="286.40" arrivalSpeed="13.74" duration="291.00" routeLength="1497.83" waitingTime="155.00" waitingCount="2" stopTime="0.00" timeLoss="183.54" rerouteNo="0" devices="tripinfo_19" vType="DEFAULT_VEHTYPE" speedFactor="1.02" vaporized=""/>
    <tripinfo id="55" depart="218.00" departLane="bottom1B0_0" departPos="5.10" departSpeed="0.00" departDelay="0.00" arrival="387.00" arrivalLane="D1right1_0" arrivalPos="286.40" arrivalSpeed="14.91" duration="169.00" routeLength="1479.94" waitingTime="40.00" waitingCount="4" stopTime="0.00" timeLoss="69.63" rerouteNo="0" devices="tripinfo_55" vType="DEFAULT_VEHTYPE" speedFactor="1.08" vaporized=""/>
    <tripinfo id="73" depart="309.00" departLane="right2D2_0" departPos="5.10" departSpeed="0.00" departDelay="0.00" arrival="389.00" arrivalLane="D3right3_0" arrivalPos="286.40" arrivalSpeed="14.20" duration="80.00" routeLength="858.56" waitingTime="2.00" waitingCount="2" stopTime="0.00" timeLoss="19.42" rerouteNo="0" devices="tripinfo_73" vType="DEFAULT_VEHTYPE" speedFactor="1.03" vaporized=""/>
    <tripinfo id="14" depart="70.00" departLane="top3D3_0" departPos="5.10" departSpeed="0.00" departDelay="0.00" arrival="416.00" arrivalLane="C0bottom2_0" arrivalPos="286.40" arrivalSpeed="15.48" duration="346.00" routeLength="1782.72" waitingTime="201.00" waitingCount="4" stopTime="0.00" timeLoss="233.46" rerouteNo="0" devices="tripinfo_14" vType="DEFAULT_VEHTYPE" speedFactor="1.15" vaporized=""/>
    <tripinfo id="39" depart="167.00" departLane="left3A3_0" departPos="5.10" departSpeed="0.00" departDelay="0.00" arrival="419.00" arrivalLane="C3top2_1" arrivalPos="286.40" arrivalSpeed="15.35" duration="252.00" routeLength="1197.89" waitingTime="145.00" waitingCount="3" stopTime="0.00" timeLoss="173.89" rerouteNo="0" devices="tripinfo_39" vType="DEFAULT_VEHTYPE" speedFactor="1.12" vaporized=""/>
    <tripinfo id="10" depart="31.00" departLane="bottom0A0_0" departPos="5.10" departSpeed="0.00" departDelay="0.00" arrival="420.00" arrivalLane="C3top2_0" arrivalPos="286.40" arrivalSpeed="13.01" duration="389.00" routeLength="2082.76" waitingTime="197.00" waitingCount="3" stopTime="0.00" timeLoss="230.04" rerouteNo="0" devices="tripinfo_10" vType="DEFAULT_VEHTYPE" speedFactor="0.95" vaporized=""/>
    <tripinfo id="61" depart="242.00" departLane="top0A3_0" departPos="5.10" departSpeed="0.00" departDelay="0.00" arrival="432.00" arrivalLane="A1left1_0" arrivalPos="286.40" arrivalSpeed="15.59" duration="190.00" routeLength="1177.07" waitingTime="89.00" waitingCount="3" stopTime="0.00" timeLoss="115.26" rerouteNo="0" devices="tripinfo_61" vType="DEFAULT_VEHTYPE" speedFactor="1.15" vaporized=""/>
    <tripinfo id="80" depart="327.00" departLane="right0D0_0" departPos="5.10" departSpeed="0.00" departDelay="0.00" arrival="440.00" arrivalLane="D0bottom3_0" arrivalPos="286.40" arrivalSpeed="12.46" duration="113.00" routeLength="597.55" waitingTime="57.00" waitingCount="1" stopTime="0.00" timeLoss="68.17" rerouteNo="0" devices="tripinfo_80" vType="DEFAULT_VEHTYPE" speedFactor="0.98" vaporized=""/>
    <tripinfo id="103" depart="388.00" departLane="bottom3D0_0" departPos="5.10" departSpeed="0.00" departDelay="0.00" arrival="441.00" arrivalLane="D0right0_0" arrivalPos="286.40" arrivalSpeed="14.49" duration="53.00" routeLength="576.73" waitingTime="1.00" waitingCount="1" stopTime="0.00" timeLoss="12.66" rerouteNo="0" devices="tripinfo_103" vType="DEFAULT_VEHTYPE" speedFactor="1.05" vaporized=""/>
    <tripinfo id="85" depart="344.00" departLane="right2D2_0" departPos="5.10" departSpeed="0.00" departDelay="0.00" arrival="444.00" arrivalLane="D3right3_0" arrivalPos="286.40" arrivalSpeed="9.82" duration="100.00" routeLength="858.56" waitingTime="2.00" waitingCount="2" stopTime="0.00" timeLoss="19.08" rerouteNo="0" devices="tripinfo_85" vType="DEFAULT_VEHTYPE" speedFactor="0.78" vaporized=""/>
    <tripinfo id="33" depart="139.00" departLane="bottom0A0_0" departPos="5.10" departSpeed="0.00" departDelay="0.00" arrival="449.00" arrivalLane="A0bottom0_0" arrivalPos="286.40" arrivalSpeed="12.77" duration="310.00" routeLength="1748.75" waitingTime="146.00" waitingCount="6" stopTime="0.00" timeLoss="182.66" rerouteNo="0" devices="tripinfo_33" vType="DEFAULT_VEHTYPE" speedFactor="1.01" vaporized=""/>
    <tripinfo id="57" depart="230.00" departLane="left2A2_0" departPos="5.10" departSpeed="0.00" departDelay="0.00" arrival="449.00" arrivalLane="C3top2_0" arrivalPos="286.40" arrivalSpeed="13.55" duration="219.00" routeLength="1495.35" waitingTime="92.00" waitingCount="2" stopTime="0.00" timeLoss="111.23" rerouteNo="0" devices="tripinfo_57" vType="DEFAULT_VEHTYPE" speedFactor="1.00" vaporized=""/>
    <tripinfo id="96" depart="376.00" departLane="right0D0_0" departPos="5.10" departSpeed="0.00" departDelay="0.00" arrival="449.00" arrivalLane="D1right1_0" arrivalPos="286.40" arrivalSpeed="13.86" duration="73.00" routeLength="858.56" waitingTime="3.00" waitingCount="1" stopTime="0.00" timeLoss="14.76" rerouteNo="0" devices="tripinfo_96" vType="DEFAULT_VEHTYPE" speedFactor="1.08" vaporized=""/>
    <tripinfo id="41" depart="173.00" departLane="bottom0A0_0" departPos="5.10" departSpeed="0.00" departDelay="0.00" arrival="450.00" arrivalLane="A0bottom0_1" arrivalPos="286.40" arrivalSpeed="14.27" duration="277.00" routeLength="1748.75" waitingTime="105.00" waitingCount="7" stopTime="0.00" timeLoss="156.91" rerouteNo="0" devices="tripinfo_41" vType="DEFAULT_VEHTYPE" speedFactor="1.07" vaporized=""/>
    <tripinfo id="106" depart="403.00" departLane="left0A0_0" departPos="5.10" departSpeed="0.00" departDelay="0.00" arrival="459.00" arrivalLane="A0bottom0_0" arrivalPos="286.40" arrivalSpeed="12.13" duration="56.00" routeLength="576.73" waitingTime="1.00" waitingCount="1" stopTime="0.00" timeLoss="10.29" rerouteNo="0" devices="tripinfo_106" vType="DEFAULT_VEHTYPE" speedFactor="0.93" vaporized=""/>
    <tripinfo id="45" depart="185.00" departLane="top2C3_0" departPos="5.10" departSpeed="0.00" departDelay="0.00" arrival="462.00" arrivalLane="D0right0_0" arrivalPos="286.40" arrivalSpeed="11.09" duration="277.00" routeLength="1795.52" waitingTime="94.00" waitingCount="4" stopTime="0.00" timeLoss="126.36" rerouteNo="0" devices="tripinfo_45" vType="DEFAULT_VEHTYPE" speedFactor="0.86" vaporized=""/>
    <tripinfo id="32" depart="130.00" departLane="right1D1_0" departPos="5.10" departSpeed="0.00" departDelay="0.00" arrival="464.00" arrivalLane="D3right3_0" arrivalPos="286.40" arrivalSpeed="15.33" duration="334.00" routeLength="1161.43" waitingTime="237.00" waitingCount="2" stopTime="0.00" timeLoss="257.78" rerouteNo="0" devices="tripinfo_32" vType="DEFAULT_VEHTYPE" speedFactor="1.12" vaporized=""/>
    <tripinfo id="110" depart="415.00" departLane="right3D3_0" departPos="5.10" departSpeed="0.00" departDelay="0.00" arrival="488.00" arrivalLane="D2right2_0" arrivalPos="286.40" arrivalSpeed="15.18" duration="73.00" routeLength="894.86" waitingTime="1.00" waitingCount="1" stopTime="0.00" timeLoss="13.36" rerouteNo="0" devices="tripinfo_110" vType="DEFAULT_VEHTYPE" speedFactor="1.11" vaporized=""/>
    <tripinfo id="18" depart="91.00" departLane="left3A3_0" departPos="5.10" departSpeed="0.00" departDelay="0.00" arrival="501.00" arrivalLane="D3top3_0" arrivalPos="286.40" arrivalSpeed="12.71" duration="410.00" routeLength="1498.06" waitingTime="264.00" waitingCount="4" stopTime="0.00" timeLoss="292.87" rerouteNo="0" devices="tripinfo_18" vType="DEFAULT_VEHTYPE" speedFactor="0.93" vaporized=""/>
    <tripinfo id="56" depart="221.00" departLane="right3D3_0" departPos="5.10" departSpeed="0.00" departDelay="0.00" arrival="509.00" arrivalLane="A3left3_1" arrivalPos="286.40" arrivalSpeed="14.34" duration="288.00" routeLength="1495.58" waitingTime="163.00" waitingCount="3" stopTime="0.00" timeLoss="190.36" rerouteNo="0" devices="tripinfo_56" vType="DEFAULT_VEHTYPE" speedFactor="1.11" vaporized=""/>
    <tripinfo id="77" depart="318.00" departLane="top1B3_0" departPos="5.10" departSpeed="0.00" departDelay="0.00" arrival="510.00" arrivalLane="A3left3_0" arrivalPos="286.40" arrivalSpeed="12.56" duration="192.00" routeLength="879.60" waitingTime="110.00" waitingCount="2" stopTime="0.00" timeLoss="126.18" rerouteNo="0" devices="tripinfo_77" vType="DEFAULT_VEHTYPE" speedFactor="0.98" vaporized=""/>
    <tripinfo id="59" depart="238.00" departLane="bottom3D0_0" departPos="5.10" departSpeed="0.00" departDelay="0.00" arrival="513.00" arrivalLane="B0bottom1_0" arrivalPos="286.40" arrivalSpeed="11.13" duration="275.00" routeLength="1197.66" waitingTime="149.00" waitingCount="3" stopTime="0.00" timeLoss="172.74" rerouteNo="0" devices="tripinfo_59" vType="DEFAULT_VEHTYPE" speedFactor="0.85" vaporized=""/>
    <tripinfo id="94" depart="367.00" departLane="right2D2_0" departPos="5.10" departSpeed="0.00" departDelay="0.00" arrival="525.00" arrivalLane="A2left2_0" arrivalPos="286.40" arrivalSpeed="12.82" duration="158.00" routeLength="1495.58" waitingTime="17.00" waitingCount="3" stopTime="0.00" timeLoss="42.09" rerouteNo="0" devices="tripinfo_94" vType="DEFAULT_VEHTYPE" speedFactor="0.93" vaporized=""/>
    <tripinfo id="70" depart="303.00" departLane="right2D2_0" departPos="5.10" departSpeed="0.00" departDelay="0.00" arrival="526.00" arrivalLane="D2right2_0" arrivalPos="286.40" arrivalSpeed="15.19" duration="223.00" routeLength="1748.75" waitingTime="76.00" waitingCount="5" stopTime="0.00" timeLoss="111.67" rerouteNo="0" devices="tripinfo_70" vType="DEFAULT_VEHTYPE" speedFactor="1.15" vaporized=""/>
    <tripinfo id="98" depart="383.00" departLane="top3D3_0" departPos="5.10" departSpeed="0.00" departDelay="0.00" arrival="536.00" arrivalLane="C0bottom2_0" arrivalPos="286.40" arrivalSpeed="15.27" duration="153.00" routeLength="1782.72" waitingTime="17.00" waitingCount="2" stopTime="0.00" timeLoss="39.98" rerouteNo="0" devices="tripinfo_98" vType="DEFAULT_VEHTYPE" speedFactor="1.15" vaporized=""/>
    <tripinfo id="30" depart="124.00" departLane="bottom2C0_0" departPos="5.10" departSpeed="0.00" departDelay="0.00" arrival="543.00" arrivalLane="A0left0_0" arrivalPos="286.40" arrivalSpeed="11.79" duration="419.00" routeLength="1195.18" waitingTime="286.00" waitingCount="4" stopTime="0.00" timeLoss="317.34" rerouteNo="0" devices="tripinfo_30" vType="DEFAULT_VEHTYPE" speedFactor="0.86" vaporized=""/>
    <tripinfo id="122" depart="462.00" departLane="right2D2_0" departPos="5.10" departSpeed="0.00" departDelay="0.00" arrival="549.00" arrivalLane="D3top3_0" arrivalPos="286.40" arrivalSpeed="13.00" duration="87.00" routeLength="879.60" waitingTime="8.00" waitingCount="2" stopTime="0.00" timeLoss="22.71" rerouteNo="0" devices="tripinfo_122" vType="DEFAULT_VEHTYPE" speedFactor="1.00" vaporized=""/>
    <tripinfo id="67" depart="268.00" departLane="bottom3D0_0" departPos="5.10" departSpeed="0.00" departDelay="0.00" arrival="557.00" arrivalLane="A2left2_0" arrivalPos="286.40" arrivalSpeed="16.15" duration="289.00" routeLength="2095.69" waitingTime="118.00" waitingCount="4" stopTime="0.00" timeLoss="158.91" rerouteNo="0" devices="tripinfo_67" vType="DEFAULT_VEHTYPE" speedFactor="1.17" vaporized=""/>
    <tripinfo id="54" depart="217.00" departLane="top2C3_0" departPos="5.10" departSpeed="0.00" departDelay="0.00" arrival="559.00" arrivalLane="D0right0_0" arrivalPos="286.40" arrivalSpeed="12.87" duration="342.00" routeLength="1795.52" waitingTime="177.00" waitingCount="4" stopTime="0.00" timeLoss="209.36" rerouteNo="0" devices="tripinfo_54" vType="DEFAULT_VEHTYPE" speedFactor="0.98" vaporized=""/>
    <tripinfo id="121" depart="460.00" departLane="right0D0_0" departPos="5.10" departSpeed="0.00" departDelay="1.00" arrival="559.00" arrivalLane="C0bottom2_0" arrivalPos="286.40" arrivalSpeed="13.70" duration="99.00" routeLength="897.72" waitingTime="18.00" waitingCount="1" stopTime="0.00" timeLoss="34.13" rerouteNo="0" devices="tripinfo_121" vType="DEFAULT_VEHTYPE" speedFactor="1.01" vaporized=""/>
    <tripinfo id="82" depart="338.00" departLane="left0A0_0" departPos="5.10" departSpeed="0.00" departDelay="0.00" arrival="575.00" arrivalLane="C0bottom2_0" arrivalPos="286.40" arrivalSpeed="14.16" duration="237.00" routeLength="1177.07" waitingTime="135.00" waitingCount="3" stopTime="0.00" timeLoss="158.74" rerouteNo="0" devices="tripinfo_82" vType="DEFAULT_VEHTYPE" speedFactor="1.09" vaporized=""/>
    <tripinfo id="114" depart="443.00" departLane="top2C3_0" departPos="5.10" departSpeed="0.00" departDelay="0.00" arrival="576.00" arrivalLane="A3left3_0" arrivalPos="286.40" arrivalSpeed="15.32" duration="133.00" routeLength="1179.77" waitingTime="44.00" waitingCount="1" stopTime="0.00" timeLoss="58.30" rerouteNo="0" devices="tripinfo_114" vType="DEFAULT_VEHTYPE" speedFactor="1.16" vaporized=""/>