<?xml version="1.0" encoding="UTF-8"?>

<!-- generated on 2023-08-30 13:35:31 by Eclipse SUMO libsumo Version 1.18.0
<configuration xmlns:xsi="http://www.w3.org/2001/XMLSchema-instance" xsi:noNamespaceSchemaLocation="http://sumo.dlr.de/xsd/libsumoConfiguration.xsd">

    <input>
        <net-file value="/home/stefan/RESCO/./environments/grid4x4/grid4x4.net.xml"/>
        <route-files value="/home/stefan/RESCO/./environments/grid4x4/grid4x4_64.rou.xml"/>
    </input>

    <output>
        <tripinfo-output value="/home/stefan/results/RAINBOW-tr0-grid4x4-0-drq_norm-wait_norm/tripinfo_64.xml"/>
        <tripinfo-output.write-unfinished value="true"/>
    </output>

    <processing>
        <time-to-teleport value="-1"/>
    </processing>

    <report>
        <no-warnings value="True"/>
        <no-step-log value="True"/>
    </report>

    <random_number>
        <random value="true"/>
    </random_number>

</configuration>
-->

<tripinfos xmlns:xsi="http://www.w3.org/2001/XMLSchema-instance" xsi:noNamespaceSchemaLocation="http://sumo.dlr.de/xsd/tripinfo_file.xsd">
    <tripinfo id="7" depart="59.00" departLane="top2C3_0" departPos="5.10" departSpeed="0.00" departDelay="0.00" arrival="125.00" arrivalLane="D3right3_0" arrivalPos="286.40" arrivalSpeed="14.29" duration="66.00" routeLength="895.01" waitingTime="0.00" waitingCount="0" stopTime="0.00" timeLoss="6.88" rerouteNo="0" devices="tripinfo_7" vType="DEFAULT_VEHTYPE" speedFactor="1.11" vaporized=""/>
    <tripinfo id="1" depart="24.00" departLane="right0D0_0" departPos="5.10" departSpeed="0.00" departDelay="0.00" arrival="273.00" arrivalLane="B0bottom1_0" arrivalPos="286.40" arrivalSpeed="11.51" duration="249.00" routeLength="1197.89" waitingTime="129.00" waitingCount="2" stopTime="0.00" timeLoss="149.16" rerouteNo="0" devices="tripinfo_1" vType="DEFAULT_VEHTYPE" speedFactor="0.87" vaporized=""/>
    <tripinfo id="31" depart="208.00" departLane="top2C3_0" departPos="5.10" departSpeed="0.00" departDelay="0.00" arrival="278.00" arrivalLane="B3top1_0" arrivalPos="286.40" arrivalSpeed="15.73" duration="70.00" routeLength="858.56" waitingTime="1.00" waitingCount="1" stopTime="0.00" timeLoss="16.73" rerouteNo="0" devices="tripinfo_31" vType="DEFAULT_VEHTYPE" speedFactor="1.20" vaporized=""/>
    <tripinfo id="3" depart="32.00" departLane="bottom3D0_0" departPos="5.10" departSpeed="0.00" departDelay="0.00" arrival="288.00" arrivalLane="C0bottom2_0" arrivalPos="286.40" arrivalSpeed="14.09" duration="256.00" routeLength="894.86" waitingTime="178.00" waitingCount="2" stopTime="0.00" timeLoss="194.38" rerouteNo="0" devices="tripinfo_3" vType="DEFAULT_VEHTYPE" speedFactor="1.07" vaporized=""/>
    <tripinfo id="17" depart="119.00" departLane="right3D3_0" departPos="5.10" departSpeed="0.00" departDelay="0.00" arrival="319.00" arrivalLane="D2right2_0" arrivalPos="286.40" arrivalSpeed="14.97" duration="200.00" routeLength="894.86" waitingTime="128.00" waitingCount="1" stopTime="0.00" timeLoss="139.85" rerouteNo="0" devices="tripinfo_17" vType="DEFAULT_VEHTYPE" speedFactor="1.09" vaporized=""/>
    <tripinfo id="22" depart="157.00" departLane="right3D3_0" departPos="5.10" departSpeed="0.00" departDelay="0.00" arrival="336.00" arrivalLane="D2right2_0" arrivalPos="286.40" arrivalSpeed="10.78" duration="179.00" routeLength="894.86" waitingTime="84.00" waitingCount="1" stopTime="0.00" timeLoss="98.07" rerouteNo="0" devices="tripinfo_22" vType="DEFAULT_VEHTYPE" speedFactor="0.82" vaporized=""/>
    <tripinfo id="24" depart="164.00" departLane="top3D3_0" departPos="5.10" departSpeed="0.00" departDelay="0.00" arrival="350.00" arrivalLane="D3top3_0" arrivalPos="286.40" arrivalSpeed="13.72" duration="186.00" routeLength="1748.75" waitingTime="26.00" waitingCount="4" stopTime="0.00" timeLoss="56.55" rerouteNo="0" devices="tripinfo_24" vType="DEFAULT_VEHTYPE" speedFactor="1.00" vaporized=""/>
    <tripinfo id="49" depart="308.00" departLane="bottom1B0_0" departPos="5.10" departSpeed="0.00" departDelay="0.00" arrival="384.00" arrivalLane="C0bottom2_0" arrivalPos="286.40" arrivalSpeed="13.83" duration="76.00" routeLength="858.56" waitingTime="1.00" waitingCount="1" stopTime="0.00" timeLoss="15.60" rerouteNo="0" devices="tripinfo_49" vType="DEFAULT_VEHTYPE" speedFactor="1.04" vaporized=""/>
    <tripinfo id="4" depart="43.00" departLane="top2C3_0" departPos="5.10" departSpeed="0.00" departDelay="0.00" arrival="386.00" arrivalLane="A2left2_0" arrivalPos="286.40" arrivalSpeed="11.89" duration="343.00" routeLength="1479.94" waitingTime="207.00" waitingCount="2" stopTime="0.00" timeLoss="226.17" rerouteNo="0" devices="tripinfo_4" vType="DEFAULT_VEHTYPE" speedFactor="0.92" vaporized=""/>
    <tripinfo id="50" depart="309.00" departLane="top1B3_0" departPos="5.10" departSpeed="0.00" departDelay="0.00" arrival="386.00" arrivalLane="A3top0_0" arrivalPos="286.40" arrivalSpeed="13.05" duration="77.00" routeLength="858.56" waitingTime="1.00" waitingCount="1" stopTime="0.00" timeLoss="13.04" rerouteNo="0" devices="tripinfo_50" vType="DEFAULT_VEHTYPE" speedFactor="0.99" vaporized=""/>
    <tripinfo id="5" depart="54.00" departLane="right3D3_0" departPos="5.10" departSpeed="0.00" departDelay="0.00" arrival="392.00" arrivalLane="A2left2_0" arrivalPos="286.40" arrivalSpeed="11.20" duration="338.00" routeLength="1782.59" waitingTime="158.00" waitingCount="4" stopTime="0.00" timeLoss="191.75" rerouteNo="0" devices="tripinfo_5" vType="DEFAULT_VEHTYPE" speedFactor="0.89" vaporized=""/>
    <tripinfo id="52" depart="321.00" departLane="bottom2C0_0" departPos="5.10" departSpeed="0.00" departDelay="0.00" arrival="398.00" arrivalLane="D0bottom3_0" arrivalPos="286.40" arrivalSpeed="11.99" duration="77.00" routeLength="858.56" waitingTime="0.00" waitingCount="0" stopTime="0.00" timeLoss="10.25" rerouteNo="0" devices="tripinfo_52" vType="DEFAULT_VEHTYPE" speedFactor="0.95" vaporized=""/>
    <tripinfo id="40" depart="263.00" departLane="top3D3_0" departPos="5.10" departSpeed="0.00" departDelay="0.00" arrival="459.00" arrivalLane="D3top3_0" arrivalPos="286.40" arrivalSpeed="14.09" duration="196.00" routeLength="1748.75" waitingTime="44.00" waitingCount="3" stopTime="0.00" timeLoss="71.53" rerouteNo="0" devices="tripinfo_40" vType="DEFAULT_VEHTYPE" speedFactor="1.04" vaporized=""/>
    <tripinfo id="58" depart="347.00" departLane="left3A3_0" departPos="5.10" departSpeed="0.00" departDelay="0.00" arrival="459.00" arrivalLane="A1left1_0" arrivalPos="286.40" arrivalSpeed="12.83" duration="112.00" routeLength="1161.43" waitingTime="3.00" waitingCount="3" stopTime="0.00" timeLoss="27.41" rerouteNo="0" devices="tripinfo_58" vType="DEFAULT_VEHTYPE" speedFactor="1.01" vaporized=""/>
    <tripinfo id="67" depart="360.00" departLane="left3A3_0" departPos="5.10" departSpeed="0.00" departDelay="0.00" arrival="460.00" arrivalLane="A2left2_0" arrivalPos="286.40" arrivalSpeed="11.29" duration="100.00" routeLength="858.56" waitingTime="5.00" waitingCount="2" stopTime="0.00" timeLoss="22.47" rerouteNo="0" devices="tripinfo_67" vType="DEFAULT_VEHTYPE" speedFactor="0.82" vaporized=""/>
    <tripinfo id="18" depart="121.00" departLane="bottom0A0_0" departPos="5.10" departSpeed="0.00" departDelay="0.00" arrival="472.00" arrivalLane="A2left2_0" arrivalPos="286.40" arrivalSpeed="11.50" duration="351.00" routeLength="1197.89" waitingTime="237.00" waitingCount="2" stopTime="0.00" timeLoss="254.68" rerouteNo="0" devices="tripinfo_18" vType="DEFAULT_VEHTYPE" speedFactor="0.91" vaporized=""/>
    <tripinfo id="30" depart="205.00" departLane="bottom1B0_0" departPos="5.10" departSpeed="0.00" departDelay="0.00" arrival="514.00" arrivalLane="B0bottom1_0" arrivalPos="286.40" arrivalSpeed="10.74" duration="309.00" routeLength="1748.75" waitingTime="132.00" waitingCount="3" stopTime="0.00" timeLoss="159.28" rerouteNo="0" devices="tripinfo_30" vType="DEFAULT_VEHTYPE" speedFactor="0.86" vaporized=""/>
    <tripinfo id="8" depart="64.00" departLane="left1A1_0" departPos="5.10" departSpeed="0.00" departDelay="0.00" arrival="528.00" arrivalLane="D2right2_0" arrivalPos="286.40" arrivalSpeed="15.25" duration="464.00" routeLength="1782.59" waitingTime="307.00" waitingCount="5" stopTime="0.00" timeLoss="347.50" rerouteNo="0" devices="tripinfo_8" vType="DEFAULT_VEHTYPE" speedFactor="1.12" vaporized=""/>
    <tripinfo id="73" depart="377.00" departLane="bottom1B0_0" departPos="5.10" departSpeed="0.00" departDelay="0.00" arrival="532.00" arrivalLane="B0bottom1_0" arrivalPos="286.40" arrivalSpeed="12.18" duration="155.00" routeLength="1748.75" waitingTime="2.00" waitingCount="2" stopTime="0.00" timeLoss="22.63" rerouteNo="0" devices="tripinfo_73" vType="DEFAULT_VEHTYPE" speedFactor="0.97" vaporized=""/>
    <tripinfo id="38" depart="261.00" departLane="left3A3_0" departPos="5.10" departSpeed="0.00" departDelay="0.00" arrival="545.00" arrivalLane="A0left0_0" arrivalPos="286.40" arrivalSpeed="14.88" duration="284.00" routeLength="1461.60" waitingTime="157.00" waitingCount="4" stopTime="0.00" timeLoss="184.68" rerouteNo="0" devices="tripinfo_38" vType="DEFAULT_VEHTYPE" speedFactor="1.07" vaporized=""/>
    <tripinfo id="27" depart="191.00" departLane="bottom1B0_0" departPos="5.10" departSpeed="0.00" departDelay="0.00" arrival="549.00" arrivalLane="D1right1_0" arrivalPos="286.40" arrivalSpeed="14.20" duration="358.00" routeLength="1479.94" waitingTime="233.00" waitingCount="3" stopTime="0.00" timeLoss="257.94" rerouteNo="0" devices="tripinfo_27" vType="DEFAULT_VEHTYPE" speedFactor="1.08" vaporized=""/>
    <tripinfo id="13" depart="93.00" departLane="right1D1_0" departPos="5.10" departSpeed="0.00" departDelay="0.00" arrival="551.00" arrivalLane="D3top3_0" arrivalPos="286.40" arrivalSpeed="11.57" duration="458.00" routeLength="1179.77" waitingTime="339.00" waitingCount="3" stopTime="0.00" timeLoss="363.53" rerouteNo="0" devices="tripinfo_13" vType="DEFAULT_VEHTYPE" speedFactor="0.91" vaporized=""/>
    <tripinfo id="20" depart="136.00" departLane="right0D0_0" departPos="5.10" departSpeed="0.00" departDelay="0.00" arrival="552.00" arrivalLane="D3top3_1" arrivalPos="286.40" arrivalSpeed="12.95" duration="416.00" routeLength="1479.94" waitingTime="271.00" waitingCount="3" stopTime="0.00" timeLoss="303.07" rerouteNo="0" devices="tripinfo_20" vType="DEFAULT_VEHTYPE" speedFactor="0.95" vaporized=""/>
    <tripinfo id="53" depart="330.00" departLane="right1D1_0" departPos="5.10" departSpeed="0.00" departDelay="0.00" arrival="557.00" arrivalLane="D3top3_0" arrivalPos="286.40" arrivalSpeed="10.69" duration="227.00" routeLength="1179.77" waitingTime="101.00" waitingCount="3" stopTime="0.00" timeLoss="126.69" rerouteNo="0" devices="tripinfo_53" vType="DEFAULT_VEHTYPE" speedFactor="0.86" vaporized=""/>
    <tripinfo id="12" depart="81.00" departLane="right2D2_0" departPos="5.10" departSpeed="0.00" departDelay="0.00" arrival="567.00" arrivalLane="A3top0_0" arrivalPos="286.40" arrivalSpeed="15.00" duration="486.00" routeLength="1780.11" waitingTime="337.00" waitingCount="3" stopTime="0.00" timeLoss="367.96" rerouteNo="0" devices="tripinfo_12" vType="DEFAULT_VEHTYPE" speedFactor="1.09" vaporized=""/>
    <tripinfo id="82" depart="418.00" departLane="bottom1B0_0" departPos="5.10" departSpeed="0.00" departDelay="0.00" arrival="567.00" arrivalLane="D0right0_0" arrivalPos="286.40" arrivalSpeed="11.50" duration="149.00" routeLength="1179.77" waitingTime="38.00" waitingCount="1" stopTime="0.00" timeLoss="53.60" rerouteNo="0" devices="tripinfo_82" vType="DEFAULT_VEHTYPE" speedFactor="0.90" vaporized=""/>
    <tripinfo id="10" depart="65.00" departLane="bottom0A0_0" departPos="5.10" departSpeed="0.00" departDelay="0.00" arrival="569.00" arrivalLane="A3top0_1" arrivalPos="286.40" arrivalSpeed="15.35" duration="504.00" routeLength="1495.58" waitingTime="378.00" waitingCount="3" stopTime="0.00" timeLoss="407.92" rerouteNo="0" devices="tripinfo_10" vType="DEFAULT_VEHTYPE" speedFactor="1.13" vaporized=""/>
    <tripinfo id="72" depart="373.00" departLane="left0A0_0" departPos="5.10" departSpeed="0.00" departDelay="0.00" arrival="574.00" arrivalLane="A0left0_0" arrivalPos="286.40" arrivalSpeed="11.75" duration="201.00" routeLength="1745.91" waitingTime="24.00" waitingCount="3" stopTime="0.00" timeLoss="53.27" rerouteNo="0" devices="tripinfo_72" vType="DEFAULT_VEHTYPE" speedFactor="0.87" vaporized=""/>
    <tripinfo id="51" depart="318.00" departLane="left0A0_0" departPos="5.10" departSpeed="0.00" departDelay="0.00" arrival="576.00" arrivalLane="C0bottom2_0" arrivalPos="286.40" arrivalSpeed="13.47" duration="258.00" routeLength="1177.07" waitingTime="149.00" waitingCount="2" stopTime="0.00" timeLoss="171.38" rerouteNo="0" devices="tripinfo_51" vType="DEFAULT_VEHTYPE" speedFactor="0.99" vaporized=""/>
    <tripinfo id="45" depart="289.00" departLane="bottom2C0_0" departPos="5.10" departSpeed="0.00" departDelay="0.00" arrival="577.00" arrivalLane="B3top1_0" arrivalPos="286.40" arrivalSpeed="15.13" duration="288.00" routeLength="1782.59" waitingTime="139.00" waitingCount="4" stopTime="0.00" timeLoss="175.24" rerouteNo="0" devices="tripinfo_45" vType="DEFAULT_VEHTYPE" speedFactor="1.16" vaporized=""/>
    <tripinfo id="29" depart="194.00" departLane="bottom2C0_0" departPos="5.10" departSpeed="0.00" departDelay="0.00" arrival="588.00" arrivalLane="B0bottom1_0" arrivalPos="286.40" arrivalSpeed="13.38" duration="394.00" routeLength="894.86" waitingTime="315.00" waitingCount="2" stopTime="0.00" timeLoss="331.80" rerouteNo="0" devices="tripinfo_29" vType="DEFAULT_VEHTYPE" speedFactor="1.05" vaporized=""/>
    <tripinfo id="68" depart="369.00" departLane="bottom2C0_0" departPos="5.10" departSpeed="0.00" departDelay="0.00" arrival="595.00" arrivalLane="B0bottom1_0" arrivalPos="286.40" arrivalSpeed="11.71" duration="226.00" routeLength="894.86" waitingTime="133.00" waitingCount="2" stopTime="0.00" timeLoss="149.58" rerouteNo="0" devices="tripinfo_68" vType="DEFAULT_VEHTYPE" speedFactor="0.86" vaporized=""/>
    <tripinfo id="35" depart="248.00" departLane="left0A0_0" departPos="5.10" departSpeed="0.00" departDelay="0.00" arrival="608.00" arrivalLane="A3top0_0" arrivalPos="286.40" arrivalSpeed="13.51" duration="360.00" routeLength="1495.35" waitingTime="220.00" waitingCount="4" stopTime="0.00" timeLoss="255.78" rerouteNo="0" devices="tripinfo_35" vType="DEFAULT_VEHTYPE" speedFactor="1.04" vaporized=""/>
    <tripinfo id="41" depart="264.00" departLane="left0A0_0" departPos="5.10" departSpeed="0.00" departDelay="0.00" arrival="609.00" arrivalLane="A3top0_1" arrivalPos="286.40" arrivalSpeed="15.36" duration="345.00" routeLength="1495.35" waitingTime="205.00" waitingCount="4" stopTime="0.00" timeLoss="248.78" rerouteNo="0" devices="tripinfo_41" vType="DEFAULT_VEHTYPE" speedFactor="1.13" vaporized=""/>
    <tripinfo id="64" depart="356.00" departLane="left3A3_0" departPos="5.10" departSpeed="0.00" departDelay="0.00" arrival="622.00" arrivalLane="D2right2_0" arrivalPos="286.40" arrivalSpeed="12.24" duration="266.00" routeLength="1782.72" waitingTime="97.00" waitingCount="3" stopTime="0.00" timeLoss="122.37" rerouteNo="0" devices="tripinfo_64" vType="DEFAULT_VEHTYPE" speedFactor="0.91" vaporized=""/>
    <tripinfo id="110" depart="545.00" departLane="top1B3_0" departPos="5.10" departSpeed="0.00" departDelay="0.00" arrival="624.00" arrivalLane="A3top0_0" arrivalPos="286.40" arrivalSpeed="12.95" duration="79.00" routeLength="858.56" waitingTime="1.00" waitingCount="1" stopTime="0.00" timeLoss="12.87" rerouteNo="0" devices="tripinfo_110" vType="DEFAULT_VEHTYPE" speedFactor="0.96" vaporized=""/>
    <tripinfo id="74" depart="390.00" departLane="left2A2_0" departPos="5.10" departSpeed="0.00" departDelay="0.00" arrival="626.00" arrivalLane="D2right2_0" arrivalPos="286.40" arrivalSpeed="10.07" duration="236.00" routeLength="1495.58" waitingTime="73.00" waitingCount="4" stopTime="0.00" timeLoss="103.83" rerouteNo="0" devices="tripinfo_74" vType="DEFAULT_VEHTYPE" speedFactor="0.82" vaporized=""/>
    <tripinfo id="111" depart="547.00" departLane="bottom2C0_0" departPos="5.10" departSpeed="0.00" departDelay="0.00" arrival="631.00" arrivalLane="D0bottom3_0" arrivalPos="286.40" arrivalSpeed="13.68" duration="84.00" routeLength="858.56" waitingTime="2.00" waitingCount="2" stopTime="0.00" timeLoss="21.19" rerouteNo="0" devices="tripinfo_111" vType="DEFAULT_VEHTYPE" speedFactor="1.01" vaporized=""/>
    <tripinfo id="112" depart="554.00" departLane="bottom1B0_0" departPos="5.10" departSpeed="0.00" departDelay="0.00" arrival="649.00" arrivalLane="C0bottom2_0" arrivalPos="286.40" arrivalSpeed="9.88" duration="95.00" routeLength="858.56" waitingTime="1.00" waitingCount="1" stopTime="0.00" timeLoss="14.47" rerouteNo="0" devices="tripinfo_112" vType="DEFAULT_VEHTYPE" speedFactor="0.79" vaporized=""/>
    <tripinfo id="25" depart="177.00" departLane="right3D3_0" departPos="5.10" departSpeed="0.00" departDelay="0.00" arrival="690.00" arrivalLane="A2left2_1" arrivalPos="286.40" arrivalSpeed="13.49" duration="513.00" routeLength="1782.59" waitingTime="350.00" waitingCount="5" stopTime="0.00" timeLoss="387.15" rerouteNo="0" devices="tripinfo_25" vType="DEFAULT_VEHTYPE" speedFactor="1.03" vaporized=""/>
    <tripinfo id="36" depart="252.00" departLane="top1B3_0" departPos="5.10" departSpeed="0.00" departDelay="0.00" arrival="691.00" arrivalLane="A2left2_0" arrivalPos="286.40" arrivalSpeed="12.62" duration="439.00" routeLength="1179.77" waitingTime="322.00" waitingCount="3" stopTime="0.00" timeLoss="345.39" rerouteNo="0" devices="tripinfo_36" vType="DEFAULT_VEHTYPE" speedFactor="0.92" vaporized=""/>
    <tripinfo id="57" depart="343.00" departLane="top3D3_0" departPos="5.10" departSpeed="0.00" departDelay="0.00" arrival="692.00" arrivalLane="A2left2_1" arrivalPos="286.40" arrivalSpeed="16.20" duration="349.00" routeLength="1780.11" waitingTime="205.00" waitingCount="3" stopTime="0.00" timeLoss="242.08" rerouteNo="0" devices="tripinfo_57" vType="DEFAULT_VEHTYPE" speedFactor="1.21" vaporized=""/>
    <tripinfo id="42" depart="268.00" departLane="top0A3_0" departPos="5.10" departSpeed="0.00" departDelay="0.00" arrival="701.00" arrivalLane="B3top1_0" arrivalPos="286.40" arrivalSpeed="12.62" duration="433.00" routeLength="894.86" waitingTime="345.00" waitingCount="2" stopTime="0.00" timeLoss="363.57" rerouteNo="0" devices="tripinfo_42" vType="DEFAULT_VEHTYPE" speedFactor="0.96" vaporized=""/>
    <tripinfo id="118" depart="577.00" departLane="top1B3_0" departPos="5.10" departSpeed="0.00" departDelay="0.00" arrival="716.00" arrivalLane="B3top1_0" arrivalPos="286.40" arrivalSpeed="15.30" duration="139.00" routeLength="1748.75" waitingTime="2.00" waitingCount="2" stopTime="0.00" timeLoss="24.27" rerouteNo="0" devices="tripinfo_118" vType="DEFAULT_VEHTYPE" speedFactor="1.12" vaporized=""/>
    <tripinfo id="137" depart="645.00" departLane="right2D2_0" departPos="5.10" departSpeed="0.00" departDelay="0.00" arrival="725.00" arrivalLane="D3right3_0" arrivalPos="286.40" arrivalSpeed="12.56" duration="80.00" routeLength="858.56" waitingTime="2.00" waitingCount="2" stopTime="0.00" timeLoss="16.46" rerouteNo="0" devices="tripinfo_137" vType="DEFAULT_VEHTYPE" speedFactor="1.00" vaporized=""/>
    <tripinfo id="39" depart="262.00" departLane="top2C3_0" departPos="5.10" departSpeed="0.00" departDelay="0.00" arrival="739.00" arrivalLane="A3top0_0" arrivalPos="286.40" arrivalSpeed="10.91" duration="477.00" routeLength="1161.43" waitingTime="356.00" waitingCount="2" stopTime="0.00" timeLoss="374.74" rerouteNo="0" devices="tripinfo_39" vType="DEFAULT_VEHTYPE" speedFactor="0.83" vaporized=""/>
    <tripinfo id="116" depart="573.00" departLane="left0A0_0" departPos="5.10" departSpeed="0.00" departDelay="2.00" arrival="740.00" arrivalLane="D0right0_0" arrivalPos="286.40" arrivalSpeed="13.34" duration="167.00" routeLength="1495.58" waitingTime="48.00" waitingCount="1" stopTime="0.00" timeLoss="61.84" rerouteNo="0" devices="tripinfo_116" vType="DEFAULT_VEHTYPE" speedFactor="1.03" vaporized=""/>
    <tripinfo id="102" depart="525.00" departLane="top2C3_0" departPos="5.10" departSpeed="0.00" departDelay="0.00" arrival="742.00" arrivalLane="A3top0_0" arrivalPos="286.40" arrivalSpeed="12.63" duration="217.00" routeLength="1161.43" waitingTime="93.00" waitingCount="4" stopTime="0.00" timeLoss="125.30" rerouteNo="0" devices="tripinfo_102" vType="DEFAULT_VEHTYPE" speedFactor="0.93" vaporized=""/>
    <tripinfo id="121" depart="581.00" departLane="left0A0_0" departPos="5.10" departSpeed="0.00" departDelay="0.00" arrival="743.00" arrivalLane="D0right0_0" arrivalPos="286.40" arrivalSpeed="13.62" duration="162.00" routeLength="1495.58" waitingTime="42.00" waitingCount="1" stopTime="0.00" timeLoss="55.13" rerouteNo="0" devices="tripinfo_121" vType="DEFAULT_VEHTYPE" speedFactor="1.01" vaporized=""/>
    <tripinfo id="127" depart="603.00" departLane="top1B3_0" departPos="5.10" departSpeed="0.00" departDelay="0.00" arrival="747.00" arrivalLane="A3left3_0" arrivalPos="286.40" arrivalSpeed="15.27" duration="144.00" routeLength="879.60" waitingTime="71.00" waitingCount="1" stopTime="0.00" timeLoss="86.53" rerouteNo="0" devices="tripinfo_127" vType="DEFAULT_VEHTYPE" speedFactor="1.11" vaporized=""/>
    <tripinfo id="16" depart="110.00" departLane="top0A3_0" departPos="5.10" departSpeed="0.00" departDelay="0.00" arrival="757.00" arrivalLane="A3top0_0" arrivalPos="286.40" arrivalSpeed="14.58" duration="647.00" routeLength="1745.91" waitingTime="491.00" waitingCount="5" stopTime="0.00" timeLoss="527.92" rerouteNo="0" devices="tripinfo_16" vType="DEFAULT_VEHTYPE" speedFactor="1.07" vaporized=""/>
    <tripinfo id="47" depart="294.00" departLane="left2A2_0" departPos="5.10" departSpeed="0.00" departDelay="0.00" arrival="757.00" arrivalLane="A0bottom0_0" arrivalPos="286.40" arrivalSpeed="14.17" duration="463.00" routeLength="1179.77" waitingTime="363.00" waitingCount="3" stopTime="0.00" timeLoss="384.98" rerouteNo="0" devices="tripinfo_47" vType="DEFAULT_VEHTYPE" speedFactor="1.09" vaporized=""/>
    <tripinfo id="154" depart="689.00" departLane="left0A0_0" departPos="5.10" departSpeed="0.00" departDelay="0.00" arrival="757.00" arrivalLane="B0bottom1_0" arrivalPos="286.40" arrivalSpeed="14.35" duration="68.00" routeLength="876.90" waitingTime="0.00" waitingCount="0" stopTime="0.00" timeLoss="7.43" rerouteNo="0" devices="tripinfo_154" vType="DEFAULT_VEHTYPE" speedFactor="1.06" vaporized=""/>
    <tripinfo id="63" depart="356.00" departLane="right2D2_0" departPos="5.10" departSpeed="0.00" departDelay="0.00" arrival="763.00" arrivalLane="A0bottom0_0" arrivalPos="286.40" arrivalSpeed="14.09" duration="407.00" routeLength="2095.69" waitingTime="233.00" waitingCount="2" stopTime="0.00" timeLoss="260.18" rerouteNo="0" devices="tripinfo_63" vType="DEFAULT_VEHTYPE" speedFactor="1.04" vaporized=""/>
    <tripinfo id="132" depart="624.00" departLane="right0D0_0" departPos="5.10" departSpeed="0.00" departDelay="0.00" arrival="780.00" arrivalLane="B0bottom1_0" arrivalPos="286.40" arrivalSpeed="12.31" duration="156.00" routeLength="1197.89" waitingTime="49.00" waitingCount="2" stopTime="0.00" timeLoss="66.83" rerouteNo="0" devices="tripinfo_132" vType="DEFAULT_VEHTYPE" speedFactor="0.97" vaporized=""/>
    <tripinfo id="142" depart="659.00" departLane="right0D0_0" departPos="5.10" departSpeed="0.00" departDelay="2.00" arrival="788.00" arrivalLane="A0left0_0" arrivalPos="286.40" arrivalSpeed="14.26" duration="129.00" routeLength="1495.58" waitingTime="8.00" waitingCount="2" stopTime="0.00" timeLoss="30.16" rerouteNo="0" devices="tripinfo_142" vType="DEFAULT_VEHTYPE" speedFactor="1.09" vaporized=""/>
    <tripinfo id="28" depart="192.00" departLane="top3D3_0" departPos="5.10" departSpeed="0.00" departDelay="0.00" arrival="790.00" arrivalLane="D0right0_0" arrivalPos="286.40" arrivalSpeed="12.73" duration="598.00" routeLength="1498.06" waitingTime="462.00" waitingCount="3" stopTime="0.00" timeLoss="487.61" rerouteNo="0" devices="tripinfo_28" vType="DEFAULT_VEHTYPE" speedFactor="0.98" vaporized=""/>
    <tripinfo id="70" depart="372.00" departLane="right1D1_0" departPos="5.10" departSpeed="0.00" departDelay="0.00" arrival="790.00" arrivalLane="D0right0_1" arrivalPos="286.40" arrivalSpeed="14.37" duration="418.00" routeLength="894.86" waitingTime="338.00" waitingCount="2" stopTime="0.00" timeLoss="358.74" rerouteNo="0" devices="tripinfo_70" vType="DEFAULT_VEHTYPE" speedFactor="1.12" vaporized=""/>
    <tripinfo id="71" depart="375.00" departLane="right1D1_0" departPos="5.10" departSpeed="0.00" departDelay="3.00" arrival="791.00" arrivalLane="D0right0_1" arrivalPos="286.40" arrivalSpeed="14.96" duration="416.00" routeLength="894.86" waitingTime="336.00" waitingCount="2" stopTime="0.00" timeLoss="357.49" rerouteNo="0" devices="tripinfo_71" vType="DEFAULT_VEHTYPE" speedFactor="1.12" vaporized=""/>
    <tripinfo id="46" depart="289.00" departLane="right1D1_0" departPos="5.10" departSpeed="0.00" departDelay="0.00" arrival="793.00" arrivalLane="D0bottom3_0" arrivalPos="286.40" arrivalSpeed="10.89" duration="504.00" routeLength="895.01" waitingTime="417.00" waitingCount="1" stopTime="0.00" timeLoss="428.80" rerouteNo="0" devices="tripinfo_46" vType="DEFAULT_VEHTYPE" speedFactor="0.87" vaporized=""/>
    <tripinfo id="60" depart="351.00" departLane="bottom3D0_0" departPos="5.10" departSpeed="0.00" departDelay="0.00" arrival="794.00" arrivalLane="D0bottom3_1" arrivalPos="286.40" arrivalSpeed="12.61" duration="443.00" routeLength="1745.91" waitingTime="284.00" waitingCount="2" stopTime="0.00" timeLoss="310.38" rerouteNo="0" devices="tripinfo_60" vType="DEFAULT_VEHTYPE" speedFactor="0.97" vaporized=""/>
    <tripinfo id="61" depart="353.00" departLane="left1A1_0" departPos="5.10" departSpeed="0.00" departDelay="2.00" arrival="795.00" arrivalLane="D0bottom3_0" arrivalPos="286.40" arrivalSpeed="11.95" duration="442.00" routeLength="1780.11" waitingTime="269.00" waitingCount="2" stopTime="0.00" timeLoss="293.35" rerouteNo="0" devices="tripinfo_61" vType="DEFAULT_VEHTYPE" speedFactor="0.87" vaporized=""/>
    <tripinfo id="165" depart="725.00" departLane="left2A2_0" departPos="5.10" departSpeed="0.00" departDelay="0.00" arrival="799.00" arrivalLane="A1left1_0" arrivalPos="286.40" arrivalSpeed="13.92" duration="74.00" routeLength="858.56" waitingTime="1.00" waitingCount="1" stopTime="0.00" timeLoss="13.89" rerouteNo="0" devices="tripinfo_165" vType="DEFAULT_VEHTYPE" speedFactor="1.06" vaporized=""/>
    <tripinfo id="162" depart="718.00" departLane="bottom1B0_0" departPos="5.10" departSpeed="0.00" departDelay="0.00" arrival="809.00" arrivalLane="D0bottom3_0" arrivalPos="286.40" arrivalSpeed="15.02" duration="91.00" routeLength="1161.43" waitingTime="1.00" waitingCount="1" stopTime="0.00" timeLoss="15.16" rerouteNo="0" devices="tripinfo_162" vType="DEFAULT_VEHTYPE" speedFactor="1.13" vaporized=""/>
    <tripinfo id="170" depart="733.00" departLane="left3A3_0" departPos="5.10" departSpeed="0.00" departDelay="0.00" arrival="832.00" arrivalLane="A1left1_0" arrivalPos="286.40" arrivalSpeed="14.76" duration="99.00" routeLength="1161.43" waitingTime="2.00" waitingCount="2" stopTime="0.00" timeLoss="20.50" rerouteNo="0" devices="tripinfo_170" vType="DEFAULT_VEHTYPE" speedFactor="1.09" vaporized=""/>
    <tripinfo id="168" depart="728.00" departLane="right1D1_0" departPos="5.10" departSpeed="0.00" departDelay="0.00" arrival="834.00" arrivalLane="D2right2_0" arrivalPos="286.40" arrivalSpeed="9.12" duration="106.00" routeLength="858.56" waitingTime="1.00" waitingCount="1" stopTime="0.00" timeLoss="14.57" rerouteNo="0" devices="tripinfo_168" vType="DEFAULT_VEHTYPE" speedFactor="0.69" vaporized=""/>
    <tripinfo id="106" depart="534.00" departLane="bottom2C0_0" departPos="5.10" departSpeed="0.00" departDelay="0.00" arrival="837.00" arrivalLane="D2right2_0" arrivalPos="286.40" arrivalSpeed="15.63" duration="303.00" routeLength="1479.94" waitingTime="184.00" waitingCount="3" stopTime="0.00" timeLoss="208.17" rerouteNo="0" devices="tripinfo_106" vType="DEFAULT_VEHTYPE" speedFactor="1.14" vaporized=""/>
    <tripinfo id="178" depart="765.00" departLane="top2C3_0" departPos="5.10" departSpeed="0.00" departDelay="0.00" arrival="837.00" arrivalLane="B3top1_0" arrivalPos="286.40" arrivalSpeed="14.04" duration="72.00" routeLength="858.56" waitingTime="1.00" waitingCount="1" stopTime="0.00" timeLoss="14.13" rerouteNo="0" devices="tripinfo_178" vType="DEFAULT_VEHTYPE" speedFactor="1.09" vaporized=""/>
    <tripinfo id="14" depart="97.00" departLane="top3D3_0" departPos="5.10" departSpeed="0.00" departDelay="0.00" arrival="852.00" arrivalLane="A1left1_0" arrivalPos="286.40" arrivalSpeed="11.07" duration="755.00" routeLength="2080.28" waitingTime="544.00" waitingCount="5" stopTime="0.00" timeLoss="582.84" rerouteNo="0" devices="tripinfo_14" vType="DEFAULT_VEHTYPE" speedFactor="0.88" vaporized=""/>
    <tripinfo id="133" depart="627.00" departLane="top1B3_0" departPos="5.10" departSpeed="0.00" departDelay="0.00" arrival="852.00" arrivalLane="A1left1_1" arrivalPos="286.40" arrivalSpeed="12.21" duration="225.00" routeLength="1479.94" waitingTime="87.00" waitingCount="3" stopTime="0.00" timeLoss="112.48" rerouteNo="0" devices="tripinfo_133" vType="DEFAULT_VEHTYPE" speedFactor="0.95" vaporized=""/>
    <tripinfo id="173" depart="748.00" departLane="right1D1_0" departPos="5.10" departSpeed="0.00" departDelay="0.00" arrival="853.00" arrivalLane="D3right3_0" arrivalPos="286.40" arrivalSpeed="13.93" duration="105.00" routeLength="1161.43" waitingTime="6.00" waitingCount="2" stopTime="0.00" timeLoss="24.86" rerouteNo="0" devices="tripinfo_173" vType="DEFAULT_VEHTYPE" speedFactor="1.06" vaporized=""/>