<?xml version="1.0" encoding="UTF-8"?>

<!-- generated on 2023-08-30 13:28:24 by Eclipse SUMO libsumo Version 1.18.0
<configuration xmlns:xsi="http://www.w3.org/2001/XMLSchema-instance" xsi:noNamespaceSchemaLocation="http://sumo.dlr.de/xsd/libsumoConfiguration.xsd">

    <input>
        <net-file value="/home/stefan/RESCO/./environments/grid4x4/grid4x4.net.xml"/>
        <route-files value="/home/stefan/RESCO/./environments/grid4x4/grid4x4_53.rou.xml"/>
    </input>

    <output>
        <tripinfo-output value="/home/stefan/results/RAINBOW-tr0-grid4x4-0-drq_norm-wait_norm/tripinfo_53.xml"/>
        <tripinfo-output.write-unfinished value="true"/>
    </output>

    <processing>
        <time-to-teleport value="-1"/>
    </processing>

    <report>
        <no-warnings value="True"/>
        <no-step-log value="True"/>
    </report>

    <random_number>
        <random value="true"/>
    </random_number>

</configuration>
-->

<tripinfos xmlns:xsi="http://www.w3.org/2001/XMLSchema-instance" xsi:noNamespaceSchemaLocation="http://sumo.dlr.de/xsd/tripinfo_file.xsd">
    <tripinfo id="1" depart="9.00" departLane="left0A0_0" departPos="5.10" departSpeed="0.00" departDelay="0.00" arrival="91.00" arrivalLane="A1left1_0" arrivalPos="286.40" arrivalSpeed="12.28" duration="82.00" routeLength="894.86" waitingTime="0.00" waitingCount="0" stopTime="0.00" timeLoss="11.02" rerouteNo="0" devices="tripinfo_1" vType="DEFAULT_VEHTYPE" speedFactor="0.93" vaporized=""/>
    <tripinfo id="12" depart="56.00" departLane="top3D3_0" departPos="5.10" departSpeed="0.00" departDelay="0.00" arrival="140.00" arrivalLane="C3top2_0" arrivalPos="286.40" arrivalSpeed="12.32" duration="84.00" routeLength="858.56" waitingTime="1.00" waitingCount="1" stopTime="0.00" timeLoss="13.78" rerouteNo="0" devices="tripinfo_12" vType="DEFAULT_VEHTYPE" speedFactor="0.90" vaporized=""/>
    <tripinfo id="2" depart="9.00" departLane="bottom1B0_0" departPos="5.10" departSpeed="0.00" departDelay="0.00" arrival="150.00" arrivalLane="D0bottom3_0" arrivalPos="286.40" arrivalSpeed="12.19" duration="141.00" routeLength="1161.43" waitingTime="23.00" waitingCount="2" stopTime="0.00" timeLoss="45.20" rerouteNo="0" devices="tripinfo_2" vType="DEFAULT_VEHTYPE" speedFactor="0.89" vaporized=""/>
    <tripinfo id="18" depart="80.00" departLane="right1D1_0" departPos="5.10" departSpeed="0.00" departDelay="0.00" arrival="161.00" arrivalLane="D2right2_0" arrivalPos="286.40" arrivalSpeed="13.94" duration="81.00" routeLength="858.56" waitingTime="2.00" waitingCount="2" stopTime="0.00" timeLoss="17.55" rerouteNo="0" devices="tripinfo_18" vType="DEFAULT_VEHTYPE" speedFactor="1.00" vaporized=""/>
    <tripinfo id="22" depart="96.00" departLane="bottom2C0_0" departPos="5.10" departSpeed="0.00" departDelay="0.00" arrival="170.00" arrivalLane="D0bottom3_0" arrivalPos="286.40" arrivalSpeed="13.34" duration="74.00" routeLength="858.56" waitingTime="1.00" waitingCount="1" stopTime="0.00" timeLoss="13.35" rerouteNo="0" devices="tripinfo_22" vType="DEFAULT_VEHTYPE" speedFactor="1.04" vaporized=""/>
    <tripinfo id="14" depart="60.00" departLane="right2D2_0" departPos="5.10" departSpeed="0.00" departDelay="0.00" arrival="194.00" arrivalLane="C0bottom2_0" arrivalPos="286.40" arrivalSpeed="13.04" duration="134.00" routeLength="1495.35" waitingTime="5.00" waitingCount="1" stopTime="0.00" timeLoss="18.57" rerouteNo="0" devices="tripinfo_14" vType="DEFAULT_VEHTYPE" speedFactor="0.94" vaporized=""/>
    <tripinfo id="3" depart="16.00" departLane="top2C3_0" departPos="5.10" departSpeed="0.00" departDelay="0.00" arrival="200.00" arrivalLane="A1left1_0" arrivalPos="286.40" arrivalSpeed="13.08" duration="184.00" routeLength="1780.11" waitingTime="28.00" waitingCount="2" stopTime="0.00" timeLoss="49.97" rerouteNo="0" devices="tripinfo_3" vType="DEFAULT_VEHTYPE" speedFactor="0.96" vaporized=""/>
    <tripinfo id="29" depart="130.00" departLane="left2A2_0" departPos="5.10" departSpeed="0.00" departDelay="0.00" arrival="212.00" arrivalLane="A1left1_0" arrivalPos="286.40" arrivalSpeed="13.32" duration="82.00" routeLength="858.56" waitingTime="2.00" waitingCount="2" stopTime="0.00" timeLoss="18.38" rerouteNo="0" devices="tripinfo_29" vType="DEFAULT_VEHTYPE" speedFactor="1.00" vaporized=""/>
    <tripinfo id="40" depart="179.00" departLane="top0A3_0" departPos="5.10" departSpeed="0.00" departDelay="0.00" arrival="230.00" arrivalLane="A3left3_0" arrivalPos="286.40" arrivalSpeed="13.02" duration="51.00" routeLength="576.73" waitingTime="0.00" waitingCount="0" stopTime="0.00" timeLoss="7.12" rerouteNo="0" devices="tripinfo_40" vType="DEFAULT_VEHTYPE" speedFactor="0.96" vaporized=""/>
    <tripinfo id="37" depart="169.00" departLane="top1B3_0" departPos="5.10" departSpeed="0.00" departDelay="0.00" arrival="238.00" arrivalLane="A3left3_0" arrivalPos="286.40" arrivalSpeed="14.49" duration="69.00" routeLength="879.60" waitingTime="0.00" waitingCount="0" stopTime="0.00" timeLoss="7.52" rerouteNo="0" devices="tripinfo_37" vType="DEFAULT_VEHTYPE" speedFactor="1.05" vaporized=""/>
    <tripinfo id="32" depart="147.00" departLane="left3A3_0" departPos="5.10" departSpeed="0.00" departDelay="0.00" arrival="245.00" arrivalLane="A1left1_0" arrivalPos="286.40" arrivalSpeed="13.66" duration="98.00" routeLength="1161.43" waitingTime="1.00" waitingCount="1" stopTime="0.00" timeLoss="14.32" rerouteNo="0" devices="tripinfo_32" vType="DEFAULT_VEHTYPE" speedFactor="1.02" vaporized=""/>
    <tripinfo id="8" depart="31.00" departLane="bottom2C0_0" departPos="5.10" departSpeed="0.00" departDelay="0.00" arrival="255.00" arrivalLane="D1right1_0" arrivalPos="286.40" arrivalSpeed="17.15" duration="224.00" routeLength="1179.77" waitingTime="134.00" waitingCount="2" stopTime="0.00" timeLoss="155.40" rerouteNo="0" devices="tripinfo_8" vType="DEFAULT_VEHTYPE" speedFactor="1.25" vaporized=""/>
    <tripinfo id="35" depart="150.00" departLane="bottom1B0_0" departPos="5.10" departSpeed="0.00" departDelay="0.00" arrival="257.00" arrivalLane="A0bottom0_0" arrivalPos="286.40" arrivalSpeed="14.92" duration="107.00" routeLength="894.86" waitingTime="37.00" waitingCount="1" stopTime="0.00" timeLoss="50.19" rerouteNo="0" devices="tripinfo_35" vType="DEFAULT_VEHTYPE" speedFactor="1.17" vaporized=""/>
    <tripinfo id="19" depart="82.00" departLane="left0A0_0" departPos="5.10" departSpeed="0.00" departDelay="0.00" arrival="259.00" arrivalLane="D1right1_0" arrivalPos="286.40" arrivalSpeed="14.67" duration="177.00" routeLength="1782.59" waitingTime="28.00" waitingCount="4" stopTime="0.00" timeLoss="59.84" rerouteNo="0" devices="tripinfo_19" vType="DEFAULT_VEHTYPE" speedFactor="1.11" vaporized=""/>
    <tripinfo id="13" depart="58.00" departLane="bottom0A0_0" departPos="5.10" departSpeed="0.00" departDelay="0.00" arrival="261.00" arrivalLane="A0bottom0_0" arrivalPos="286.40" arrivalSpeed="13.25" duration="203.00" routeLength="1748.75" waitingTime="45.00" waitingCount="4" stopTime="0.00" timeLoss="75.58" rerouteNo="0" devices="tripinfo_13" vType="DEFAULT_VEHTYPE" speedFactor="1.01" vaporized=""/>
    <tripinfo id="25" depart="111.00" departLane="right3D3_0" departPos="5.10" departSpeed="0.00" departDelay="0.00" arrival="281.00" arrivalLane="B3top1_0" arrivalPos="286.40" arrivalSpeed="15.82" duration="170.00" routeLength="1177.07" waitingTime="72.00" waitingCount="3" stopTime="0.00" timeLoss="99.28" rerouteNo="0" devices="tripinfo_25" vType="DEFAULT_VEHTYPE" speedFactor="1.21" vaporized=""/>
    <tripinfo id="36" depart="163.00" departLane="left2A2_0" departPos="5.10" departSpeed="0.00" departDelay="0.00" arrival="300.00" arrivalLane="A0left0_0" arrivalPos="286.40" arrivalSpeed="13.01" duration="137.00" routeLength="1161.43" waitingTime="23.00" waitingCount="3" stopTime="0.00" timeLoss="48.42" rerouteNo="0" devices="tripinfo_36" vType="DEFAULT_VEHTYPE" speedFactor="0.96" vaporized=""/>
    <tripinfo id="21" depart="86.00" departLane="right1D1_0" departPos="5.10" departSpeed="0.00" departDelay="0.00" arrival="301.00" arrivalLane="C0bottom2_0" arrivalPos="286.40" arrivalSpeed="12.60" duration="215.00" routeLength="1195.18" waitingTime="99.00" waitingCount="2" stopTime="0.00" timeLoss="120.95" rerouteNo="0" devices="tripinfo_21" vType="DEFAULT_VEHTYPE" speedFactor="0.93" vaporized=""/>
    <tripinfo id="43" depart="188.00" departLane="right2D2_0" departPos="5.10" departSpeed="0.00" departDelay="0.00" arrival="330.00" arrivalLane="D3top3_0" arrivalPos="286.40" arrivalSpeed="12.77" duration="142.00" routeLength="879.60" waitingTime="58.00" waitingCount="2" stopTime="0.00" timeLoss="74.86" rerouteNo="0" devices="tripinfo_43" vType="DEFAULT_VEHTYPE" speedFactor="0.96" vaporized=""/>
    <tripinfo id="45" depart="192.00" departLane="left0A0_0" departPos="5.10" departSpeed="0.00" departDelay="0.00" arrival="331.00" arrivalLane="A2left2_0" arrivalPos="286.40" arrivalSpeed="12.19" duration="139.00" routeLength="1197.66" waitingTime="25.00" waitingCount="1" stopTime="0.00" timeLoss="45.20" rerouteNo="0" devices="tripinfo_45" vType="DEFAULT_VEHTYPE" speedFactor="0.93" vaporized=""/>
    <tripinfo id="55" depart="247.00" departLane="bottom0A0_0" departPos="5.10" departSpeed="0.00" departDelay="0.00" arrival="334.00" arrivalLane="B0bottom1_0" arrivalPos="286.40" arrivalSpeed="12.35" duration="87.00" routeLength="858.56" waitingTime="2.00" waitingCount="2" stopTime="0.00" timeLoss="18.62" rerouteNo="0" devices="tripinfo_55" vType="DEFAULT_VEHTYPE" speedFactor="0.93" vaporized=""/>
    <tripinfo id="9" depart="33.00" departLane="top1B3_0" departPos="5.10" departSpeed="0.00" departDelay="0.00" arrival="340.00" arrivalLane="D3right3_0" arrivalPos="286.40" arrivalSpeed="13.28" duration="307.00" routeLength="1195.18" waitingTime="195.00" waitingCount="3" stopTime="0.00" timeLoss="218.81" rerouteNo="0" devices="tripinfo_9" vType="DEFAULT_VEHTYPE" speedFactor="0.98" vaporized=""/>
    <tripinfo id="33" depart="149.00" departLane="bottom3D0_0" departPos="5.10" departSpeed="0.00" departDelay="0.00" arrival="349.00" arrivalLane="B0bottom1_0" arrivalPos="286.40" arrivalSpeed="13.55" duration="200.00" routeLength="1197.66" waitingTime="95.00" waitingCount="2" stopTime="0.00" timeLoss="114.42" rerouteNo="0" devices="tripinfo_33" vType="DEFAULT_VEHTYPE" speedFactor="1.03" vaporized=""/>
    <tripinfo id="46" depart="207.00" departLane="bottom3D0_0" departPos="5.10" departSpeed="0.00" departDelay="0.00" arrival="351.00" arrivalLane="B0bottom1_0" arrivalPos="286.40" arrivalSpeed="13.90" duration="144.00" routeLength="1197.66" waitingTime="37.00" waitingCount="2" stopTime="0.00" timeLoss="57.71" rerouteNo="0" devices="tripinfo_46" vType="DEFAULT_VEHTYPE" speedFactor="1.01" vaporized=""/>
    <tripinfo id="58" depart="259.00" departLane="top1B3_0" departPos="5.10" departSpeed="0.00" departDelay="0.00" arrival="358.00" arrivalLane="A3top0_0" arrivalPos="286.40" arrivalSpeed="9.34" duration="99.00" routeLength="858.56" waitingTime="0.00" waitingCount="0" stopTime="0.00" timeLoss="11.60" rerouteNo="0" devices="tripinfo_58" vType="DEFAULT_VEHTYPE" speedFactor="0.72" vaporized=""/>
    <tripinfo id="23" depart="106.00" departLane="left2A2_0" departPos="5.10" departSpeed="0.00" departDelay="0.00" arrival="368.00" arrivalLane="A0bottom0_0" arrivalPos="286.40" arrivalSpeed="14.44" duration="262.00" routeLength="1179.77" waitingTime="163.00" waitingCount="2" stopTime="0.00" timeLoss="181.86" rerouteNo="0" devices="tripinfo_23" vType="DEFAULT_VEHTYPE" speedFactor="1.08" vaporized=""/>
    <tripinfo id="66" depart="298.00" departLane="left3A3_0" departPos="5.10" departSpeed="0.00" departDelay="0.00" arrival="369.00" arrivalLane="B3top1_0" arrivalPos="286.40" arrivalSpeed="12.83" duration="71.00" routeLength="897.72" waitingTime="0.00" waitingCount="0" stopTime="0.00" timeLoss="6.45" rerouteNo="0" devices="tripinfo_66" vType="DEFAULT_VEHTYPE" speedFactor="1.01" vaporized=""/>
    <tripinfo id="31" depart="143.00" departLane="right1D1_0" departPos="5.10" departSpeed="0.00" departDelay="0.00" arrival="371.00" arrivalLane="A0bottom0_1" arrivalPos="286.40" arrivalSpeed="15.14" duration="228.00" routeLength="1795.52" waitingTime="83.00" waitingCount="3" stopTime="0.00" timeLoss="113.74" rerouteNo="0" devices="tripinfo_31" vType="DEFAULT_VEHTYPE" speedFactor="1.14" vaporized=""/>
    <tripinfo id="15" depart="73.00" departLane="top0A3_0" departPos="5.10" departSpeed="0.00" departDelay="0.00" arrival="374.00" arrivalLane="A0bottom0_0" arrivalPos="286.40" arrivalSpeed="11.60" duration="301.00" routeLength="1495.58" waitingTime="153.00" waitingCount="4" stopTime="0.00" timeLoss="183.69" rerouteNo="0" devices="tripinfo_15" vType="DEFAULT_VEHTYPE" speedFactor="0.92" vaporized=""/>
    <tripinfo id="5" depart="24.00" departLane="right3D3_0" departPos="5.10" departSpeed="0.00" departDelay="0.00" arrival="381.00" arrivalLane="A0left0_1" arrivalPos="286.40" arrivalSpeed="14.43" duration="357.00" routeLength="2380.22" waitingTime="161.00" waitingCount="2" stopTime="0.00" timeLoss="193.33" rerouteNo="0" devices="tripinfo_5" vType="DEFAULT_VEHTYPE" speedFactor="1.06" vaporized=""/>
    <tripinfo id="51" depart="240.00" departLane="right1D1_0" departPos="5.10" departSpeed="0.00" departDelay="0.00" arrival="381.00" arrivalLane="D3right3_0" arrivalPos="286.40" arrivalSpeed="11.92" duration="141.00" routeLength="1161.43" waitingTime="25.00" waitingCount="3" stopTime="0.00" timeLoss="47.44" rerouteNo="0" devices="tripinfo_51" vType="DEFAULT_VEHTYPE" speedFactor="0.91" vaporized=""/>
    <tripinfo id="0" depart="6.00" departLane="right0D0_0" departPos="5.10" departSpeed="0.00" departDelay="0.00" arrival="382.00" arrivalLane="A0left0_0" arrivalPos="286.40" arrivalSpeed="11.86" duration="376.00" routeLength="1495.58" waitingTime="234.00" waitingCount="2" stopTime="0.00" timeLoss="258.14" rerouteNo="0" devices="tripinfo_0" vType="DEFAULT_VEHTYPE" speedFactor="0.92" vaporized=""/>
    <tripinfo id="16" depart="74.00" departLane="right2D2_0" departPos="5.10" departSpeed="0.00" departDelay="0.00" arrival="382.00" arrivalLane="A0left0_2" arrivalPos="286.40" arrivalSpeed="14.88" duration="308.00" routeLength="2080.05" waitingTime="137.00" waitingCount="1" stopTime="0.00" timeLoss="175.69" rerouteNo="0" devices="tripinfo_16" vType="DEFAULT_VEHTYPE" speedFactor="1.14" vaporized=""/>
    <tripinfo id="57" depart="252.00" departLane="bottom2C0_0" departPos="5.10" departSpeed="0.00" departDelay="0.00" arrival="403.00" arrivalLane="A1left1_0" arrivalPos="286.40" arrivalSpeed="12.62" duration="151.00" routeLength="1495.35" waitingTime="20.00" waitingCount="2" stopTime="0.00" timeLoss="39.47" rerouteNo="0" devices="tripinfo_57" vType="DEFAULT_VEHTYPE" speedFactor="0.97" vaporized=""/>
    <tripinfo id="24" depart="110.00" departLane="bottom1B0_0" departPos="5.10" departSpeed="0.00" departDelay="0.00" arrival="407.00" arrivalLane="C3top2_0" arrivalPos="286.40" arrivalSpeed="15.46" duration="297.00" routeLength="1782.72" waitingTime="148.00" waitingCount="4" stopTime="0.00" timeLoss="181.60" rerouteNo="0" devices="tripinfo_24" vType="DEFAULT_VEHTYPE" speedFactor="1.12" vaporized=""/>
    <tripinfo id="39" depart="178.00" departLane="left0A0_0" departPos="5.10" departSpeed="0.00" departDelay="0.00" arrival="408.00" arrivalLane="A3top0_0" arrivalPos="286.40" arrivalSpeed="13.93" duration="230.00" routeLength="1495.35" waitingTime="106.00" waitingCount="2" stopTime="0.00" timeLoss="128.63" rerouteNo="0" devices="tripinfo_39" vType="DEFAULT_VEHTYPE" speedFactor="1.07" vaporized=""/>
    <tripinfo id="62" depart="281.00" departLane="top3D3_0" departPos="5.10" departSpeed="0.00" departDelay="0.00" arrival="409.00" arrivalLane="D2right2_1" arrivalPos="286.40" arrivalSpeed="14.44" duration="128.00" routeLength="897.72" waitingTime="58.00" waitingCount="1" stopTime="0.00" timeLoss="70.57" rerouteNo="0" devices="tripinfo_62" vType="DEFAULT_VEHTYPE" speedFactor="1.13" vaporized=""/>
    <tripinfo id="54" depart="249.00" departLane="right3D3_0" departPos="5.10" departSpeed="0.00" departDelay="3.00" arrival="410.00" arrivalLane="D2right2_0" arrivalPos="286.40" arrivalSpeed="13.01" duration="161.00" routeLength="894.86" waitingTime="83.00" waitingCount="1" stopTime="0.00" timeLoss="95.66" rerouteNo="0" devices="tripinfo_54" vType="DEFAULT_VEHTYPE" speedFactor="1.01" vaporized=""/>
    <tripinfo id="6" depart="25.00" departLane="right1D1_0" departPos="5.10" departSpeed="0.00" departDelay="0.00" arrival="411.00" arrivalLane="A3top0_0" arrivalPos="286.40" arrivalSpeed="13.38" duration="386.00" routeLength="2080.28" waitingTime="208.00" waitingCount="3" stopTime="0.00" timeLoss="240.52" rerouteNo="0" devices="tripinfo_6" vType="DEFAULT_VEHTYPE" speedFactor="1.04" vaporized=""/>
    <tripinfo id="52" depart="246.00" departLane="left3A3_0" departPos="5.10" departSpeed="0.00" departDelay="0.00" arrival="415.00" arrivalLane="A0left0_0" arrivalPos="286.40" arrivalSpeed="14.41" duration="169.00" routeLength="1461.60" waitingTime="47.00" waitingCount="2" stopTime="0.00" timeLoss="67.24" rerouteNo="0" devices="tripinfo_52" vType="DEFAULT_VEHTYPE" speedFactor="1.06" vaporized=""/>
    <tripinfo id="11" depart="54.00" departLane="bottom3D0_0" departPos="5.10" departSpeed="0.00" departDelay="0.00" arrival="429.00" arrivalLane="A0bottom0_0" arrivalPos="286.40" arrivalSpeed="14.66" duration="375.00" routeLength="1497.83" waitingTime="245.00" waitingCount="4" stopTime="0.00" timeLoss="277.63" rerouteNo="0" devices="tripinfo_11" vType="DEFAULT_VEHTYPE" speedFactor="1.12" vaporized=""/>
    <tripinfo id="26" depart="111.00" departLane="bottom2C0_0" departPos="5.10" departSpeed="0.00" departDelay="0.00" arrival="430.00" arrivalLane="A0bottom0_1" arrivalPos="286.40" arrivalSpeed="16.15" duration="319.00" routeLength="1197.66" waitingTime="218.00" waitingCount="3" stopTime="0.00" timeLoss="245.97" rerouteNo="0" devices="tripinfo_26" vType="DEFAULT_VEHTYPE" speedFactor="1.20" vaporized=""/>
    <tripinfo id="20" depart="85.00" departLane="left1A1_0" departPos="5.10" departSpeed="0.00" departDelay="0.00" arrival="456.00" arrivalLane="D2right2_0" arrivalPos="286.40" arrivalSpeed="15.01" duration="371.00" routeLength="1782.59" waitingTime="224.00" waitingCount="4" stopTime="0.00" timeLoss="257.07" rerouteNo="0" devices="tripinfo_20" vType="DEFAULT_VEHTYPE" speedFactor="1.14" vaporized=""/>
    <tripinfo id="42" depart="184.00" departLane="left2A2_0" departPos="5.10" departSpeed="0.00" departDelay="0.00" arrival="460.00" arrivalLane="D3top3_0" arrivalPos="286.40" arrivalSpeed="13.74" duration="276.00" routeLength="1795.52" waitingTime="120.00" waitingCount="2" stopTime="0.00" timeLoss="146.31" rerouteNo="0" devices="tripinfo_42" vType="DEFAULT_VEHTYPE" speedFactor="1.01" vaporized=""/>
    <tripinfo id="64" depart="294.00" departLane="bottom0A0_0" departPos="5.10" departSpeed="0.00" departDelay="0.00" arrival="464.00" arrivalLane="A0bottom0_0" arrivalPos="286.40" arrivalSpeed="12.75" duration="170.00" routeLength="1748.75" waitingTime="13.00" waitingCount="2" stopTime="0.00" timeLoss="35.84" rerouteNo="0" devices="tripinfo_64" vType="DEFAULT_VEHTYPE" speedFactor="0.96" vaporized=""/>
    <tripinfo id="56" depart="252.00" departLane="right3D3_0" departPos="5.10" departSpeed="0.00" departDelay="0.00" arrival="467.00" arrivalLane="A3top0_0" arrivalPos="286.40" arrivalSpeed="13.13" duration="215.00" routeLength="1477.24" waitingTime="79.00" waitingCount="3" stopTime="0.00" timeLoss="110.85" rerouteNo="0" devices="tripinfo_56" vType="DEFAULT_VEHTYPE" speedFactor="1.03" vaporized=""/>
    <tripinfo id="67" depart="299.00" departLane="right0D0_0" departPos="5.10" departSpeed="0.00" departDelay="0.00" arrival="479.00" arrivalLane="A1left1_0" arrivalPos="286.40" arrivalSpeed="13.86" duration="180.00" routeLength="1782.72" waitingTime="31.00" waitingCount="3" stopTime="0.00" timeLoss="59.08" rerouteNo="0" devices="tripinfo_67" vType="DEFAULT_VEHTYPE" speedFactor="1.07" vaporized=""/>
    <tripinfo id="7" depart="26.00" departLane="left1A1_0" departPos="5.10" departSpeed="0.00" departDelay="0.00" arrival="482.00" arrivalLane="A3left3_0" arrivalPos="286.40" arrivalSpeed="11.30" duration="456.00" routeLength="1197.66" waitingTime="341.00" waitingCount="2" stopTime="0.00" timeLoss="359.05" rerouteNo="0" devices="tripinfo_7" vType="DEFAULT_VEHTYPE" speedFactor="0.90" vaporized=""/>
    <tripinfo id="48" depart="220.00" departLane="left1A1_0" departPos="5.10" departSpeed="0.00" departDelay="0.00" arrival="482.00" arrivalLane="A3left3_1" arrivalPos="286.40" arrivalSpeed="13.21" duration="262.00" routeLength="1197.66" waitingTime="149.00" waitingCount="2" stopTime="0.00" timeLoss="173.78" rerouteNo="0" devices="tripinfo_48" vType="DEFAULT_VEHTYPE" speedFactor="0.99" vaporized=""/>
    <tripinfo id="82" depart="358.00" departLane="left0A0_0" departPos="5.10" departSpeed="0.00" departDelay="0.00" arrival="483.00" arrivalLane="C0bottom2_0" arrivalPos="286.40" arrivalSpeed="11.27" duration="125.00" routeLength="1177.07" waitingTime="12.00" waitingCount="2" stopTime="0.00" timeLoss="29.82" rerouteNo="0" devices="tripinfo_82" vType="DEFAULT_VEHTYPE" speedFactor="0.90" vaporized=""/>
    <tripinfo id="17" depart="75.00" departLane="top3D3_0" departPos="5.10" departSpeed="0.00" departDelay="0.00" arrival="500.00" arrivalLane="C0bottom2_0" arrivalPos="286.40" arrivalSpeed="12.32" duration="425.00" routeLength="1782.72" waitingTime="262.00" waitingCount="4" stopTime="0.00" timeLoss="290.32" rerouteNo="0" devices="tripinfo_17" vType="DEFAULT_VEHTYPE" speedFactor="0.96" vaporized=""/>
    <tripinfo id="60" depart="266.00" departLane="top2C3_0" departPos="5.10" departSpeed="0.00" departDelay="0.00" arrival="508.00" arrivalLane="D0right0_0" arrivalPos="286.40" arrivalSpeed="14.18" duration="242.00" routeLength="1795.52" waitingTime="93.00" waitingCount="3" stopTime="0.00" timeLoss="119.92" rerouteNo="0" devices="tripinfo_60" vType="DEFAULT_VEHTYPE" speedFactor="1.07" vaporized=""/>
    <tripinfo id="81" depart="355.00" departLane="left2A2_0" departPos="5.10" departSpeed="0.00" departDelay="0.00" arrival="529.00" arrivalLane="B3top1_0" arrivalPos="286.40" arrivalSpeed="13.88" duration="174.00" routeLength="1195.18" waitingTime="69.00" waitingCount="2" stopTime="0.00" timeLoss="88.88" rerouteNo="0" devices="tripinfo_81" vType="DEFAULT_VEHTYPE" speedFactor="1.03" vaporized=""/>
    <tripinfo id="99" depart="421.00" departLane="left3A3_0" departPos="5.10" departSpeed="0.00" departDelay="0.00" arrival="536.00" arrivalLane="A1left1_0" arrivalPos="286.40" arrivalSpeed="14.06" duration="115.00" routeLength="1161.43" waitingTime="11.00" waitingCount="3" stopTime="0.00" timeLoss="34.03" rerouteNo="0" devices="tripinfo_99" vType="DEFAULT_VEHTYPE" speedFactor="1.06" vaporized=""/>
    <tripinfo id="72" depart="319.00" departLane="left2A2_0" departPos="5.10" departSpeed="0.00" departDelay="0.00" arrival="546.00" arrivalLane="D3top3_0" arrivalPos="286.40" arrivalSpeed="15.01" duration="227.00" routeLength="1795.52" waitingTime="87.00" waitingCount="3" stopTime="0.00" timeLoss="113.34" rerouteNo="0" devices="tripinfo_72" vType="DEFAULT_VEHTYPE" speedFactor="1.15" vaporized=""/>
    <tripinfo id="113" depart="480.00" departLane="top1B3_0" departPos="5.10" departSpeed="0.00" departDelay="0.00" arrival="551.00" arrivalLane="A3top0_0" arrivalPos="286.40" arrivalSpeed="15.38" duration="71.00" routeLength="858.56" waitingTime="1.00" waitingCount="1" stopTime="0.00" timeLoss="14.41" rerouteNo="0" devices="tripinfo_113" vType="DEFAULT_VEHTYPE" speedFactor="1.12" vaporized=""/>
    <tripinfo id="87" depart="373.00" departLane="right3D3_0" departPos="5.10" departSpeed="0.00" departDelay="0.00" arrival="559.00" arrivalLane="D3right3_0" arrivalPos="286.40" arrivalSpeed="13.48" duration="186.00" routeLength="1745.91" waitingTime="28.00" waitingCount="4" stopTime="0.00" timeLoss="60.27" rerouteNo="0" devices="tripinfo_87" vType="DEFAULT_VEHTYPE" speedFactor="1.02" vaporized=""/>
    <tripinfo id="50" depart="237.00" departLane="top1B3_0" departPos="5.10" departSpeed="0.00" departDelay="0.00" arrival="562.00" arrivalLane="D3right3_0" arrivalPos="286.40" arrivalSpeed="12.98" duration="325.00" routeLength="1195.18" waitingTime="225.00" waitingCount="1" stopTime="0.00" timeLoss="237.65" rerouteNo="0" devices="tripinfo_50" vType="DEFAULT_VEHTYPE" speedFactor="1.00" vaporized=""/>
    <tripinfo id="28" depart="121.00" departLane="left3A3_0" departPos="5.10" departSpeed="0.00" departDelay="0.00" arrival="563.00" arrivalLane="D3top3_0" arrivalPos="286.40" arrivalSpeed="14.47" duration="442.00" routeLength="1498.06" waitingTime="316.00" waitingCount="2" stopTime="0.00" timeLoss="338.65" rerouteNo="0" devices="tripinfo_28" vType="DEFAULT_VEHTYPE" speedFactor="1.05" vaporized=""/>
    <tripinfo id="65" depart="297.00" departLane="bottom2C0_0" departPos="5.10" departSpeed="0.00" departDelay="0.00" arrival="568.00" arrivalLane="A1left1_0" arrivalPos="286.40" arrivalSpeed="12.21" duration="271.00" routeLength="1495.35" waitingTime="142.00" waitingCount="1" stopTime="0.00" timeLoss="157.10" rerouteNo="0" devices="tripinfo_65" vType="DEFAULT_VEHTYPE" speedFactor="0.95" vaporized=""/>
    <tripinfo id="4" depart="21.00" departLane="bottom0A0_0" departPos="5.10" departSpeed="0.00" departDelay="0.00" arrival="569.00" arrivalLane="C3top2_0" arrivalPos="286.40" arrivalSpeed="13.49" duration="548.00" routeLength="2082.76" waitingTime="357.00" waitingCount="5" stopTime="0.00" timeLoss="393.36" rerouteNo="0" devices="tripinfo_4" vType="DEFAULT_VEHTYPE" speedFactor="0.98" vaporized=""/>
    <tripinfo id="92" depart="399.00" departLane="right2D2_0" departPos="5.10" departSpeed="0.00" departDelay="0.00" arrival="578.00" arrivalLane="B3top1_0" arrivalPos="286.40" arrivalSpeed="13.99" duration="179.00" routeLength="1479.94" waitingTime="49.00" waitingCount="4" stopTime="0.00" timeLoss="81.28" rerouteNo="0" devices="tripinfo_92" vType="DEFAULT_VEHTYPE" speedFactor="1.10" vaporized=""/>
    <tripinfo id="120" depart="505.00" departLane="left3A3_0" departPos="5.10" departSpeed="0.00" departDelay="0.00" arrival="580.00" arrivalLane="A2left2_0" arrivalPos="286.40" arrivalSpeed="13.18" duration="75.00" routeLength="858.56" waitingTime="0.00" waitingCount="0" stopTime="0.00" timeLoss="13.97" rerouteNo="0" devices="tripinfo_120" vType="DEFAULT_VEHTYPE" speedFactor="1.03" vaporized=""/>
    <tripinfo id="34" depart="149.00" departLane="right2D2_0" departPos="5.10" departSpeed="0.00" departDelay="0.00" arrival="582.00" arrivalLane="A0left0_0" arrivalPos="286.40" arrivalSpeed="12.85" duration="433.00" routeLength="2080.05" waitingTime="244.00" waitingCount="4" stopTime="0.00" timeLoss="280.51" rerouteNo="0" devices="tripinfo_34" vType="DEFAULT_VEHTYPE" speedFactor="0.99" vaporized=""/>
    <tripinfo id="47" depart="210.00" departLane="right3D3_0" departPos="5.10" departSpeed="0.00" departDelay="0.00" arrival="583.00" arrivalLane="A0left0_1" arrivalPos="286.40" arrivalSpeed="14.59" duration="373.00" routeLength="2380.22" waitingTime="171.00" waitingCount="4" stopTime="0.00" timeLoss="209.01" rerouteNo="0" devices="tripinfo_47" vType="DEFAULT_VEHTYPE" speedFactor="1.06" vaporized=""/>
    <tripinfo id="38" depart="175.00" departLane="top2C3_0" departPos="5.10" departSpeed="0.00" departDelay="0.00" arrival="608.00" arrivalLane="D0bottom3_0" arrivalPos="286.40" arrivalSpeed="13.25" duration="433.00" routeLength="1782.59" waitingTime="282.00" waitingCount="3" stopTime="0.00" timeLoss="307.86" rerouteNo="0" devices="tripinfo_38" vType="DEFAULT_VEHTYPE" speedFactor="1.03" vaporized=""/>
    <tripinfo id="89" depart="378.00" departLane="right0D0_0" departPos="5.10" departSpeed="0.00" departDelay="0.00" arrival="623.00" arrivalLane="C3top2_0" arrivalPos="286.40" arrivalSpeed="13.65" duration="245.00" routeLength="1780.11" waitingTime="93.00" waitingCount="2" stopTime="0.00" timeLoss="119.95" rerouteNo="0" devices="tripinfo_89" vType="DEFAULT_VEHTYPE" speedFactor="1.03" vaporized=""/>
    <tripinfo id="108" depart="460.00" departLane="left2A2_0" departPos="5.10" departSpeed="0.00" departDelay="0.00" arrival="630.00" arrivalLane="C3top2_0" arrivalPos="286.40" arrivalSpeed="13.55" duration="170.00" routeLength="1495.35" waitingTime="41.00" waitingCount="3" stopTime="0.00" timeLoss="66.76" rerouteNo="0" devices="tripinfo_108" vType="DEFAULT_VEHTYPE" speedFactor="1.06" vaporized=""/>
    <tripinfo id="41" depart="183.00" departLane="top1B3_0" departPos="5.10" departSpeed="0.00" departDelay="0.00" arrival="631.00" arrivalLane="B0bottom1_0" arrivalPos="286.40" arrivalSpeed="13.91" duration="448.00" routeLength="1495.58" waitingTime="322.00" waitingCount="2" stopTime="0.00" timeLoss="342.29" rerouteNo="0" devices="tripinfo_41" vType="DEFAULT_VEHTYPE" speedFactor="1.02" vaporized=""/>
    <tripinfo id="109" depart="472.00" departLane="bottom2C0_0" departPos="5.10" departSpeed="0.00" departDelay="0.00" arrival="633.00" arrivalLane="C0bottom2_0" arrivalPos="286.40" arrivalSpeed="13.10" duration="161.00" routeLength="1748.75" waitingTime="5.00" waitingCount="3" stopTime="0.00" timeLoss="31.68" rerouteNo="0" devices="tripinfo_109" vType="DEFAULT_VEHTYPE" speedFactor="1.00" vaporized=""/>
    <tripinfo id="134" depart="558.00" departLane="left1A1_0" departPos="5.10" departSpeed="0.00" departDelay="0.00" arrival="634.00" arrivalLane="A0left0_0" arrivalPos="286.40" arrivalSpeed="14.06" duration="76.00" routeLength="858.56" waitingTime="1.00" waitingCount="1" stopTime="0.00" timeLoss="14.86" rerouteNo="0" devices="tripinfo_134" vType="DEFAULT_VEHTYPE" speedFactor="1.04" vaporized=""/>