<?xml version="1.0" encoding="UTF-8"?>

<!-- generated on 2023-08-30 13:06:04 by Eclipse SUMO libsumo Version 1.18.0
<configuration xmlns:xsi="http://www.w3.org/2001/XMLSchema-instance" xsi:noNamespaceSchemaLocation="http://sumo.dlr.de/xsd/libsumoConfiguration.xsd">

    <input>
        <net-file value="/home/stefan/RESCO/./environments/grid4x4/grid4x4.net.xml"/>
        <route-files value="/home/stefan/RESCO/./environments/grid4x4/grid4x4_18.rou.xml"/>
    </input>

    <output>
        <tripinfo-output value="/home/stefan/results/RAINBOW-tr0-grid4x4-0-drq_norm-wait_norm/tripinfo_18.xml"/>
        <tripinfo-output.write-unfinished value="true"/>
    </output>

    <processing>
        <time-to-teleport value="-1"/>
    </processing>

    <report>
        <no-warnings value="True"/>
        <no-step-log value="True"/>
    </report>

    <random_number>
        <random value="true"/>
    </random_number>

</configuration>
-->

<tripinfos xmlns:xsi="http://www.w3.org/2001/XMLSchema-instance" xsi:noNamespaceSchemaLocation="http://sumo.dlr.de/xsd/tripinfo_file.xsd">
    <tripinfo id="3" depart="14.00" departLane="right3D3_0" departPos="5.10" departSpeed="0.00" departDelay="0.00" arrival="111.00" arrivalLane="C3top2_0" arrivalPos="286.40" arrivalSpeed="17.08" duration="97.00" routeLength="876.90" waitingTime="25.00" waitingCount="2" stopTime="0.00" timeLoss="46.57" rerouteNo="0" devices="tripinfo_3" vType="DEFAULT_VEHTYPE" speedFactor="1.27" vaporized=""/>
    <tripinfo id="1" depart="6.00" departLane="left2A2_0" departPos="5.10" departSpeed="0.00" departDelay="0.00" arrival="158.00" arrivalLane="C0bottom2_0" arrivalPos="286.40" arrivalSpeed="14.87" duration="152.00" routeLength="1780.11" waitingTime="2.00" waitingCount="1" stopTime="0.00" timeLoss="33.37" rerouteNo="0" devices="tripinfo_1" vType="DEFAULT_VEHTYPE" speedFactor="1.09" vaporized=""/>
    <tripinfo id="7" depart="25.00" departLane="bottom1B0_0" departPos="5.10" departSpeed="0.00" departDelay="0.00" arrival="169.00" arrivalLane="D0right0_0" arrivalPos="286.40" arrivalSpeed="12.50" duration="144.00" routeLength="1179.77" waitingTime="42.00" waitingCount="1" stopTime="0.00" timeLoss="56.74" rerouteNo="0" devices="tripinfo_7" vType="DEFAULT_VEHTYPE" speedFactor="0.98" vaporized=""/>
    <tripinfo id="4" depart="15.00" departLane="top3D3_0" departPos="5.10" departSpeed="0.00" departDelay="0.00" arrival="183.00" arrivalLane="A3top0_0" arrivalPos="286.40" arrivalSpeed="10.70" duration="168.00" routeLength="1461.60" waitingTime="17.00" waitingCount="3" stopTime="0.00" timeLoss="43.80" rerouteNo="0" devices="tripinfo_4" vType="DEFAULT_VEHTYPE" speedFactor="0.86" vaporized=""/>
    <tripinfo id="6" depart="24.00" departLane="bottom0A0_0" departPos="5.10" departSpeed="0.00" departDelay="0.00" arrival="201.00" arrivalLane="A0bottom0_0" arrivalPos="286.40" arrivalSpeed="12.49" duration="177.00" routeLength="1748.75" waitingTime="12.00" waitingCount="3" stopTime="0.00" timeLoss="40.46" rerouteNo="0" devices="tripinfo_6" vType="DEFAULT_VEHTYPE" speedFactor="0.94" vaporized=""/>
    <tripinfo id="8" depart="33.00" departLane="top0A3_0" departPos="5.10" departSpeed="0.00" departDelay="0.00" arrival="208.00" arrivalLane="C3top2_0" arrivalPos="286.40" arrivalSpeed="13.70" duration="175.00" routeLength="1197.66" waitingTime="66.00" waitingCount="3" stopTime="0.00" timeLoss="91.85" rerouteNo="0" devices="tripinfo_8" vType="DEFAULT_VEHTYPE" speedFactor="1.05" vaporized=""/>
    <tripinfo id="30" depart="121.00" departLane="bottom0A0_0" departPos="5.10" departSpeed="0.00" departDelay="0.00" arrival="210.00" arrivalLane="B0bottom1_0" arrivalPos="286.40" arrivalSpeed="11.16" duration="89.00" routeLength="858.56" waitingTime="2.00" waitingCount="2" stopTime="0.00" timeLoss="18.38" rerouteNo="0" devices="tripinfo_30" vType="DEFAULT_VEHTYPE" speedFactor="0.89" vaporized=""/>
    <tripinfo id="0" depart="5.00" departLane="bottom1B0_0" departPos="5.10" departSpeed="0.00" departDelay="0.00" arrival="219.00" arrivalLane="B0bottom1_0" arrivalPos="286.40" arrivalSpeed="13.86" duration="214.00" routeLength="1748.75" waitingTime="53.00" waitingCount="5" stopTime="0.00" timeLoss="92.15" rerouteNo="0" devices="tripinfo_0" vType="DEFAULT_VEHTYPE" speedFactor="1.06" vaporized=""/>
    <tripinfo id="17" depart="68.00" departLane="left2A2_0" departPos="5.10" departSpeed="0.00" departDelay="2.00" arrival="221.00" arrivalLane="B3top1_0" arrivalPos="286.40" arrivalSpeed="12.60" duration="153.00" routeLength="1195.18" waitingTime="48.00" waitingCount="1" stopTime="0.00" timeLoss="63.69" rerouteNo="0" devices="tripinfo_17" vType="DEFAULT_VEHTYPE" speedFactor="0.98" vaporized=""/>
    <tripinfo id="18" depart="71.00" departLane="left2A2_0" departPos="5.10" departSpeed="0.00" departDelay="2.00" arrival="222.00" arrivalLane="B3top1_1" arrivalPos="286.40" arrivalSpeed="13.40" duration="151.00" routeLength="1195.18" waitingTime="48.00" waitingCount="1" stopTime="0.00" timeLoss="63.41" rerouteNo="0" devices="tripinfo_18" vType="DEFAULT_VEHTYPE" speedFactor="0.99" vaporized=""/>
    <tripinfo id="28" depart="114.00" departLane="left0A0_0" departPos="5.10" departSpeed="0.00" departDelay="0.00" arrival="233.00" arrivalLane="A2left2_0" arrivalPos="286.40" arrivalSpeed="11.62" duration="119.00" routeLength="1197.66" waitingTime="1.00" waitingCount="1" stopTime="0.00" timeLoss="17.66" rerouteNo="0" devices="tripinfo_28" vType="DEFAULT_VEHTYPE" speedFactor="0.87" vaporized=""/>
    <tripinfo id="25" depart="104.00" departLane="top2C3_0" departPos="5.10" departSpeed="0.00" departDelay="0.00" arrival="236.00" arrivalLane="D2right2_0" arrivalPos="286.40" arrivalSpeed="15.60" duration="132.00" routeLength="1195.18" waitingTime="33.00" waitingCount="3" stopTime="0.00" timeLoss="58.43" rerouteNo="0" devices="tripinfo_25" vType="DEFAULT_VEHTYPE" speedFactor="1.18" vaporized=""/>
    <tripinfo id="29" depart="118.00" departLane="left0A0_0" departPos="5.10" departSpeed="0.00" departDelay="0.00" arrival="257.00" arrivalLane="A3top0_0" arrivalPos="286.40" arrivalSpeed="14.04" duration="139.00" routeLength="1495.35" waitingTime="6.00" waitingCount="2" stopTime="0.00" timeLoss="39.93" rerouteNo="0" devices="tripinfo_29" vType="DEFAULT_VEHTYPE" speedFactor="1.10" vaporized=""/>
    <tripinfo id="20" depart="88.00" departLane="top0A3_0" departPos="5.10" departSpeed="0.00" departDelay="0.00" arrival="258.00" arrivalLane="A3top0_1" arrivalPos="286.40" arrivalSpeed="15.16" duration="170.00" routeLength="1745.91" waitingTime="29.00" waitingCount="3" stopTime="0.00" timeLoss="60.49" rerouteNo="0" devices="tripinfo_20" vType="DEFAULT_VEHTYPE" speedFactor="1.17" vaporized=""/>
    <tripinfo id="19" depart="77.00" departLane="left2A2_0" departPos="5.10" departSpeed="0.00" departDelay="0.00" arrival="261.00" arrivalLane="A3left3_0" arrivalPos="286.40" arrivalSpeed="12.90" duration="184.00" routeLength="894.86" waitingTime="99.00" waitingCount="2" stopTime="0.00" timeLoss="115.60" rerouteNo="0" devices="tripinfo_19" vType="DEFAULT_VEHTYPE" speedFactor="0.96" vaporized=""/>
    <tripinfo id="42" depart="154.00" departLane="left2A2_0" departPos="5.10" departSpeed="0.00" departDelay="0.00" arrival="263.00" arrivalLane="A3left3_0" arrivalPos="286.40" arrivalSpeed="13.49" duration="109.00" routeLength="894.86" waitingTime="23.00" waitingCount="2" stopTime="0.00" timeLoss="41.58" rerouteNo="0" devices="tripinfo_42" vType="DEFAULT_VEHTYPE" speedFactor="0.98" vaporized=""/>
    <tripinfo id="38" depart="144.00" departLane="left1A1_0" departPos="5.10" departSpeed="0.00" departDelay="0.00" arrival="264.00" arrivalLane="A3left3_1" arrivalPos="286.40" arrivalSpeed="12.99" duration="120.00" routeLength="1197.66" waitingTime="12.00" waitingCount="2" stopTime="0.00" timeLoss="33.60" rerouteNo="0" devices="tripinfo_38" vType="DEFAULT_VEHTYPE" speedFactor="1.01" vaporized=""/>
    <tripinfo id="16" depart="66.00" departLane="top1B3_0" departPos="5.10" departSpeed="0.00" departDelay="0.00" arrival="272.00" arrivalLane="D0bottom3_1" arrivalPos="286.40" arrivalSpeed="14.91" duration="206.00" routeLength="2080.05" waitingTime="20.00" waitingCount="4" stopTime="0.00" timeLoss="70.65" rerouteNo="0" devices="tripinfo_16" vType="DEFAULT_VEHTYPE" speedFactor="1.12" vaporized=""/>
    <tripinfo id="14" depart="62.00" departLane="top1B3_0" departPos="5.10" departSpeed="0.00" departDelay="0.00" arrival="273.00" arrivalLane="D0bottom3_0" arrivalPos="286.40" arrivalSpeed="13.49" duration="211.00" routeLength="2080.05" waitingTime="22.00" waitingCount="4" stopTime="0.00" timeLoss="56.04" rerouteNo="0" devices="tripinfo_14" vType="DEFAULT_VEHTYPE" speedFactor="0.98" vaporized=""/>
    <tripinfo id="12" depart="58.00" departLane="left1A1_0" departPos="5.10" departSpeed="0.00" departDelay="0.00" arrival="277.00" arrivalLane="C0bottom2_0" arrivalPos="286.40" arrivalSpeed="15.31" duration="219.00" routeLength="1479.94" waitingTime="91.00" waitingCount="4" stopTime="0.00" timeLoss="121.54" rerouteNo="0" devices="tripinfo_12" vType="DEFAULT_VEHTYPE" speedFactor="1.11" vaporized=""/>
    <tripinfo id="2" depart="13.00" departLane="left2A2_0" departPos="5.10" departSpeed="0.00" departDelay="0.00" arrival="289.00" arrivalLane="D1right1_0" arrivalPos="286.40" arrivalSpeed="13.24" duration="276.00" routeLength="1782.72" waitingTime="117.00" waitingCount="4" stopTime="0.00" timeLoss="151.29" rerouteNo="0" devices="tripinfo_2" vType="DEFAULT_VEHTYPE" speedFactor="1.04" vaporized=""/>
    <tripinfo id="39" depart="148.00" departLane="top2C3_0" departPos="5.10" departSpeed="0.00" departDelay="0.00" arrival="292.00" arrivalLane="A3top0_0" arrivalPos="286.40" arrivalSpeed="11.93" duration="144.00" routeLength="1161.43" waitingTime="25.00" waitingCount="3" stopTime="0.00" timeLoss="52.89" rerouteNo="0" devices="tripinfo_39" vType="DEFAULT_VEHTYPE" speedFactor="0.93" vaporized=""/>
    <tripinfo id="48" depart="191.00" departLane="top0A3_0" departPos="5.10" departSpeed="0.00" departDelay="0.00" arrival="294.00" arrivalLane="A2left2_0" arrivalPos="286.40" arrivalSpeed="13.82" duration="103.00" routeLength="876.90" waitingTime="27.00" waitingCount="2" stopTime="0.00" timeLoss="42.23" rerouteNo="0" devices="tripinfo_48" vType="DEFAULT_VEHTYPE" speedFactor="1.06" vaporized=""/>
    <tripinfo id="22" depart="90.00" departLane="bottom0A0_0" departPos="5.10" departSpeed="0.00" departDelay="0.00" arrival="307.00" arrivalLane="B3top1_0" arrivalPos="286.40" arrivalSpeed="10.25" duration="217.00" routeLength="1782.72" waitingTime="29.00" waitingCount="1" stopTime="0.00" timeLoss="51.26" rerouteNo="0" devices="tripinfo_22" vType="DEFAULT_VEHTYPE" speedFactor="0.79" vaporized=""/>
    <tripinfo id="33" depart="126.00" departLane="right3D3_0" departPos="5.10" departSpeed="0.00" departDelay="0.00" arrival="307.00" arrivalLane="B3top1_1" arrivalPos="286.40" arrivalSpeed="11.53" duration="181.00" routeLength="1177.07" waitingTime="65.00" waitingCount="3" stopTime="0.00" timeLoss="87.77" rerouteNo="0" devices="tripinfo_33" vType="DEFAULT_VEHTYPE" speedFactor="0.92" vaporized=""/>
    <tripinfo id="43" depart="159.00" departLane="right3D3_0" departPos="5.10" departSpeed="0.00" departDelay="0.00" arrival="315.00" arrivalLane="B3top1_0" arrivalPos="286.40" arrivalSpeed="11.73" duration="156.00" routeLength="1177.07" waitingTime="38.00" waitingCount="3" stopTime="0.00" timeLoss="62.41" rerouteNo="0" devices="tripinfo_43" vType="DEFAULT_VEHTYPE" speedFactor="0.92" vaporized=""/>
    <tripinfo id="27" depart="114.00" departLane="top3D3_0" departPos="5.10" departSpeed="0.00" departDelay="0.00" arrival="316.00" arrivalLane="A2left2_0" arrivalPos="286.40" arrivalSpeed="15.44" duration="202.00" routeLength="1780.11" waitingTime="57.00" waitingCount="4" stopTime="0.00" timeLoss="89.85" rerouteNo="0" devices="tripinfo_27" vType="DEFAULT_VEHTYPE" speedFactor="1.15" vaporized=""/>
    <tripinfo id="37" depart="143.00" departLane="right1D1_0" departPos="5.10" departSpeed="0.00" departDelay="1.00" arrival="321.00" arrivalLane="A2left2_0" arrivalPos="286.40" arrivalSpeed="14.13" duration="178.00" routeLength="1782.72" waitingTime="24.00" waitingCount="3" stopTime="0.00" timeLoss="49.80" rerouteNo="0" devices="tripinfo_37" vType="DEFAULT_VEHTYPE" speedFactor="1.02" vaporized=""/>
    <tripinfo id="10" depart="53.00" departLane="right1D1_0" departPos="5.10" departSpeed="0.00" departDelay="0.00" arrival="325.00" arrivalLane="A3top0_0" arrivalPos="286.40" arrivalSpeed="12.65" duration="272.00" routeLength="2080.28" waitingTime="75.00" waitingCount="4" stopTime="0.00" timeLoss="110.26" rerouteNo="0" devices="tripinfo_10" vType="DEFAULT_VEHTYPE" speedFactor="0.93" vaporized=""/>
    <tripinfo id="21" depart="90.00" departLane="bottom2C0_0" departPos="5.10" departSpeed="0.00" departDelay="0.00" arrival="328.00" arrivalLane="C0bottom2_0" arrivalPos="286.40" arrivalSpeed="14.48" duration="238.00" routeLength="1748.75" waitingTime="86.00" waitingCount="3" stopTime="0.00" timeLoss="117.79" rerouteNo="0" devices="tripinfo_21" vType="DEFAULT_VEHTYPE" speedFactor="1.07" vaporized=""/>
    <tripinfo id="15" depart="65.00" departLane="left2A2_0" departPos="5.10" departSpeed="0.00" departDelay="0.00" arrival="341.00" arrivalLane="D3right3_0" arrivalPos="286.40" arrivalSpeed="12.93" duration="276.00" routeLength="1782.59" waitingTime="109.00" waitingCount="3" stopTime="0.00" timeLoss="137.10" rerouteNo="0" devices="tripinfo_15" vType="DEFAULT_VEHTYPE" speedFactor="0.94" vaporized=""/>
    <tripinfo id="24" depart="103.00" departLane="bottom1B0_0" departPos="5.10" departSpeed="0.00" departDelay="0.00" arrival="341.00" arrivalLane="C3top2_0" arrivalPos="286.40" arrivalSpeed="12.80" duration="238.00" routeLength="1782.72" waitingTime="74.00" waitingCount="3" stopTime="0.00" timeLoss="100.68" rerouteNo="0" devices="tripinfo_24" vType="DEFAULT_VEHTYPE" speedFactor="0.95" vaporized=""/>
    <tripinfo id="47" depart="189.00" departLane="left3A3_0" departPos="5.10" departSpeed="0.00" departDelay="0.00" arrival="348.00" arrivalLane="D3top3_0" arrivalPos="286.40" arrivalSpeed="15.33" duration="159.00" routeLength="1498.06" waitingTime="38.00" waitingCount="2" stopTime="0.00" timeLoss="59.88" rerouteNo="0" devices="tripinfo_47" vType="DEFAULT_VEHTYPE" speedFactor="1.10" vaporized=""/>
    <tripinfo id="26" depart="113.00" departLane="right1D1_0" departPos="5.10" departSpeed="0.00" departDelay="0.00" arrival="358.00" arrivalLane="A3top0_0" arrivalPos="286.40" arrivalSpeed="14.01" duration="245.00" routeLength="2080.28" waitingTime="69.00" waitingCount="2" stopTime="0.00" timeLoss="97.12" rerouteNo="0" devices="tripinfo_26" vType="DEFAULT_VEHTYPE" speedFactor="1.02" vaporized=""/>
    <tripinfo id="41" depart="150.00" departLane="bottom0A0_0" departPos="5.10" departSpeed="0.00" departDelay="0.00" arrival="361.00" arrivalLane="B3top1_0" arrivalPos="286.40" arrivalSpeed="12.05" duration="211.00" routeLength="1782.72" waitingTime="36.00" waitingCount="3" stopTime="0.00" timeLoss="72.86" rerouteNo="0" devices="tripinfo_41" vType="DEFAULT_VEHTYPE" speedFactor="0.94" vaporized=""/>
    <tripinfo id="40" depart="149.00" departLane="top1B3_0" departPos="5.10" departSpeed="0.00" departDelay="0.00" arrival="368.00" arrivalLane="A0left0_0" arrivalPos="286.40" arrivalSpeed="13.97" duration="219.00" routeLength="1780.11" waitingTime="72.00" waitingCount="3" stopTime="0.00" timeLoss="97.45" rerouteNo="0" devices="tripinfo_40" vType="DEFAULT_VEHTYPE" speedFactor="1.06" vaporized=""/>
    <tripinfo id="45" depart="173.00" departLane="right2D2_0" departPos="5.10" departSpeed="0.00" departDelay="0.00" arrival="373.00" arrivalLane="C3top2_0" arrivalPos="286.40" arrivalSpeed="11.02" duration="200.00" routeLength="1179.77" waitingTime="78.00" waitingCount="3" stopTime="0.00" timeLoss="100.87" rerouteNo="0" devices="tripinfo_45" vType="DEFAULT_VEHTYPE" speedFactor="0.87" vaporized=""/>
    <tripinfo id="57" depart="302.00" departLane="right2D2_0" departPos="5.10" departSpeed="0.00" departDelay="0.00" arrival="376.00" arrivalLane="D3right3_0" arrivalPos="286.40" arrivalSpeed="17.11" duration="74.00" routeLength="858.56" waitingTime="2.00" waitingCount="2" stopTime="0.00" timeLoss="23.53" rerouteNo="0" devices="tripinfo_57" vType="DEFAULT_VEHTYPE" speedFactor="1.24" vaporized=""/>
    <tripinfo id="54" depart="250.00" departLane="top2C3_0" departPos="5.10" departSpeed="0.00" departDelay="0.00" arrival="380.00" arrivalLane="A3left3_0" arrivalPos="286.40" arrivalSpeed="12.76" duration="130.00" routeLength="1179.77" waitingTime="25.00" waitingCount="2" stopTime="0.00" timeLoss="43.27" rerouteNo="0" devices="tripinfo_54" vType="DEFAULT_VEHTYPE" speedFactor="1.00" vaporized=""/>
    <tripinfo id="32" depart="124.00" departLane="right1D1_0" departPos="5.10" departSpeed="0.00" departDelay="0.00" arrival="386.00" arrivalLane="B0bottom1_0" arrivalPos="286.40" arrivalSpeed="16.06" duration="262.00" routeLength="1495.35" waitingTime="144.00" waitingCount="3" stopTime="0.00" timeLoss="172.10" rerouteNo="0" devices="tripinfo_32" vType="DEFAULT_VEHTYPE" speedFactor="1.21" vaporized=""/>
    <tripinfo id="46" depart="180.00" departLane="right3D3_0" departPos="5.10" departSpeed="0.00" departDelay="0.00" arrival="390.00" arrivalLane="D3right3_1" arrivalPos="286.40" arrivalSpeed="14.33" duration="210.00" routeLength="1745.91" waitingTime="46.00" waitingCount="5" stopTime="0.00" timeLoss="91.82" rerouteNo="0" devices="tripinfo_46" vType="DEFAULT_VEHTYPE" speedFactor="1.08" vaporized=""/>
    <tripinfo id="5" depart="18.00" departLane="left0A0_0" departPos="5.10" departSpeed="0.00" departDelay="0.00" arrival="395.00" arrivalLane="D3right3_0" arrivalPos="286.40" arrivalSpeed="10.55" duration="377.00" routeLength="2380.22" waitingTime="118.00" waitingCount="5" stopTime="0.00" timeLoss="159.95" rerouteNo="0" devices="tripinfo_5" vType="DEFAULT_VEHTYPE" speedFactor="0.80" vaporized=""/>
    <tripinfo id="52" depart="230.00" departLane="left0A0_0" departPos="5.10" departSpeed="0.00" departDelay="0.00" arrival="397.00" arrivalLane="A1left1_0" arrivalPos="286.40" arrivalSpeed="15.38" duration="167.00" routeLength="894.86" waitingTime="91.00" waitingCount="2" stopTime="0.00" timeLoss="107.95" rerouteNo="0" devices="tripinfo_52" vType="DEFAULT_VEHTYPE" speedFactor="1.11" vaporized=""/>
    <tripinfo id="60" depart="313.00" departLane="right0D0_0" departPos="5.10" departSpeed="0.00" departDelay="0.00" arrival="399.00" arrivalLane="C0bottom2_0" arrivalPos="286.40" arrivalSpeed="13.95" duration="86.00" routeLength="897.72" waitingTime="5.00" waitingCount="2" stopTime="0.00" timeLoss="21.25" rerouteNo="0" devices="tripinfo_60" vType="DEFAULT_VEHTYPE" speedFactor="1.01" vaporized=""/>
    <tripinfo id="35" depart="140.00" departLane="right1D1_0" departPos="5.10" departSpeed="0.00" departDelay="0.00" arrival="402.00" arrivalLane="A0bottom0_0" arrivalPos="286.40" arrivalSpeed="12.25" duration="262.00" routeLength="1795.52" waitingTime="77.00" waitingCount="4" stopTime="0.00" timeLoss="115.40" rerouteNo="0" devices="tripinfo_35" vType="DEFAULT_VEHTYPE" speedFactor="0.89" vaporized=""/>
    <tripinfo id="44" depart="160.00" departLane="right0D0_0" departPos="5.10" departSpeed="0.00" departDelay="0.00" arrival="402.00" arrivalLane="D0right0_0" arrivalPos="286.40" arrivalSpeed="13.88" duration="242.00" routeLength="1748.75" waitingTime="88.00" waitingCount="3" stopTime="0.00" timeLoss="115.39" rerouteNo="0" devices="tripinfo_44" vType="DEFAULT_VEHTYPE" speedFactor="1.02" vaporized=""/>
    <tripinfo id="13" depart="61.00" departLane="top0A3_0" departPos="5.10" departSpeed="0.00" departDelay="0.00" arrival="409.00" arrivalLane="D0bottom3_0" arrivalPos="286.40" arrivalSpeed="13.32" duration="348.00" routeLength="2380.22" waitingTime="138.00" waitingCount="5" stopTime="0.00" timeLoss="181.42" rerouteNo="0" devices="tripinfo_13" vType="DEFAULT_VEHTYPE" speedFactor="1.04" vaporized=""/>
    <tripinfo id="61" depart="317.00" departLane="bottom0A0_0" departPos="5.10" departSpeed="0.00" departDelay="0.00" arrival="418.00" arrivalLane="A1left1_0" arrivalPos="286.40" arrivalSpeed="14.64" duration="101.00" routeLength="897.72" waitingTime="29.00" waitingCount="1" stopTime="0.00" timeLoss="43.15" rerouteNo="0" devices="tripinfo_61" vType="DEFAULT_VEHTYPE" speedFactor="1.13" vaporized=""/>
    <tripinfo id="11" depart="55.00" departLane="left1A1_0" departPos="5.10" departSpeed="0.00" departDelay="0.00" arrival="422.00" arrivalLane="D2right2_0" arrivalPos="286.40" arrivalSpeed="7.61" duration="367.00" routeLength="1782.59" waitingTime="129.00" waitingCount="5" stopTime="0.00" timeLoss="163.45" rerouteNo="0" devices="tripinfo_11" vType="DEFAULT_VEHTYPE" speedFactor="0.64" vaporized=""/>
    <tripinfo id="68" depart="352.00" departLane="top0A3_0" departPos="5.10" departSpeed="0.00" departDelay="0.00" arrival="431.00" arrivalLane="B3top1_0" arrivalPos="286.40" arrivalSpeed="12.13" duration="79.00" routeLength="894.86" waitingTime="0.00" waitingCount="0" stopTime="0.00" timeLoss="7.56" rerouteNo="0" devices="tripinfo_68" vType="DEFAULT_VEHTYPE" speedFactor="0.93" vaporized=""/>
    <tripinfo id="31" depart="122.00" departLane="right3D3_0" departPos="5.10" departSpeed="0.00" departDelay="0.00" arrival="436.00" arrivalLane="D0bottom3_0" arrivalPos="286.40" arrivalSpeed="10.89" duration="314.00" routeLength="1495.35" waitingTime="157.00" waitingCount="3" stopTime="0.00" timeLoss="183.22" rerouteNo="0" devices="tripinfo_31" vType="DEFAULT_VEHTYPE" speedFactor="0.83" vaporized=""/>
    <tripinfo id="51" depart="228.00" departLane="top0A3_0" departPos="5.10" departSpeed="0.00" departDelay="0.00" arrival="447.00" arrivalLane="B0bottom1_0" arrivalPos="286.40" arrivalSpeed="13.96" duration="219.00" routeLength="1782.59" waitingTime="69.00" waitingCount="4" stopTime="0.00" timeLoss="101.12" rerouteNo="0" devices="tripinfo_51" vType="DEFAULT_VEHTYPE" speedFactor="1.10" vaporized=""/>
    <tripinfo id="34" depart="130.00" departLane="left1A1_0" departPos="5.10" departSpeed="0.00" departDelay="0.00" arrival="451.00" arrivalLane="D3right3_0" arrivalPos="286.40" arrivalSpeed="11.29" duration="321.00" routeLength="2080.05" waitingTime="110.00" waitingCount="4" stopTime="0.00" timeLoss="143.68" rerouteNo="0" devices="tripinfo_34" vType="DEFAULT_VEHTYPE" speedFactor="0.85" vaporized=""/>
    <tripinfo id="49" depart="195.00" departLane="top2C3_0" departPos="5.10" departSpeed="0.00" departDelay="0.00" arrival="454.00" arrivalLane="A1left1_0" arrivalPos="286.40" arrivalSpeed="11.29" duration="259.00" routeLength="1780.11" waitingTime="73.00" waitingCount="3" stopTime="0.00" timeLoss="104.32" rerouteNo="0" devices="tripinfo_49" vType="DEFAULT_VEHTYPE" speedFactor="0.83" vaporized=""/>
    <tripinfo id="59" depart="308.00" departLane="right1D1_0" departPos="5.10" departSpeed="0.00" departDelay="0.00" arrival="463.00" arrivalLane="D3top3_0" arrivalPos="286.40" arrivalSpeed="11.09" duration="155.00" routeLength="1179.77" waitingTime="40.00" waitingCount="1" stopTime="0.00" timeLoss="54.55" rerouteNo="0" devices="tripinfo_59" vType="DEFAULT_VEHTYPE" speedFactor="0.86" vaporized=""/>
    <tripinfo id="53" depart="234.00" departLane="bottom3D0_0" departPos="5.10" departSpeed="0.00" departDelay="0.00" arrival="464.00" arrivalLane="A0bottom0_0" arrivalPos="286.40" arrivalSpeed="10.97" duration="230.00" routeLength="1497.83" waitingTime="88.00" waitingCount="1" stopTime="0.00" timeLoss="102.42" rerouteNo="0" devices="tripinfo_53" vType="DEFAULT_VEHTYPE" speedFactor="0.86" vaporized=""/>
    <tripinfo id="85" depart="444.00" departLane="right0D0_0" departPos="5.10" departSpeed="0.00" departDelay="0.00" arrival="494.00" arrivalLane="D0bottom3_0" arrivalPos="286.40" arrivalSpeed="12.96" duration="50.00" routeLength="597.55" waitingTime="0.00" waitingCount="0" stopTime="0.00" timeLoss="5.24" rerouteNo="0" devices="tripinfo_85" vType="DEFAULT_VEHTYPE" speedFactor="0.98" vaporized=""/>
    <tripinfo id="69" depart="365.00" departLane="right1D1_0" departPos="5.10" departSpeed="0.00" departDelay="0.00" arrival="507.00" arrivalLane="D3top3_1" arrivalPos="286.40" arrivalSpeed="15.05" duration="142.00" routeLength="1179.77" waitingTime="41.00" waitingCount="2" stopTime="0.00" timeLoss="65.28" rerouteNo="0" devices="tripinfo_69" vType="DEFAULT_VEHTYPE" speedFactor="1.12" vaporized=""/>
    <tripinfo id="72" depart="395.00" departLane="top2C3_0" departPos="5.10" departSpeed="0.00" departDelay="0.00" arrival="507.00" arrivalLane="D3top3_0" arrivalPos="286.40" arrivalSpeed="12.10" duration="112.00" routeLength="894.86" waitingTime="29.00" waitingCount="1" stopTime="0.00" timeLoss="41.16" rerouteNo="0" devices="tripinfo_72" vType="DEFAULT_VEHTYPE" speedFactor="0.93" vaporized=""/>
    <tripinfo id="56" depart="289.00" departLane="right1D1_0" departPos="5.10" departSpeed="0.00" departDelay="0.00" arrival="510.00" arrivalLane="C3top2_0" arrivalPos="286.40" arrivalSpeed="12.82" duration="221.00" routeLength="1479.94" waitingTime="85.00" waitingCount="3" stopTime="0.00" timeLoss="110.67" rerouteNo="0" devices="tripinfo_56" vType="DEFAULT_VEHTYPE" speedFactor="0.98" vaporized=""/>
    <tripinfo id="78" depart="407.00" departLane="right3D3_0" departPos="5.10" departSpeed="0.00" departDelay="0.00" arrival="514.00" arrivalLane="C3top2_0" arrivalPos="286.40" arrivalSpeed="12.37" duration="107.00" routeLength="876.90" waitingTime="23.00" waitingCount="2" stopTime="0.00" timeLoss="39.61" rerouteNo="0" devices="tripinfo_78" vType="DEFAULT_VEHTYPE" speedFactor="0.95" vaporized=""/>
    <tripinfo id="23" depart="98.00" departLane="top3D3_0" departPos="5.10" departSpeed="0.00" departDelay="0.00" arrival="541.00" arrivalLane="B0bottom1_0" arrivalPos="286.40" arrivalSpeed="12.15" duration="443.00" routeLength="2082.76" waitingTime="247.00" waitingCount="4" stopTime="0.00" timeLoss="283.90" rerouteNo="0" devices="tripinfo_23" vType="DEFAULT_VEHTYPE" speedFactor="0.95" vaporized=""/>
    <tripinfo id="73" depart="397.00" departLane="bottom0A0_0" departPos="5.10" departSpeed="0.00" departDelay="0.00" arrival="543.00" arrivalLane="D0bottom3_0" arrivalPos="286.40" arrivalSpeed="15.16" duration="146.00" routeLength="1461.60" waitingTime="23.00" waitingCount="3" stopTime="0.00" timeLoss="52.54" rerouteNo="0" devices="tripinfo_73" vType="DEFAULT_VEHTYPE" speedFactor="1.14" vaporized=""/>
    <tripinfo id="58" depart="304.00" departLane="bottom3D0_0" departPos="5.10" departSpeed="0.00" departDelay="0.00" arrival="547.00" arrivalLane="A0bottom0_0" arrivalPos="286.40" arrivalSpeed="14.77" duration="243.00" routeLength="1497.83" waitingTime="114.00" waitingCount="4" stopTime="0.00" timeLoss="146.56" rerouteNo="0" devices="tripinfo_58" vType="DEFAULT_VEHTYPE" speedFactor="1.13" vaporized=""/>
    <tripinfo id="66" depart="344.00" departLane="right2D2_0" departPos="5.10" departSpeed="0.00" departDelay="0.00" arrival="556.00" arrivalLane="D2right2_0" arrivalPos="286.40" arrivalSpeed="16.40" duration="212.00" routeLength="1748.75" waitingTime="79.00" waitingCount="3" stopTime="0.00" timeLoss="108.43" rerouteNo="0" devices="tripinfo_66" vType="DEFAULT_VEHTYPE" speedFactor="1.25" vaporized=""/>
    <tripinfo id="9" depart="49.00" departLane="top3D3_0" departPos="5.10" departSpeed="0.00" departDelay="0.00" arrival="557.00" arrivalLane="A0left0_0" arrivalPos="286.40" arrivalSpeed="15.28" duration="508.00" routeLength="2380.45" waitingTime="299.00" waitingCount="6" stopTime="0.00" timeLoss="351.88" rerouteNo="0" devices="tripinfo_9" vType="DEFAULT_VEHTYPE" speedFactor="1.10" vaporized=""/>
    <tripinfo id="67" depart="348.00" departLane="top0A3_0" departPos="5.10" departSpeed="0.00" departDelay="0.00" arrival="567.00" arrivalLane="A0left0_0" arrivalPos="286.40" arrivalSpeed="13.58" duration="219.00" routeLength="1477.24" waitingTime="82.00" waitingCount="4" stopTime="0.00" timeLoss="110.69" rerouteNo="0" devices="tripinfo_67" vType="DEFAULT_VEHTYPE" speedFactor="0.99" vaporized=""/>
    <tripinfo id="75" depart="401.00" departLane="left3A3_0" departPos="5.10" departSpeed="0.00" departDelay="0.00" arrival="576.00" arrivalLane="D3right3_0" arrivalPos="286.40" arrivalSpeed="12.13" duration="175.00" routeLength="1495.58" waitingTime="42.00" waitingCount="1" stopTime="0.00" timeLoss="58.45" rerouteNo="0" devices="tripinfo_75" vType="DEFAULT_VEHTYPE" speedFactor="0.93" vaporized=""/>
    <tripinfo id="92" depart="481.00" departLane="left2A2_0" departPos="5.10" departSpeed="0.00" departDelay="0.00" arrival="595.00" arrivalLane="A0bottom0_0" arrivalPos="286.40" arrivalSpeed="11.72" duration="114.00" routeLength="1179.77" waitingTime="8.00" waitingCount="1" stopTime="0.00" timeLoss="22.35" rerouteNo="0" devices="tripinfo_92" vType="DEFAULT_VEHTYPE" speedFactor="0.93" vaporized=""/>
    <tripinfo id="50" depart="226.00" departLane="right2D2_0" departPos="5.10" departSpeed="0.00" departDelay="0.00" arrival="596.00" arrivalLane="A1left1_0" arrivalPos="286.40" arrivalSpeed="10.18" duration="370.00" routeLength="1782.59" waitingTime="163.00" waitingCount="5" stopTime="0.00" timeLoss="200.27" rerouteNo="0" devices="tripinfo_50" vType="DEFAULT_VEHTYPE" speedFactor="0.76" vaporized=""/>
    <tripinfo id="55" depart="284.00" departLane="top3D3_0" departPos="5.10" departSpeed="0.00" departDelay="0.00" arrival="598.00" arrivalLane="D1right1_0" arrivalPos="286.40" arrivalSpeed="14.44" duration="314.00" routeLength="1197.89" waitingTime="209.00" waitingCount="3" stopTime="0.00" timeLoss="232.31" rerouteNo="0" devices="tripinfo_55" vType="DEFAULT_VEHTYPE" speedFactor="1.07" vaporized=""/>