<?xml version="1.0" encoding="UTF-8"?>

<!-- generated on 2023-08-30 13:54:32 by Eclipse SUMO libsumo Version 1.18.0
<configuration xmlns:xsi="http://www.w3.org/2001/XMLSchema-instance" xsi:noNamespaceSchemaLocation="http://sumo.dlr.de/xsd/libsumoConfiguration.xsd">

    <input>
        <net-file value="/home/stefan/RESCO/./environments/grid4x4/grid4x4.net.xml"/>
        <route-files value="/home/stefan/RESCO/./environments/grid4x4/grid4x4_90.rou.xml"/>
    </input>

    <output>
        <tripinfo-output value="/home/stefan/results/RAINBOW-tr0-grid4x4-0-drq_norm-wait_norm/tripinfo_90.xml"/>
        <tripinfo-output.write-unfinished value="true"/>
    </output>

    <processing>
        <time-to-teleport value="-1"/>
    </processing>

    <report>
        <no-warnings value="True"/>
        <no-step-log value="True"/>
    </report>

    <random_number>
        <random value="true"/>
    </random_number>

</configuration>
-->

<tripinfos xmlns:xsi="http://www.w3.org/2001/XMLSchema-instance" xsi:noNamespaceSchemaLocation="http://sumo.dlr.de/xsd/tripinfo_file.xsd">
    <tripinfo id="0" depart="1.00" departLane="right3D3_0" departPos="5.10" departSpeed="0.00" departDelay="0.00" arrival="63.00" arrivalLane="D3top3_0" arrivalPos="286.40" arrivalSpeed="10.98" duration="62.00" routeLength="576.73" waitingTime="1.00" waitingCount="1" stopTime="0.00" timeLoss="10.88" rerouteNo="0" devices="tripinfo_0" vType="DEFAULT_VEHTYPE" speedFactor="0.82" vaporized=""/>
    <tripinfo id="19" depart="107.00" departLane="left0A0_0" departPos="5.10" departSpeed="0.00" departDelay="0.00" arrival="164.00" arrivalLane="A0bottom0_0" arrivalPos="286.40" arrivalSpeed="12.30" duration="57.00" routeLength="576.73" waitingTime="1.00" waitingCount="1" stopTime="0.00" timeLoss="10.16" rerouteNo="0" devices="tripinfo_19" vType="DEFAULT_VEHTYPE" speedFactor="0.90" vaporized=""/>
    <tripinfo id="26" depart="124.00" departLane="left3A3_0" departPos="5.10" departSpeed="0.00" departDelay="0.00" arrival="200.00" arrivalLane="A2left2_0" arrivalPos="286.40" arrivalSpeed="13.57" duration="76.00" routeLength="858.56" waitingTime="1.00" waitingCount="1" stopTime="0.00" timeLoss="15.19" rerouteNo="0" devices="tripinfo_26" vType="DEFAULT_VEHTYPE" speedFactor="1.05" vaporized=""/>
    <tripinfo id="33" depart="138.00" departLane="right1D1_0" departPos="5.10" departSpeed="0.00" departDelay="0.00" arrival="218.00" arrivalLane="D2right2_0" arrivalPos="286.40" arrivalSpeed="13.44" duration="80.00" routeLength="858.56" waitingTime="2.00" waitingCount="2" stopTime="0.00" timeLoss="18.28" rerouteNo="0" devices="tripinfo_33" vType="DEFAULT_VEHTYPE" speedFactor="1.03" vaporized=""/>
    <tripinfo id="36" depart="145.00" departLane="top3D3_0" departPos="5.10" departSpeed="0.00" departDelay="0.00" arrival="227.00" arrivalLane="C3top2_0" arrivalPos="286.40" arrivalSpeed="12.57" duration="82.00" routeLength="858.56" waitingTime="1.00" waitingCount="1" stopTime="0.00" timeLoss="13.67" rerouteNo="0" devices="tripinfo_36" vType="DEFAULT_VEHTYPE" speedFactor="0.93" vaporized=""/>
    <tripinfo id="24" depart="122.00" departLane="bottom1B0_0" departPos="5.10" departSpeed="0.00" departDelay="0.00" arrival="235.00" arrivalLane="D0bottom3_0" arrivalPos="286.40" arrivalSpeed="13.47" duration="113.00" routeLength="1161.43" waitingTime="7.00" waitingCount="3" stopTime="0.00" timeLoss="30.84" rerouteNo="0" devices="tripinfo_24" vType="DEFAULT_VEHTYPE" speedFactor="1.03" vaporized=""/>
    <tripinfo id="49" depart="230.00" departLane="top2C3_0" departPos="5.10" departSpeed="0.00" departDelay="0.00" arrival="315.00" arrivalLane="B3top1_0" arrivalPos="286.40" arrivalSpeed="12.87" duration="85.00" routeLength="858.56" waitingTime="2.00" waitingCount="2" stopTime="0.00" timeLoss="18.44" rerouteNo="0" devices="tripinfo_49" vType="DEFAULT_VEHTYPE" speedFactor="0.95" vaporized=""/>
    <tripinfo id="53" depart="240.00" departLane="left2A2_0" departPos="5.10" departSpeed="0.00" departDelay="0.00" arrival="320.00" arrivalLane="A1left1_0" arrivalPos="286.40" arrivalSpeed="13.32" duration="80.00" routeLength="858.56" waitingTime="2.00" waitingCount="2" stopTime="0.00" timeLoss="16.52" rerouteNo="0" devices="tripinfo_53" vType="DEFAULT_VEHTYPE" speedFactor="1.00" vaporized=""/>
    <tripinfo id="61" depart="273.00" departLane="right2D2_0" departPos="5.10" departSpeed="0.00" departDelay="0.00" arrival="359.00" arrivalLane="D3right3_0" arrivalPos="286.40" arrivalSpeed="12.22" duration="86.00" routeLength="858.56" waitingTime="2.00" waitingCount="2" stopTime="0.00" timeLoss="17.83" rerouteNo="0" devices="tripinfo_61" vType="DEFAULT_VEHTYPE" speedFactor="0.93" vaporized=""/>
    <tripinfo id="73" depart="325.00" departLane="top2C3_0" departPos="5.10" departSpeed="0.00" departDelay="0.00" arrival="411.00" arrivalLane="B3top1_0" arrivalPos="286.40" arrivalSpeed="12.54" duration="86.00" routeLength="858.56" waitingTime="2.00" waitingCount="2" stopTime="0.00" timeLoss="16.54" rerouteNo="0" devices="tripinfo_73" vType="DEFAULT_VEHTYPE" speedFactor="0.92" vaporized=""/>
    <tripinfo id="89" depart="384.00" departLane="bottom2C0_0" departPos="5.10" departSpeed="0.00" departDelay="0.00" arrival="468.00" arrivalLane="D0bottom3_0" arrivalPos="286.40" arrivalSpeed="13.02" duration="84.00" routeLength="858.56" waitingTime="2.00" waitingCount="2" stopTime="0.00" timeLoss="17.83" rerouteNo="0" devices="tripinfo_89" vType="DEFAULT_VEHTYPE" speedFactor="0.96" vaporized=""/>
    <tripinfo id="91" depart="391.00" departLane="right2D2_0" departPos="5.10" departSpeed="0.00" departDelay="0.00" arrival="477.00" arrivalLane="D3right3_0" arrivalPos="286.40" arrivalSpeed="12.91" duration="86.00" routeLength="858.56" waitingTime="2.00" waitingCount="2" stopTime="0.00" timeLoss="17.61" rerouteNo="0" devices="tripinfo_91" vType="DEFAULT_VEHTYPE" speedFactor="0.93" vaporized=""/>
    <tripinfo id="97" depart="426.00" departLane="right3D3_0" departPos="5.10" departSpeed="0.00" departDelay="0.00" arrival="479.00" arrivalLane="D3top3_0" arrivalPos="286.40" arrivalSpeed="13.66" duration="53.00" routeLength="576.73" waitingTime="1.00" waitingCount="1" stopTime="0.00" timeLoss="12.34" rerouteNo="0" devices="tripinfo_97" vType="DEFAULT_VEHTYPE" speedFactor="1.05" vaporized=""/>
    <tripinfo id="95" depart="413.00" departLane="left2A2_0" departPos="5.10" departSpeed="0.00" departDelay="0.00" arrival="485.00" arrivalLane="A1left1_0" arrivalPos="286.40" arrivalSpeed="15.92" duration="72.00" routeLength="858.56" waitingTime="2.00" waitingCount="2" stopTime="0.00" timeLoss="19.45" rerouteNo="0" devices="tripinfo_95" vType="DEFAULT_VEHTYPE" speedFactor="1.20" vaporized=""/>
    <tripinfo id="101" depart="437.00" departLane="bottom3D0_0" departPos="5.10" departSpeed="0.00" departDelay="0.00" arrival="485.00" arrivalLane="D0right0_0" arrivalPos="286.40" arrivalSpeed="13.12" duration="48.00" routeLength="576.73" waitingTime="0.00" waitingCount="0" stopTime="0.00" timeLoss="6.89" rerouteNo="0" devices="tripinfo_101" vType="DEFAULT_VEHTYPE" speedFactor="1.03" vaporized=""/>
    <tripinfo id="98" depart="429.00" departLane="right2D2_0" departPos="5.10" departSpeed="0.00" departDelay="0.00" arrival="517.00" arrivalLane="D3right3_0" arrivalPos="286.40" arrivalSpeed="11.19" duration="88.00" routeLength="858.56" waitingTime="2.00" waitingCount="2" stopTime="0.00" timeLoss="17.20" rerouteNo="0" devices="tripinfo_98" vType="DEFAULT_VEHTYPE" speedFactor="0.89" vaporized=""/>
    <tripinfo id="117" depart="490.00" departLane="right3D3_0" departPos="5.10" departSpeed="0.00" departDelay="0.00" arrival="554.00" arrivalLane="D2right2_0" arrivalPos="286.40" arrivalSpeed="15.44" duration="64.00" routeLength="894.86" waitingTime="0.00" waitingCount="0" stopTime="0.00" timeLoss="5.98" rerouteNo="0" devices="tripinfo_117" vType="DEFAULT_VEHTYPE" speedFactor="1.13" vaporized=""/>
    <tripinfo id="118" depart="490.00" departLane="left3A3_0" departPos="5.10" departSpeed="0.00" departDelay="0.00" arrival="570.00" arrivalLane="A2left2_0" arrivalPos="286.40" arrivalSpeed="12.17" duration="80.00" routeLength="858.56" waitingTime="1.00" waitingCount="1" stopTime="0.00" timeLoss="13.05" rerouteNo="0" devices="tripinfo_118" vType="DEFAULT_VEHTYPE" speedFactor="0.94" vaporized=""/>
    <tripinfo id="39" depart="162.00" departLane="top1B3_0" departPos="5.10" departSpeed="0.00" departDelay="0.00" arrival="602.00" arrivalLane="B3top1_0" arrivalPos="286.40" arrivalSpeed="10.94" duration="440.00" routeLength="1748.75" waitingTime="265.00" waitingCount="4" stopTime="0.00" timeLoss="293.46" rerouteNo="0" devices="tripinfo_39" vType="DEFAULT_VEHTYPE" speedFactor="0.87" vaporized=""/>
    <tripinfo id="147" depart="614.00" departLane="top0A3_0" departPos="5.10" departSpeed="0.00" departDelay="0.00" arrival="665.00" arrivalLane="A3left3_0" arrivalPos="286.40" arrivalSpeed="14.32" duration="51.00" routeLength="576.73" waitingTime="1.00" waitingCount="1" stopTime="0.00" timeLoss="9.55" rerouteNo="0" devices="tripinfo_147" vType="DEFAULT_VEHTYPE" speedFactor="1.03" vaporized=""/>
    <tripinfo id="151" depart="630.00" departLane="bottom1B0_0" departPos="5.10" departSpeed="0.00" departDelay="0.00" arrival="696.00" arrivalLane="C0bottom2_0" arrivalPos="286.40" arrivalSpeed="15.38" duration="66.00" routeLength="858.56" waitingTime="0.00" waitingCount="0" stopTime="0.00" timeLoss="8.86" rerouteNo="0" devices="tripinfo_151" vType="DEFAULT_VEHTYPE" speedFactor="1.12" vaporized=""/>
    <tripinfo id="144" depart="605.00" departLane="bottom1B0_0" departPos="5.10" departSpeed="0.00" departDelay="0.00" arrival="702.00" arrivalLane="D0bottom3_0" arrivalPos="286.40" arrivalSpeed="13.47" duration="97.00" routeLength="1161.43" waitingTime="0.00" waitingCount="0" stopTime="0.00" timeLoss="15.35" rerouteNo="0" devices="tripinfo_144" vType="DEFAULT_VEHTYPE" speedFactor="1.05" vaporized=""/>
    <tripinfo id="154" depart="632.00" departLane="right0D0_0" departPos="5.10" departSpeed="0.00" departDelay="0.00" arrival="714.00" arrivalLane="D1right1_0" arrivalPos="286.40" arrivalSpeed="13.23" duration="82.00" routeLength="858.56" waitingTime="2.00" waitingCount="2" stopTime="0.00" timeLoss="17.24" rerouteNo="0" devices="tripinfo_154" vType="DEFAULT_VEHTYPE" speedFactor="0.98" vaporized=""/>
    <tripinfo id="31" depart="133.00" departLane="left1A1_0" departPos="5.10" departSpeed="0.00" departDelay="0.00" arrival="780.00" arrivalLane="B0bottom1_0" arrivalPos="286.40" arrivalSpeed="13.28" duration="647.00" routeLength="1179.77" waitingTime="542.00" waitingCount="2" stopTime="0.00" timeLoss="557.45" rerouteNo="0" devices="tripinfo_31" vType="DEFAULT_VEHTYPE" speedFactor="0.96" vaporized=""/>
    <tripinfo id="182" depart="754.00" departLane="bottom0A0_0" departPos="5.10" departSpeed="0.00" departDelay="0.00" arrival="838.00" arrivalLane="B0bottom1_0" arrivalPos="286.40" arrivalSpeed="11.80" duration="84.00" routeLength="858.56" waitingTime="2.00" waitingCount="2" stopTime="0.00" timeLoss="14.82" rerouteNo="0" devices="tripinfo_182" vType="DEFAULT_VEHTYPE" speedFactor="0.92" vaporized=""/>
    <tripinfo id="186" depart="765.00" departLane="left1A1_0" departPos="5.10" departSpeed="0.00" departDelay="0.00" arrival="856.00" arrivalLane="A0left0_0" arrivalPos="286.40" arrivalSpeed="10.35" duration="91.00" routeLength="858.56" waitingTime="1.00" waitingCount="1" stopTime="0.00" timeLoss="12.74" rerouteNo="0" devices="tripinfo_186" vType="DEFAULT_VEHTYPE" speedFactor="0.81" vaporized=""/>
    <tripinfo id="201" depart="818.00" departLane="left0A0_0" departPos="5.10" departSpeed="0.00" departDelay="0.00" arrival="863.00" arrivalLane="A0bottom0_0" arrivalPos="286.40" arrivalSpeed="15.47" duration="45.00" routeLength="576.73" waitingTime="0.00" waitingCount="0" stopTime="0.00" timeLoss="6.93" rerouteNo="0" devices="tripinfo_201" vType="DEFAULT_VEHTYPE" speedFactor="1.13" vaporized=""/>
    <tripinfo id="196" depart="808.00" departLane="left1A1_0" departPos="5.10" departSpeed="0.00" departDelay="0.00" arrival="885.00" arrivalLane="A0left0_0" arrivalPos="286.40" arrivalSpeed="13.66" duration="77.00" routeLength="858.56" waitingTime="1.00" waitingCount="1" stopTime="0.00" timeLoss="13.30" rerouteNo="0" devices="tripinfo_196" vType="DEFAULT_VEHTYPE" speedFactor="0.99" vaporized=""/>
    <tripinfo id="157" depart="643.00" departLane="right3D3_0" departPos="5.10" departSpeed="0.00" departDelay="0.00" arrival="920.00" arrivalLane="B3top1_0" arrivalPos="286.40" arrivalSpeed="14.12" duration="277.00" routeLength="1177.07" waitingTime="162.00" waitingCount="4" stopTime="0.00" timeLoss="199.20" rerouteNo="0" devices="tripinfo_157" vType="DEFAULT_VEHTYPE" speedFactor="1.10" vaporized=""/>
    <tripinfo id="205" depart="842.00" departLane="bottom2C0_0" departPos="5.10" departSpeed="0.00" departDelay="0.00" arrival="924.00" arrivalLane="D0bottom3_0" arrivalPos="286.40" arrivalSpeed="13.16" duration="82.00" routeLength="858.56" waitingTime="2.00" waitingCount="2" stopTime="0.00" timeLoss="18.59" rerouteNo="0" devices="tripinfo_205" vType="DEFAULT_VEHTYPE" speedFactor="1.00" vaporized=""/>
    <tripinfo id="210" depart="865.00" departLane="left2A2_0" departPos="5.10" departSpeed="0.00" departDelay="0.00" arrival="951.00" arrivalLane="A1left1_0" arrivalPos="286.40" arrivalSpeed="11.77" duration="86.00" routeLength="858.56" waitingTime="2.00" waitingCount="2" stopTime="0.00" timeLoss="17.89" rerouteNo="0" devices="tripinfo_210" vType="DEFAULT_VEHTYPE" speedFactor="0.93" vaporized=""/>
    <tripinfo id="212" depart="873.00" departLane="top3D3_0" departPos="5.10" departSpeed="0.00" departDelay="0.00" arrival="971.00" arrivalLane="C3top2_0" arrivalPos="286.40" arrivalSpeed="10.54" duration="98.00" routeLength="858.56" waitingTime="1.00" waitingCount="1" stopTime="0.00" timeLoss="14.39" rerouteNo="0" devices="tripinfo_212" vType="DEFAULT_VEHTYPE" speedFactor="0.76" vaporized=""/>
    <tripinfo id="218" depart="897.00" departLane="bottom1B0_0" departPos="5.10" departSpeed="0.00" departDelay="0.00" arrival="975.00" arrivalLane="C0bottom2_0" arrivalPos="286.40" arrivalSpeed="12.59" duration="78.00" routeLength="858.56" waitingTime="1.00" waitingCount="1" stopTime="0.00" timeLoss="14.20" rerouteNo="0" devices="tripinfo_218" vType="DEFAULT_VEHTYPE" speedFactor="1.00" vaporized=""/>
    <tripinfo id="227" depart="916.00" departLane="top3D3_0" departPos="5.10" departSpeed="0.00" departDelay="0.00" arrival="987.00" arrivalLane="C3top2_0" arrivalPos="286.40" arrivalSpeed="15.59" duration="71.00" routeLength="858.56" waitingTime="1.00" waitingCount="1" stopTime="0.00" timeLoss="15.65" rerouteNo="0" devices="tripinfo_227" vType="DEFAULT_VEHTYPE" speedFactor="1.14" vaporized=""/>
    <tripinfo id="41" depart="175.00" departLane="right0D0_0" departPos="5.10" departSpeed="0.00" departDelay="0.00" arrival="1099.00" arrivalLane="A1left1_0" arrivalPos="286.40" arrivalSpeed="13.85" duration="924.00" routeLength="1782.72" waitingTime="774.00" waitingCount="4" stopTime="0.00" timeLoss="800.61" rerouteNo="0" devices="tripinfo_41" vType="DEFAULT_VEHTYPE" speedFactor="1.05" vaporized=""/>
    <tripinfo id="10" depart="39.00" departLane="bottom3D0_0" departPos="5.10" departSpeed="0.00" departDelay="0.00" arrival="1101.00" arrivalLane="A1left1_0" arrivalPos="286.40" arrivalSpeed="13.78" duration="1062.00" routeLength="1795.52" waitingTime="912.00" waitingCount="3" stopTime="0.00" timeLoss="937.69" rerouteNo="0" devices="tripinfo_10" vType="DEFAULT_VEHTYPE" speedFactor="1.04" vaporized=""/>
    <tripinfo id="99" depart="430.00" departLane="right0D0_0" departPos="5.10" departSpeed="0.00" departDelay="0.00" arrival="1106.00" arrivalLane="A1left1_0" arrivalPos="286.40" arrivalSpeed="12.52" duration="676.00" routeLength="1782.72" waitingTime="514.00" waitingCount="3" stopTime="0.00" timeLoss="543.80" rerouteNo="0" devices="tripinfo_99" vType="DEFAULT_VEHTYPE" speedFactor="0.98" vaporized=""/>
    <tripinfo id="292" depart="1101.00" departLane="left3A3_0" departPos="5.10" departSpeed="0.00" departDelay="0.00" arrival="1154.00" arrivalLane="A3top0_0" arrivalPos="286.40" arrivalSpeed="12.75" duration="53.00" routeLength="597.55" waitingTime="0.00" waitingCount="0" stopTime="0.00" timeLoss="5.70" rerouteNo="0" devices="tripinfo_292" vType="DEFAULT_VEHTYPE" speedFactor="0.92" vaporized=""/>
    <tripinfo id="306" depart="1128.00" departLane="right3D3_0" departPos="5.10" departSpeed="0.00" departDelay="0.00" arrival="1183.00" arrivalLane="D3top3_0" arrivalPos="286.40" arrivalSpeed="13.06" duration="55.00" routeLength="576.73" waitingTime="1.00" waitingCount="1" stopTime="0.00" timeLoss="11.81" rerouteNo="0" devices="tripinfo_306" vType="DEFAULT_VEHTYPE" speedFactor="0.99" vaporized=""/>
    <tripinfo id="316" depart="1155.00" departLane="left0A0_0" departPos="5.10" departSpeed="0.00" departDelay="0.00" arrival="1213.00" arrivalLane="A0bottom0_0" arrivalPos="286.40" arrivalSpeed="11.95" duration="58.00" routeLength="576.73" waitingTime="1.00" waitingCount="1" stopTime="0.00" timeLoss="11.56" rerouteNo="0" devices="tripinfo_316" vType="DEFAULT_VEHTYPE" speedFactor="0.92" vaporized=""/>
    <tripinfo id="115" depart="484.00" departLane="bottom0A0_0" departPos="5.10" departSpeed="0.00" departDelay="0.00" arrival="1214.00" arrivalLane="C0bottom2_1" arrivalPos="286.40" arrivalSpeed="15.45" duration="730.00" routeLength="1161.43" waitingTime="634.00" waitingCount="1" stopTime="0.00" timeLoss="655.12" rerouteNo="0" devices="tripinfo_115" vType="DEFAULT_VEHTYPE" speedFactor="1.14" vaporized=""/>
    <tripinfo id="67" depart="287.00" departLane="bottom0A0_0" departPos="5.10" departSpeed="0.00" departDelay="0.00" arrival="1215.00" arrivalLane="C0bottom2_0" arrivalPos="286.40" arrivalSpeed="12.55" duration="928.00" routeLength="1161.43" waitingTime="824.00" waitingCount="1" stopTime="0.00" timeLoss="838.70" rerouteNo="0" devices="tripinfo_67" vType="DEFAULT_VEHTYPE" speedFactor="0.95" vaporized=""/>
    <tripinfo id="143" depart="605.00" departLane="left0A0_0" departPos="5.10" departSpeed="0.00" departDelay="0.00" arrival="1218.00" arrivalLane="C0bottom2_0" arrivalPos="286.40" arrivalSpeed="14.86" duration="613.00" routeLength="1177.07" waitingTime="516.00" waitingCount="1" stopTime="0.00" timeLoss="532.64" rerouteNo="0" devices="tripinfo_143" vType="DEFAULT_VEHTYPE" speedFactor="1.08" vaporized=""/>
    <tripinfo id="311" depart="1135.00" departLane="right3D3_0" departPos="5.10" departSpeed="0.00" departDelay="0.00" arrival="1223.00" arrivalLane="D2right2_0" arrivalPos="286.40" arrivalSpeed="11.12" duration="88.00" routeLength="894.86" waitingTime="0.00" waitingCount="0" stopTime="0.00" timeLoss="7.61" rerouteNo="0" devices="tripinfo_311" vType="DEFAULT_VEHTYPE" speedFactor="0.82" vaporized=""/>
    <tripinfo id="145" depart="609.00" departLane="bottom0A0_0" departPos="5.10" departSpeed="0.00" departDelay="0.00" arrival="1224.00" arrivalLane="C0bottom2_0" arrivalPos="286.40" arrivalSpeed="13.24" duration="615.00" routeLength="1161.43" waitingTime="504.00" waitingCount="2" stopTime="0.00" timeLoss="525.56" rerouteNo="0" devices="tripinfo_145" vType="DEFAULT_VEHTYPE" speedFactor="0.96" vaporized=""/>
    <tripinfo id="313" depart="1146.00" departLane="bottom2C0_0" departPos="5.10" departSpeed="0.00" departDelay="0.00" arrival="1225.00" arrivalLane="D0bottom3_0" arrivalPos="286.40" arrivalSpeed="13.93" duration="79.00" routeLength="858.56" waitingTime="2.00" waitingCount="2" stopTime="0.00" timeLoss="17.94" rerouteNo="0" devices="tripinfo_313" vType="DEFAULT_VEHTYPE" speedFactor="1.05" vaporized=""/>
    <tripinfo id="177" depart="734.00" departLane="bottom0A0_0" departPos="5.10" departSpeed="0.00" departDelay="0.00" arrival="1227.00" arrivalLane="C0bottom2_0" arrivalPos="286.40" arrivalSpeed="13.03" duration="493.00" routeLength="1161.43" waitingTime="381.00" waitingCount="2" stopTime="0.00" timeLoss="404.02" rerouteNo="0" devices="tripinfo_177" vType="DEFAULT_VEHTYPE" speedFactor="0.96" vaporized=""/>
    <tripinfo id="302" depart="1124.00" departLane="bottom0A0_0" departPos="5.10" departSpeed="0.00" departDelay="1.00" arrival="1227.00" arrivalLane="C0bottom2_1" arrivalPos="286.40" arrivalSpeed="14.56" duration="103.00" routeLength="1161.43" waitingTime="0.00" waitingCount="0" stopTime="0.00" timeLoss="22.59" rerouteNo="0" devices="tripinfo_302" vType="DEFAULT_VEHTYPE" speedFactor="1.06" vaporized=""/>
    <tripinfo id="315" depart="1152.00" departLane="left2A2_0" departPos="5.10" departSpeed="0.00" departDelay="0.00" arrival="1229.00" arrivalLane="A1left1_0" arrivalPos="286.40" arrivalSpeed="13.90" duration="77.00" routeLength="858.56" waitingTime="2.00" waitingCount="2" stopTime="0.00" timeLoss="18.74" rerouteNo="0" devices="tripinfo_315" vType="DEFAULT_VEHTYPE" speedFactor="1.09" vaporized=""/>
    <tripinfo id="321" depart="1165.00" departLane="left1A1_0" departPos="5.10" departSpeed="0.00" departDelay="0.00" arrival="1239.00" arrivalLane="A0left0_0" arrivalPos="286.40" arrivalSpeed="13.11" duration="74.00" routeLength="858.56" waitingTime="0.00" waitingCount="0" stopTime="0.00" timeLoss="8.81" rerouteNo="0" devices="tripinfo_321" vType="DEFAULT_VEHTYPE" speedFactor="0.99" vaporized=""/>
    <tripinfo id="340" depart="1223.00" departLane="right0D0_0" departPos="5.10" departSpeed="0.00" departDelay="0.00" arrival="1305.00" arrivalLane="D1right1_0" arrivalPos="286.40" arrivalSpeed="13.21" duration="82.00" routeLength="858.56" waitingTime="2.00" waitingCount="2" stopTime="0.00" timeLoss="17.14" rerouteNo="0" devices="tripinfo_340" vType="DEFAULT_VEHTYPE" speedFactor="0.97" vaporized=""/>
    <tripinfo id="357" depart="1257.00" departLane="right1D1_0" departPos="5.10" departSpeed="0.00" departDelay="0.00" arrival="1342.00" arrivalLane="D2right2_0" arrivalPos="286.40" arrivalSpeed="12.41" duration="85.00" routeLength="858.56" waitingTime="2.00" waitingCount="2" stopTime="0.00" timeLoss="17.06" rerouteNo="0" devices="tripinfo_357" vType="DEFAULT_VEHTYPE" speedFactor="0.93" vaporized=""/>
    <tripinfo id="365" depart="1274.00" departLane="left2A2_0" departPos="5.10" departSpeed="0.00" departDelay="0.00" arrival="1347.00" arrivalLane="A1left1_0" arrivalPos="286.40" arrivalSpeed="16.41" duration="73.00" routeLength="858.56" waitingTime="2.00" waitingCount="2" stopTime="0.00" timeLoss="19.46" rerouteNo="0" devices="tripinfo_365" vType="DEFAULT_VEHTYPE" speedFactor="1.19" vaporized=""/>
    <tripinfo id="360" depart="1263.00" departLane="bottom1B0_0" departPos="5.10" departSpeed="0.00" departDelay="0.00" arrival="1369.00" arrivalLane="D0bottom3_0" arrivalPos="286.40" arrivalSpeed="13.51" duration="106.00" routeLength="1161.43" waitingTime="2.00" waitingCount="2" stopTime="0.00" timeLoss="20.00" rerouteNo="0" devices="tripinfo_360" vType="DEFAULT_VEHTYPE" speedFactor="0.99" vaporized=""/>
    <tripinfo id="412" depart="1376.00" departLane="right3D3_0" departPos="5.10" departSpeed="0.00" departDelay="0.00" arrival="1444.00" arrivalLane="D2right2_0" arrivalPos="286.40" arrivalSpeed="14.46" duration="68.00" routeLength="894.86" waitingTime="0.00" waitingCount="0" stopTime="0.00" timeLoss="6.33" rerouteNo="0" devices="tripinfo_412" vType="DEFAULT_VEHTYPE" speedFactor="1.08" vaporized=""/>
    <tripinfo id="408" depart="1373.00" departLane="bottom1B0_0" departPos="5.10" departSpeed="0.00" departDelay="0.00" arrival="1454.00" arrivalLane="C0bottom2_0" arrivalPos="286.40" arrivalSpeed="12.91" duration="81.00" routeLength="858.56" waitingTime="1.00" waitingCount="1" stopTime="0.00" timeLoss="16.51" rerouteNo="0" devices="tripinfo_408" vType="DEFAULT_VEHTYPE" speedFactor="0.98" vaporized=""/>
    <tripinfo id="329" depart="1188.00" departLane="right3D3_0" departPos="5.10" departSpeed="0.00" departDelay="0.00" arrival="1463.00" arrivalLane="C3top2_0" arrivalPos="286.40" arrivalSpeed="12.66" duration="275.00" routeLength="876.90" waitingTime="197.00" waitingCount="1" stopTime="0.00" timeLoss="209.55" rerouteNo="0" devices="tripinfo_329" vType="DEFAULT_VEHTYPE" speedFactor="0.97" vaporized=""/>
    <tripinfo id="437" depart="1421.00" departLane="right3D3_0" departPos="5.10" departSpeed="0.00" departDelay="0.00" arrival="1486.00" arrivalLane="C3top2_0" arrivalPos="286.40" arrivalSpeed="14.84" duration="65.00" routeLength="876.90" waitingTime="0.00" waitingCount="0" stopTime="0.00" timeLoss="7.45" rerouteNo="0" devices="tripinfo_437" vType="DEFAULT_VEHTYPE" speedFactor="1.13" vaporized=""/>
    <tripinfo id="337" depart="1218.00" departLane="right3D3_0" departPos="5.10" departSpeed="0.00" departDelay="0.00" arrival="1496.00" arrivalLane="B3top1_0" arrivalPos="286.40" arrivalSpeed="12.04" duration="278.00" routeLength="1177.07" waitingTime="169.00" waitingCount="2" stopTime="0.00" timeLoss="187.94" rerouteNo="0" devices="tripinfo_337" vType="DEFAULT_VEHTYPE" speedFactor="0.95" vaporized=""/>
    <tripinfo id="415" depart="1387.00" departLane="bottom0A0_0" departPos="5.10" departSpeed="0.00" departDelay="0.00" arrival="1512.00" arrivalLane="D0bottom3_0" arrivalPos="286.40" arrivalSpeed="12.42" duration="125.00" routeLength="1461.60" waitingTime="1.00" waitingCount="1" stopTime="0.00" timeLoss="16.18" rerouteNo="0" devices="tripinfo_415" vType="DEFAULT_VEHTYPE" speedFactor="0.98" vaporized=""/>
    <tripinfo id="456" depart="1454.00" departLane="right3D3_0" departPos="5.10" departSpeed="0.00" departDelay="0.00" arrival="1524.00" arrivalLane="D2right2_0" arrivalPos="286.40" arrivalSpeed="14.16" duration="70.00" routeLength="894.86" waitingTime="0.00" waitingCount="0" stopTime="0.00" timeLoss="6.76" rerouteNo="0" devices="tripinfo_456" vType="DEFAULT_VEHTYPE" speedFactor="1.04" vaporized=""/>
    <tripinfo id="233" depart="937.00" departLane="top2C3_0" departPos="5.10" departSpeed="0.00" departDelay="0.00" arrival="1530.00" arrivalLane="D3top3_0" arrivalPos="286.40" arrivalSpeed="13.99" duration="593.00" routeLength="894.86" waitingTime="519.00" waitingCount="1" stopTime="0.00" timeLoss="530.08" rerouteNo="0" devices="tripinfo_233" vType="DEFAULT_VEHTYPE" speedFactor="1.05" vaporized=""/>
    <tripinfo id="471" depart="1472.00" departLane="top0A3_0" departPos="5.10" departSpeed="0.00" departDelay="0.00" arrival="1530.00" arrivalLane="A3left3_0" arrivalPos="286.40" arrivalSpeed="11.12" duration="58.00" routeLength="576.73" waitingTime="1.00" waitingCount="1" stopTime="0.00" timeLoss="10.68" rerouteNo="0" devices="tripinfo_471" vType="DEFAULT_VEHTYPE" speedFactor="0.89" vaporized=""/>
    <tripinfo id="478" depart="1481.00" departLane="right3D3_0" departPos="5.10" departSpeed="0.00" departDelay="0.00" arrival="1533.00" arrivalLane="D3top3_0" arrivalPos="286.40" arrivalSpeed="13.71" duration="52.00" routeLength="576.73" waitingTime="2.00" waitingCount="2" stopTime="0.00" timeLoss="11.99" rerouteNo="0" devices="tripinfo_478" vType="DEFAULT_VEHTYPE" speedFactor="1.07" vaporized=""/>
    <tripinfo id="431" depart="1410.00" departLane="top2C3_0" departPos="5.10" departSpeed="0.00" departDelay="0.00" arrival="1536.00" arrivalLane="D3top3_0" arrivalPos="286.40" arrivalSpeed="14.63" duration="126.00" routeLength="894.86" waitingTime="51.00" waitingCount="1" stopTime="0.00" timeLoss="63.90" rerouteNo="0" devices="tripinfo_431" vType="DEFAULT_VEHTYPE" speedFactor="1.06" vaporized=""/>
    <tripinfo id="466" depart="1466.00" departLane="left3A3_0" departPos="5.10" departSpeed="0.00" departDelay="2.00" arrival="1537.00" arrivalLane="A2left2_0" arrivalPos="286.40" arrivalSpeed="16.48" duration="71.00" routeLength="858.56" waitingTime="2.00" waitingCount="2" stopTime="0.00" timeLoss="18.11" rerouteNo="0" devices="tripinfo_466" vType="DEFAULT_VEHTYPE" speedFactor="1.20" vaporized=""/>
    <tripinfo id="481" depart="1488.00" departLane="right3D3_0" departPos="5.10" departSpeed="0.00" departDelay="0.00" arrival="1540.00" arrivalLane="D3top3_0" arrivalPos="286.40" arrivalSpeed="14.49" duration="52.00" routeLength="576.73" waitingTime="1.00" waitingCount="1" stopTime="0.00" timeLoss="12.33" rerouteNo="0" devices="tripinfo_481" vType="DEFAULT_VEHTYPE" speedFactor="1.07" vaporized=""/>
    <tripinfo id="460" depart="1457.00" departLane="right1D1_0" departPos="5.10" departSpeed="0.00" departDelay="0.00" arrival="1547.00" arrivalLane="D2right2_0" arrivalPos="286.40" arrivalSpeed="11.53" duration="90.00" routeLength="858.56" waitingTime="2.00" waitingCount="2" stopTime="0.00" timeLoss="16.64" rerouteNo="0" devices="tripinfo_460" vType="DEFAULT_VEHTYPE" speedFactor="0.86" vaporized=""/>
    <tripinfo id="477" depart="1480.00" departLane="top2C3_0" departPos="5.10" departSpeed="0.00" departDelay="0.00" arrival="1561.00" arrivalLane="B3top1_0" arrivalPos="286.40" arrivalSpeed="12.64" duration="81.00" routeLength="858.56" waitingTime="1.00" waitingCount="1" stopTime="0.00" timeLoss="12.76" rerouteNo="0" devices="tripinfo_477" vType="DEFAULT_VEHTYPE" speedFactor="0.93" vaporized=""/>
    <tripinfo id="464" depart="1462.00" departLane="left3A3_0" departPos="5.10" departSpeed="0.00" departDelay="0.00" arrival="1565.00" arrivalLane="A1left1_0" arrivalPos="286.40" arrivalSpeed="12.87" duration="103.00" routeLength="1161.43" waitingTime="2.00" waitingCount="2" stopTime="0.00" timeLoss="18.76" rerouteNo="0" devices="tripinfo_464" vType="DEFAULT_VEHTYPE" speedFactor="1.01" vaporized=""/>
    <tripinfo id="505" depart="1527.00" departLane="right2D2_0" departPos="5.10" departSpeed="0.00" departDelay="0.00" arrival="1602.00" arrivalLane="D3right3_0" arrivalPos="286.40" arrivalSpeed="14.93" duration="75.00" routeLength="858.56" waitingTime="2.00" waitingCount="2" stopTime="0.00" timeLoss="18.85" rerouteNo="0" devices="tripinfo_505" vType="DEFAULT_VEHTYPE" speedFactor="1.13" vaporized=""/>