<?xml version="1.0" encoding="UTF-8"?>

<!-- generated on 2023-08-30 13:46:08 by Eclipse SUMO libsumo Version 1.18.0
<configuration xmlns:xsi="http://www.w3.org/2001/XMLSchema-instance" xsi:noNamespaceSchemaLocation="http://sumo.dlr.de/xsd/libsumoConfiguration.xsd">

    <input>
        <net-file value="/home/stefan/RESCO/./environments/grid4x4/grid4x4.net.xml"/>
        <route-files value="/home/stefan/RESCO/./environments/grid4x4/grid4x4_79.rou.xml"/>
    </input>

    <output>
        <tripinfo-output value="/home/stefan/results/RAINBOW-tr0-grid4x4-0-drq_norm-wait_norm/tripinfo_79.xml"/>
        <tripinfo-output.write-unfinished value="true"/>
    </output>

    <processing>
        <time-to-teleport value="-1"/>
    </processing>

    <report>
        <no-warnings value="True"/>
        <no-step-log value="True"/>
    </report>

    <random_number>
        <random value="true"/>
    </random_number>

</configuration>
-->

<tripinfos xmlns:xsi="http://www.w3.org/2001/XMLSchema-instance" xsi:noNamespaceSchemaLocation="http://sumo.dlr.de/xsd/tripinfo_file.xsd">
    <tripinfo id="13" depart="57.00" departLane="left0A0_0" departPos="5.10" departSpeed="0.00" departDelay="0.00" arrival="104.00" arrivalLane="A0bottom0_0" arrivalPos="286.40" arrivalSpeed="14.01" duration="47.00" routeLength="576.73" waitingTime="0.00" waitingCount="0" stopTime="0.00" timeLoss="6.25" rerouteNo="0" devices="tripinfo_13" vType="DEFAULT_VEHTYPE" speedFactor="1.05" vaporized=""/>
    <tripinfo id="24" depart="116.00" departLane="left3A3_0" departPos="5.10" departSpeed="0.00" departDelay="0.00" arrival="194.00" arrivalLane="A2left2_0" arrivalPos="286.40" arrivalSpeed="13.56" duration="78.00" routeLength="858.56" waitingTime="2.00" waitingCount="2" stopTime="0.00" timeLoss="18.46" rerouteNo="0" devices="tripinfo_24" vType="DEFAULT_VEHTYPE" speedFactor="1.07" vaporized=""/>
    <tripinfo id="25" depart="116.00" departLane="bottom0A0_0" departPos="5.10" departSpeed="0.00" departDelay="0.00" arrival="198.00" arrivalLane="B0bottom1_0" arrivalPos="286.40" arrivalSpeed="12.82" duration="82.00" routeLength="858.56" waitingTime="2.00" waitingCount="2" stopTime="0.00" timeLoss="18.45" rerouteNo="0" devices="tripinfo_25" vType="DEFAULT_VEHTYPE" speedFactor="1.00" vaporized=""/>
    <tripinfo id="33" depart="138.00" departLane="bottom1B0_0" departPos="5.10" departSpeed="0.00" departDelay="2.00" arrival="207.00" arrivalLane="C0bottom2_0" arrivalPos="286.40" arrivalSpeed="14.79" duration="69.00" routeLength="858.56" waitingTime="0.00" waitingCount="0" stopTime="0.00" timeLoss="10.18" rerouteNo="0" devices="tripinfo_33" vType="DEFAULT_VEHTYPE" speedFactor="1.09" vaporized=""/>
    <tripinfo id="18" depart="87.00" departLane="top2C3_0" departPos="5.10" departSpeed="0.00" departDelay="0.00" arrival="286.00" arrivalLane="A3top0_0" arrivalPos="286.40" arrivalSpeed="13.59" duration="199.00" routeLength="1161.43" waitingTime="95.00" waitingCount="3" stopTime="0.00" timeLoss="118.28" rerouteNo="0" devices="tripinfo_18" vType="DEFAULT_VEHTYPE" speedFactor="1.06" vaporized=""/>
    <tripinfo id="45" depart="198.00" departLane="bottom1B0_0" departPos="5.10" departSpeed="0.00" departDelay="0.00" arrival="294.00" arrivalLane="D0bottom3_0" arrivalPos="286.40" arrivalSpeed="13.60" duration="96.00" routeLength="1161.43" waitingTime="1.00" waitingCount="1" stopTime="0.00" timeLoss="14.42" rerouteNo="0" devices="tripinfo_45" vType="DEFAULT_VEHTYPE" speedFactor="1.05" vaporized=""/>
    <tripinfo id="49" depart="224.00" departLane="left0A0_0" departPos="5.10" departSpeed="0.00" departDelay="0.00" arrival="347.00" arrivalLane="A2left2_0" arrivalPos="286.40" arrivalSpeed="14.28" duration="123.00" routeLength="1197.66" waitingTime="32.00" waitingCount="1" stopTime="0.00" timeLoss="43.96" rerouteNo="0" devices="tripinfo_49" vType="DEFAULT_VEHTYPE" speedFactor="1.11" vaporized=""/>
    <tripinfo id="72" depart="314.00" departLane="top3D3_0" departPos="5.10" departSpeed="0.00" departDelay="0.00" arrival="403.00" arrivalLane="C3top2_0" arrivalPos="286.40" arrivalSpeed="11.80" duration="89.00" routeLength="858.56" waitingTime="2.00" waitingCount="2" stopTime="0.00" timeLoss="16.13" rerouteNo="0" devices="tripinfo_72" vType="DEFAULT_VEHTYPE" speedFactor="0.87" vaporized=""/>
    <tripinfo id="79" depart="328.00" departLane="right1D1_0" departPos="5.10" departSpeed="0.00" departDelay="0.00" arrival="406.00" arrivalLane="D2right2_0" arrivalPos="286.40" arrivalSpeed="13.50" duration="78.00" routeLength="858.56" waitingTime="2.00" waitingCount="2" stopTime="0.00" timeLoss="15.98" rerouteNo="0" devices="tripinfo_79" vType="DEFAULT_VEHTYPE" speedFactor="1.01" vaporized=""/>
    <tripinfo id="8" depart="41.00" departLane="bottom1B0_0" departPos="5.10" departSpeed="0.00" departDelay="0.00" arrival="486.00" arrivalLane="A3top0_0" arrivalPos="286.40" arrivalSpeed="14.72" duration="445.00" routeLength="1782.59" waitingTime="306.00" waitingCount="3" stopTime="0.00" timeLoss="332.71" rerouteNo="0" devices="tripinfo_8" vType="DEFAULT_VEHTYPE" speedFactor="1.15" vaporized=""/>
    <tripinfo id="71" depart="306.00" departLane="left2A2_0" departPos="5.10" departSpeed="0.00" departDelay="0.00" arrival="488.00" arrivalLane="A3top0_0" arrivalPos="286.40" arrivalSpeed="15.75" duration="182.00" routeLength="895.01" waitingTime="106.00" waitingCount="2" stopTime="0.00" timeLoss="125.60" rerouteNo="0" devices="tripinfo_71" vType="DEFAULT_VEHTYPE" speedFactor="1.15" vaporized=""/>
    <tripinfo id="17" depart="68.00" departLane="left0A0_0" departPos="5.10" departSpeed="0.00" departDelay="0.00" arrival="490.00" arrivalLane="A3left3_1" arrivalPos="286.40" arrivalSpeed="14.67" duration="422.00" routeLength="1497.83" waitingTime="295.00" waitingCount="3" stopTime="0.00" timeLoss="320.83" rerouteNo="0" devices="tripinfo_17" vType="DEFAULT_VEHTYPE" speedFactor="1.08" vaporized=""/>
    <tripinfo id="29" depart="126.00" departLane="left2A2_0" departPos="5.10" departSpeed="0.00" departDelay="0.00" arrival="491.00" arrivalLane="A3left3_0" arrivalPos="286.40" arrivalSpeed="12.41" duration="365.00" routeLength="894.86" waitingTime="285.00" waitingCount="1" stopTime="0.00" timeLoss="295.35" rerouteNo="0" devices="tripinfo_29" vType="DEFAULT_VEHTYPE" speedFactor="0.95" vaporized=""/>
    <tripinfo id="55" depart="252.00" departLane="left0A0_0" departPos="5.10" departSpeed="0.00" departDelay="0.00" arrival="509.00" arrivalLane="A1left1_0" arrivalPos="286.40" arrivalSpeed="14.19" duration="257.00" routeLength="894.86" waitingTime="183.00" waitingCount="1" stopTime="0.00" timeLoss="194.62" rerouteNo="0" devices="tripinfo_55" vType="DEFAULT_VEHTYPE" speedFactor="1.06" vaporized=""/>
    <tripinfo id="36" depart="147.00" departLane="top0A3_0" departPos="5.10" departSpeed="0.00" departDelay="0.00" arrival="514.00" arrivalLane="A1left1_0" arrivalPos="286.40" arrivalSpeed="16.67" duration="367.00" routeLength="1177.07" waitingTime="276.00" waitingCount="1" stopTime="0.00" timeLoss="297.39" rerouteNo="0" devices="tripinfo_36" vType="DEFAULT_VEHTYPE" speedFactor="1.23" vaporized=""/>
    <tripinfo id="66" depart="279.00" departLane="left3A3_0" departPos="5.10" departSpeed="0.00" departDelay="0.00" arrival="519.00" arrivalLane="A1left1_0" arrivalPos="286.40" arrivalSpeed="14.31" duration="240.00" routeLength="1161.43" waitingTime="134.00" waitingCount="2" stopTime="0.00" timeLoss="158.81" rerouteNo="0" devices="tripinfo_66" vType="DEFAULT_VEHTYPE" speedFactor="1.05" vaporized=""/>
    <tripinfo id="110" depart="490.00" departLane="right3D3_0" departPos="5.10" departSpeed="0.00" departDelay="0.00" arrival="539.00" arrivalLane="D3top3_0" arrivalPos="286.40" arrivalSpeed="14.66" duration="49.00" routeLength="576.73" waitingTime="1.00" waitingCount="1" stopTime="0.00" timeLoss="11.27" rerouteNo="0" devices="tripinfo_110" vType="DEFAULT_VEHTYPE" speedFactor="1.13" vaporized=""/>
    <tripinfo id="95" depart="427.00" departLane="left3A3_0" departPos="5.10" departSpeed="0.00" departDelay="0.00" arrival="544.00" arrivalLane="A0left0_0" arrivalPos="286.40" arrivalSpeed="15.46" duration="117.00" routeLength="1461.60" waitingTime="2.00" waitingCount="2" stopTime="0.00" timeLoss="24.63" rerouteNo="0" devices="tripinfo_95" vType="DEFAULT_VEHTYPE" speedFactor="1.16" vaporized=""/>
    <tripinfo id="97" depart="432.00" departLane="left3A3_0" departPos="5.10" departSpeed="0.00" departDelay="0.00" arrival="564.00" arrivalLane="A0left0_0" arrivalPos="286.40" arrivalSpeed="12.41" duration="132.00" routeLength="1461.60" waitingTime="2.00" waitingCount="2" stopTime="0.00" timeLoss="21.59" rerouteNo="0" devices="tripinfo_97" vType="DEFAULT_VEHTYPE" speedFactor="0.97" vaporized=""/>
    <tripinfo id="88" depart="389.00" departLane="right0D0_0" departPos="5.10" departSpeed="0.00" departDelay="0.00" arrival="600.00" arrivalLane="D0bottom3_0" arrivalPos="286.40" arrivalSpeed="12.40" duration="211.00" routeLength="597.55" waitingTime="156.00" waitingCount="1" stopTime="0.00" timeLoss="166.37" rerouteNo="0" devices="tripinfo_88" vType="DEFAULT_VEHTYPE" speedFactor="0.98" vaporized=""/>
    <tripinfo id="2" depart="14.00" departLane="right2D2_0" departPos="5.10" departSpeed="0.00" departDelay="0.00" arrival="620.00" arrivalLane="B3top1_0" arrivalPos="286.40" arrivalSpeed="11.92" duration="606.00" routeLength="1479.94" waitingTime="461.00" waitingCount="4" stopTime="0.00" timeLoss="491.68" rerouteNo="0" devices="tripinfo_2" vType="DEFAULT_VEHTYPE" speedFactor="0.94" vaporized=""/>
    <tripinfo id="27" depart="122.00" departLane="right3D3_0" departPos="5.10" departSpeed="0.00" departDelay="0.00" arrival="620.00" arrivalLane="D3right3_0" arrivalPos="286.40" arrivalSpeed="12.05" duration="498.00" routeLength="1745.91" waitingTime="333.00" waitingCount="3" stopTime="0.00" timeLoss="361.73" rerouteNo="0" devices="tripinfo_27" vType="DEFAULT_VEHTYPE" speedFactor="0.94" vaporized=""/>
    <tripinfo id="129" depart="587.00" departLane="right3D3_0" departPos="5.10" departSpeed="0.00" departDelay="0.00" arrival="637.00" arrivalLane="D3top3_0" arrivalPos="286.40" arrivalSpeed="13.67" duration="50.00" routeLength="576.73" waitingTime="1.00" waitingCount="1" stopTime="0.00" timeLoss="10.39" rerouteNo="0" devices="tripinfo_129" vType="DEFAULT_VEHTYPE" speedFactor="1.07" vaporized=""/>
    <tripinfo id="132" depart="602.00" departLane="top2C3_0" departPos="5.10" departSpeed="0.00" departDelay="0.00" arrival="681.00" arrivalLane="B3top1_0" arrivalPos="286.40" arrivalSpeed="14.38" duration="79.00" routeLength="858.56" waitingTime="2.00" waitingCount="2" stopTime="0.00" timeLoss="17.82" rerouteNo="0" devices="tripinfo_132" vType="DEFAULT_VEHTYPE" speedFactor="1.04" vaporized=""/>
    <tripinfo id="121" depart="533.00" departLane="top0A3_0" departPos="5.10" departSpeed="0.00" departDelay="0.00" arrival="686.00" arrivalLane="A3top0_0" arrivalPos="286.40" arrivalSpeed="13.85" duration="153.00" routeLength="1745.91" waitingTime="3.00" waitingCount="3" stopTime="0.00" timeLoss="27.22" rerouteNo="0" devices="tripinfo_121" vType="DEFAULT_VEHTYPE" speedFactor="1.02" vaporized=""/>
    <tripinfo id="109" depart="489.00" departLane="left0A0_0" departPos="5.10" departSpeed="0.00" departDelay="0.00" arrival="713.00" arrivalLane="A2left2_0" arrivalPos="286.40" arrivalSpeed="11.09" duration="224.00" routeLength="1197.66" waitingTime="112.00" waitingCount="1" stopTime="0.00" timeLoss="125.21" rerouteNo="0" devices="tripinfo_109" vType="DEFAULT_VEHTYPE" speedFactor="0.89" vaporized=""/>
    <tripinfo id="144" depart="650.00" departLane="left3A3_0" departPos="5.10" departSpeed="0.00" departDelay="0.00" arrival="729.00" arrivalLane="A2left2_0" arrivalPos="286.40" arrivalSpeed="12.85" duration="79.00" routeLength="858.56" waitingTime="1.00" waitingCount="1" stopTime="0.00" timeLoss="14.22" rerouteNo="0" devices="tripinfo_144" vType="DEFAULT_VEHTYPE" speedFactor="0.98" vaporized=""/>
    <tripinfo id="146" depart="657.00" departLane="top3D3_0" departPos="5.10" departSpeed="0.00" departDelay="0.00" arrival="737.00" arrivalLane="C3top2_0" arrivalPos="286.40" arrivalSpeed="13.14" duration="80.00" routeLength="858.56" waitingTime="1.00" waitingCount="1" stopTime="0.00" timeLoss="13.75" rerouteNo="0" devices="tripinfo_146" vType="DEFAULT_VEHTYPE" speedFactor="0.95" vaporized=""/>
    <tripinfo id="165" depart="721.00" departLane="top3D3_0" departPos="5.10" departSpeed="0.00" departDelay="0.00" arrival="790.00" arrivalLane="C3top2_0" arrivalPos="286.40" arrivalSpeed="15.66" duration="69.00" routeLength="858.56" waitingTime="1.00" waitingCount="1" stopTime="0.00" timeLoss="13.36" rerouteNo="0" devices="tripinfo_165" vType="DEFAULT_VEHTYPE" speedFactor="1.15" vaporized=""/>
    <tripinfo id="122" depart="542.00" departLane="right1D1_0" departPos="5.10" departSpeed="0.00" departDelay="0.00" arrival="795.00" arrivalLane="D3right3_0" arrivalPos="286.40" arrivalSpeed="14.18" duration="253.00" routeLength="1161.43" waitingTime="153.00" waitingCount="2" stopTime="0.00" timeLoss="173.44" rerouteNo="0" devices="tripinfo_122" vType="DEFAULT_VEHTYPE" speedFactor="1.07" vaporized=""/>
    <tripinfo id="164" depart="720.00" departLane="left1A1_0" departPos="5.10" departSpeed="0.00" departDelay="0.00" arrival="802.00" arrivalLane="A0left0_0" arrivalPos="286.40" arrivalSpeed="14.11" duration="82.00" routeLength="858.56" waitingTime="4.00" waitingCount="2" stopTime="0.00" timeLoss="21.59" rerouteNo="0" devices="tripinfo_164" vType="DEFAULT_VEHTYPE" speedFactor="1.05" vaporized=""/>
    <tripinfo id="151" depart="669.00" departLane="right1D1_0" departPos="5.10" departSpeed="0.00" departDelay="2.00" arrival="805.00" arrivalLane="D3right3_0" arrivalPos="286.40" arrivalSpeed="12.52" duration="136.00" routeLength="1161.43" waitingTime="19.00" waitingCount="3" stopTime="0.00" timeLoss="42.02" rerouteNo="0" devices="tripinfo_151" vType="DEFAULT_VEHTYPE" speedFactor="0.90" vaporized=""/>
    <tripinfo id="169" depart="741.00" departLane="bottom0A0_0" departPos="5.10" departSpeed="0.00" departDelay="3.00" arrival="823.00" arrivalLane="B0bottom1_0" arrivalPos="286.40" arrivalSpeed="13.63" duration="82.00" routeLength="858.56" waitingTime="2.00" waitingCount="2" stopTime="0.00" timeLoss="18.14" rerouteNo="0" devices="tripinfo_169" vType="DEFAULT_VEHTYPE" speedFactor="0.99" vaporized=""/>
    <tripinfo id="172" depart="752.00" departLane="top1B3_0" departPos="5.10" departSpeed="0.00" departDelay="0.00" arrival="827.00" arrivalLane="A3top0_0" arrivalPos="286.40" arrivalSpeed="12.90" duration="75.00" routeLength="858.56" waitingTime="0.00" waitingCount="0" stopTime="0.00" timeLoss="9.62" rerouteNo="0" devices="tripinfo_172" vType="DEFAULT_VEHTYPE" speedFactor="0.97" vaporized=""/>
    <tripinfo id="185" depart="794.00" departLane="top0A3_0" departPos="5.10" departSpeed="0.00" departDelay="0.00" arrival="880.00" arrivalLane="A2left2_0" arrivalPos="286.40" arrivalSpeed="11.80" duration="86.00" routeLength="876.90" waitingTime="1.00" waitingCount="1" stopTime="0.00" timeLoss="15.55" rerouteNo="0" devices="tripinfo_185" vType="DEFAULT_VEHTYPE" speedFactor="0.91" vaporized=""/>
    <tripinfo id="194" depart="823.00" departLane="right3D3_0" departPos="5.10" departSpeed="0.00" departDelay="0.00" arrival="896.00" arrivalLane="C3top2_0" arrivalPos="286.40" arrivalSpeed="13.06" duration="73.00" routeLength="876.90" waitingTime="0.00" waitingCount="0" stopTime="0.00" timeLoss="7.98" rerouteNo="0" devices="tripinfo_194" vType="DEFAULT_VEHTYPE" speedFactor="1.00" vaporized=""/>
    <tripinfo id="206" depart="872.00" departLane="left0A0_0" departPos="5.10" departSpeed="0.00" departDelay="0.00" arrival="921.00" arrivalLane="A0bottom0_0" arrivalPos="286.40" arrivalSpeed="13.20" duration="49.00" routeLength="576.73" waitingTime="0.00" waitingCount="0" stopTime="0.00" timeLoss="6.49" rerouteNo="0" devices="tripinfo_206" vType="DEFAULT_VEHTYPE" speedFactor="1.00" vaporized=""/>
    <tripinfo id="212" depart="898.00" departLane="bottom2C0_0" departPos="5.10" departSpeed="0.00" departDelay="0.00" arrival="986.00" arrivalLane="D0bottom3_0" arrivalPos="286.40" arrivalSpeed="12.18" duration="88.00" routeLength="858.56" waitingTime="2.00" waitingCount="2" stopTime="0.00" timeLoss="16.62" rerouteNo="0" devices="tripinfo_212" vType="DEFAULT_VEHTYPE" speedFactor="0.89" vaporized=""/>
    <tripinfo id="16" depart="66.00" departLane="top0A3_0" departPos="5.10" departSpeed="0.00" departDelay="0.00" arrival="1000.00" arrivalLane="B3top1_0" arrivalPos="286.40" arrivalSpeed="13.35" duration="934.00" routeLength="894.86" waitingTime="855.00" waitingCount="1" stopTime="0.00" timeLoss="867.22" rerouteNo="0" devices="tripinfo_16" vType="DEFAULT_VEHTYPE" speedFactor="1.00" vaporized=""/>
    <tripinfo id="215" depart="902.00" departLane="right3D3_0" departPos="5.10" departSpeed="0.00" departDelay="0.00" arrival="1028.00" arrivalLane="D1right1_0" arrivalPos="286.40" arrivalSpeed="12.39" duration="126.00" routeLength="1197.66" waitingTime="18.00" waitingCount="1" stopTime="0.00" timeLoss="31.32" rerouteNo="0" devices="tripinfo_215" vType="DEFAULT_VEHTYPE" speedFactor="0.92" vaporized=""/>
    <tripinfo id="252" depart="988.00" departLane="bottom3D0_0" departPos="5.10" departSpeed="0.00" departDelay="0.00" arrival="1041.00" arrivalLane="D0right0_0" arrivalPos="286.40" arrivalSpeed="14.02" duration="53.00" routeLength="576.73" waitingTime="1.00" waitingCount="1" stopTime="0.00" timeLoss="11.25" rerouteNo="0" devices="tripinfo_252" vType="DEFAULT_VEHTYPE" speedFactor="1.02" vaporized=""/>
    <tripinfo id="242" depart="965.00" departLane="top0A3_0" departPos="5.10" departSpeed="0.00" departDelay="0.00" arrival="1046.00" arrivalLane="A2left2_0" arrivalPos="286.40" arrivalSpeed="11.85" duration="81.00" routeLength="876.90" waitingTime="1.00" waitingCount="1" stopTime="0.00" timeLoss="13.06" rerouteNo="0" devices="tripinfo_242" vType="DEFAULT_VEHTYPE" speedFactor="0.94" vaporized=""/>
    <tripinfo id="10" depart="46.00" departLane="right1D1_0" departPos="5.10" departSpeed="0.00" departDelay="0.00" arrival="1069.00" arrivalLane="D0bottom3_1" arrivalPos="286.40" arrivalSpeed="14.91" duration="1023.00" routeLength="895.01" waitingTime="946.00" waitingCount="2" stopTime="0.00" timeLoss="963.72" rerouteNo="0" devices="tripinfo_10" vType="DEFAULT_VEHTYPE" speedFactor="1.10" vaporized=""/>
    <tripinfo id="63" depart="275.00" departLane="bottom3D0_0" departPos="5.10" departSpeed="0.00" departDelay="0.00" arrival="1069.00" arrivalLane="D0bottom3_0" arrivalPos="286.40" arrivalSpeed="14.31" duration="794.00" routeLength="1745.91" waitingTime="642.00" waitingCount="4" stopTime="0.00" timeLoss="670.73" rerouteNo="0" devices="tripinfo_63" vType="DEFAULT_VEHTYPE" speedFactor="1.04" vaporized=""/>
    <tripinfo id="145" depart="656.00" departLane="right1D1_0" departPos="5.10" departSpeed="0.00" departDelay="0.00" arrival="1073.00" arrivalLane="D0bottom3_0" arrivalPos="286.40" arrivalSpeed="13.22" duration="417.00" routeLength="895.01" waitingTime="334.00" waitingCount="2" stopTime="0.00" timeLoss="353.07" rerouteNo="0" devices="tripinfo_145" vType="DEFAULT_VEHTYPE" speedFactor="1.03" vaporized=""/>
    <tripinfo id="123" depart="543.00" departLane="top3D3_0" departPos="5.10" departSpeed="0.00" departDelay="0.00" arrival="1131.00" arrivalLane="A3top0_0" arrivalPos="286.40" arrivalSpeed="12.06" duration="588.00" routeLength="1461.60" waitingTime="448.00" waitingCount="3" stopTime="0.00" timeLoss="475.28" rerouteNo="0" devices="tripinfo_123" vType="DEFAULT_VEHTYPE" speedFactor="0.95" vaporized=""/>
    <tripinfo id="184" depart="791.00" departLane="top3D3_0" departPos="5.10" departSpeed="0.00" departDelay="0.00" arrival="1136.00" arrivalLane="A3top0_0" arrivalPos="286.40" arrivalSpeed="14.57" duration="345.00" routeLength="1461.60" waitingTime="213.00" waitingCount="3" stopTime="0.00" timeLoss="243.88" rerouteNo="0" devices="tripinfo_184" vType="DEFAULT_VEHTYPE" speedFactor="1.06" vaporized=""/>
    <tripinfo id="289" depart="1062.00" departLane="left1A1_0" departPos="5.10" departSpeed="0.00" departDelay="0.00" arrival="1142.00" arrivalLane="A0left0_0" arrivalPos="286.40" arrivalSpeed="12.25" duration="80.00" routeLength="858.56" waitingTime="1.00" waitingCount="1" stopTime="0.00" timeLoss="11.72" rerouteNo="0" devices="tripinfo_289" vType="DEFAULT_VEHTYPE" speedFactor="0.94" vaporized=""/>
    <tripinfo id="240" depart="963.00" departLane="left2A2_0" departPos="5.10" departSpeed="0.00" departDelay="0.00" arrival="1162.00" arrivalLane="A3left3_0" arrivalPos="286.40" arrivalSpeed="12.18" duration="199.00" routeLength="894.86" waitingTime="117.00" waitingCount="1" stopTime="0.00" timeLoss="127.19" rerouteNo="0" devices="tripinfo_240" vType="DEFAULT_VEHTYPE" speedFactor="0.92" vaporized=""/>
    <tripinfo id="47" depart="221.00" departLane="bottom2C0_0" departPos="5.10" departSpeed="0.00" departDelay="0.00" arrival="1178.00" arrivalLane="D1right1_0" arrivalPos="286.40" arrivalSpeed="14.77" duration="957.00" routeLength="1179.77" waitingTime="857.00" waitingCount="2" stopTime="0.00" timeLoss="876.67" rerouteNo="0" devices="tripinfo_47" vType="DEFAULT_VEHTYPE" speedFactor="1.08" vaporized=""/>
    <tripinfo id="298" depart="1087.00" departLane="left2A2_0" departPos="5.10" departSpeed="0.00" departDelay="0.00" arrival="1181.00" arrivalLane="A1left1_0" arrivalPos="286.40" arrivalSpeed="11.37" duration="94.00" routeLength="858.56" waitingTime="2.00" waitingCount="2" stopTime="0.00" timeLoss="19.17" rerouteNo="0" devices="tripinfo_298" vType="DEFAULT_VEHTYPE" speedFactor="0.84" vaporized=""/>
    <tripinfo id="314" depart="1130.00" departLane="right3D3_0" departPos="5.10" departSpeed="0.00" departDelay="0.00" arrival="1197.00" arrivalLane="C3top2_0" arrivalPos="286.40" arrivalSpeed="14.76" duration="67.00" routeLength="876.90" waitingTime="0.00" waitingCount="0" stopTime="0.00" timeLoss="7.65" rerouteNo="0" devices="tripinfo_314" vType="DEFAULT_VEHTYPE" speedFactor="1.08" vaporized=""/>
    <tripinfo id="229" depart="942.00" departLane="left0A0_0" departPos="5.10" departSpeed="0.00" departDelay="0.00" arrival="1208.00" arrivalLane="C0bottom2_0" arrivalPos="286.40" arrivalSpeed="12.75" duration="266.00" routeLength="1177.07" waitingTime="165.00" waitingCount="1" stopTime="0.00" timeLoss="179.91" rerouteNo="0" devices="tripinfo_229" vType="DEFAULT_VEHTYPE" speedFactor="1.00" vaporized=""/>
    <tripinfo id="287" depart="1061.00" departLane="bottom0A0_0" departPos="5.10" departSpeed="0.00" departDelay="0.00" arrival="1209.00" arrivalLane="A0left0_0" arrivalPos="286.40" arrivalSpeed="13.29" duration="148.00" routeLength="597.55" waitingTime="92.00" waitingCount="1" stopTime="0.00" timeLoss="105.05" rerouteNo="0" devices="tripinfo_287" vType="DEFAULT_VEHTYPE" speedFactor="1.02" vaporized=""/>
    <tripinfo id="307" depart="1115.00" departLane="right3D3_0" departPos="5.10" departSpeed="0.00" departDelay="0.00" arrival="1215.00" arrivalLane="B3top1_0" arrivalPos="286.40" arrivalSpeed="13.26" duration="100.00" routeLength="1177.07" waitingTime="1.00" waitingCount="1" stopTime="0.00" timeLoss="12.84" rerouteNo="0" devices="tripinfo_307" vType="DEFAULT_VEHTYPE" speedFactor="0.99" vaporized=""/>
    <tripinfo id="281" depart="1051.00" departLane="left0A0_0" departPos="5.10" departSpeed="0.00" departDelay="0.00" arrival="1216.00" arrivalLane="C0bottom2_0" arrivalPos="286.40" arrivalSpeed="12.82" duration="165.00" routeLength="1177.07" waitingTime="60.00" waitingCount="1" stopTime="0.00" timeLoss="74.94" rerouteNo="0" devices="tripinfo_281" vType="DEFAULT_VEHTYPE" speedFactor="0.95" vaporized=""/>
    <tripinfo id="131" depart="595.00" departLane="left1A1_0" departPos="5.10" departSpeed="0.00" departDelay="0.00" arrival="1228.00" arrivalLane="A1left1_0" arrivalPos="286.40" arrivalSpeed="14.46" duration="633.00" routeLength="1748.75" waitingTime="474.00" waitingCount="5" stopTime="0.00" timeLoss="512.39" rerouteNo="0" devices="tripinfo_131" vType="DEFAULT_VEHTYPE" speedFactor="1.06" vaporized=""/>
    <tripinfo id="297" depart="1083.00" departLane="left1A1_0" departPos="5.10" departSpeed="0.00" departDelay="0.00" arrival="1229.00" arrivalLane="A1left1_1" arrivalPos="286.40" arrivalSpeed="14.62" duration="146.00" routeLength="1748.75" waitingTime="5.00" waitingCount="3" stopTime="0.00" timeLoss="31.97" rerouteNo="0" devices="tripinfo_297" vType="DEFAULT_VEHTYPE" speedFactor="1.12" vaporized=""/>
    <tripinfo id="21" depart="99.00" departLane="left0A0_0" departPos="5.10" departSpeed="0.00" departDelay="0.00" arrival="1230.00" arrivalLane="D0bottom3_0" arrivalPos="286.40" arrivalSpeed="12.74" duration="1131.00" routeLength="1477.24" waitingTime="1004.00" waitingCount="2" stopTime="0.00" timeLoss="1024.13" rerouteNo="0" devices="tripinfo_21" vType="DEFAULT_VEHTYPE" speedFactor="1.00" vaporized=""/>
    <tripinfo id="44" depart="194.00" departLane="bottom0A0_0" departPos="5.10" departSpeed="0.00" departDelay="0.00" arrival="1235.00" arrivalLane="D0bottom3_0" arrivalPos="286.40" arrivalSpeed="13.70" duration="1041.00" routeLength="1461.60" waitingTime="908.00" waitingCount="4" stopTime="0.00" timeLoss="940.97" rerouteNo="0" devices="tripinfo_44" vType="DEFAULT_VEHTYPE" speedFactor="1.06" vaporized=""/>
    <tripinfo id="228" depart="942.00" departLane="bottom0A0_0" departPos="5.10" departSpeed="0.00" departDelay="0.00" arrival="1250.00" arrivalLane="D0bottom3_0" arrivalPos="286.40" arrivalSpeed="11.42" duration="308.00" routeLength="1461.60" waitingTime="156.00" waitingCount="3" stopTime="0.00" timeLoss="180.06" rerouteNo="0" devices="tripinfo_228" vType="DEFAULT_VEHTYPE" speedFactor="0.83" vaporized=""/>
    <tripinfo id="280" depart="1050.00" departLane="bottom0A0_0" departPos="5.10" departSpeed="0.00" departDelay="0.00" arrival="1251.00" arrivalLane="D0bottom3_1" arrivalPos="286.40" arrivalSpeed="14.02" duration="201.00" routeLength="1461.60" waitingTime="61.00" waitingCount="4" stopTime="0.00" timeLoss="95.12" rerouteNo="0" devices="tripinfo_280" vType="DEFAULT_VEHTYPE" speedFactor="1.01" vaporized=""/>
    <tripinfo id="344" depart="1210.00" departLane="bottom0A0_0" departPos="5.10" departSpeed="0.00" departDelay="0.00" arrival="1257.00" arrivalLane="A0left0_0" arrivalPos="286.40" arrivalSpeed="14.17" duration="47.00" routeLength="597.55" waitingTime="0.00" waitingCount="0" stopTime="0.00" timeLoss="5.11" rerouteNo="0" devices="tripinfo_344" vType="DEFAULT_VEHTYPE" speedFactor="1.05" vaporized=""/>
    <tripinfo id="31" depart="133.00" departLane="left3A3_0" departPos="5.10" departSpeed="0.00" departDelay="0.00" arrival="1259.00" arrivalLane="A3left3_0" arrivalPos="286.40" arrivalSpeed="13.48" duration="1126.00" routeLength="1748.75" waitingTime="966.00" waitingCount="4" stopTime="0.00" timeLoss="996.80" rerouteNo="0" devices="tripinfo_31" vType="DEFAULT_VEHTYPE" speedFactor="0.99" vaporized=""/>
    <tripinfo id="331" depart="1186.00" departLane="left1A1_0" departPos="5.10" departSpeed="0.00" departDelay="0.00" arrival="1264.00" arrivalLane="A0left0_0" arrivalPos="286.40" arrivalSpeed="13.54" duration="78.00" routeLength="858.56" waitingTime="1.00" waitingCount="1" stopTime="0.00" timeLoss="17.17" rerouteNo="0" devices="tripinfo_331" vType="DEFAULT_VEHTYPE" speedFactor="1.04" vaporized=""/>
    <tripinfo id="343" depart="1209.00" departLane="top1B3_0" departPos="5.10" departSpeed="0.00" departDelay="0.00" arrival="1287.00" arrivalLane="A3top0_0" arrivalPos="286.40" arrivalSpeed="14.63" duration="78.00" routeLength="858.56" waitingTime="2.00" waitingCount="2" stopTime="0.00" timeLoss="19.75" rerouteNo="0" devices="tripinfo_343" vType="DEFAULT_VEHTYPE" speedFactor="1.09" vaporized=""/>
    <tripinfo id="348" depart="1217.00" departLane="bottom1B0_0" departPos="5.10" departSpeed="0.00" departDelay="0.00" arrival="1287.00" arrivalLane="C0bottom2_0" arrivalPos="286.40" arrivalSpeed="15.75" duration="70.00" routeLength="858.56" waitingTime="1.00" waitingCount="1" stopTime="0.00" timeLoss="15.31" rerouteNo="0" devices="tripinfo_348" vType="DEFAULT_VEHTYPE" speedFactor="1.16" vaporized=""/>
    <tripinfo id="355" depart="1245.00" departLane="top0A3_0" departPos="5.10" departSpeed="0.00" departDelay="0.00" arrival="1309.00" arrivalLane="B3top1_0" arrivalPos="286.40" arrivalSpeed="15.80" duration="64.00" routeLength="894.86" waitingTime="0.00" waitingCount="0" stopTime="0.00" timeLoss="6.37" rerouteNo="0" devices="tripinfo_355" vType="DEFAULT_VEHTYPE" speedFactor="1.15" vaporized=""/>
    <tripinfo id="363" depart="1256.00" departLane="bottom1B0_0" departPos="5.10" departSpeed="0.00" departDelay="0.00" arrival="1331.00" arrivalLane="C0bottom2_0" arrivalPos="286.40" arrivalSpeed="13.51" duration="75.00" routeLength="858.56" waitingTime="1.00" waitingCount="1" stopTime="0.00" timeLoss="12.66" rerouteNo="0" devices="tripinfo_363" vType="DEFAULT_VEHTYPE" speedFactor="1.01" vaporized=""/>
    <tripinfo id="382" depart="1289.00" departLane="top0A3_0" departPos="5.10" departSpeed="0.00" departDelay="0.00" arrival="1339.00" arrivalLane="A3left3_0" arrivalPos="286.40" arrivalSpeed="13.23" duration="50.00" routeLength="576.73" waitingTime="0.00" waitingCount="0" stopTime="0.00" timeLoss="8.17" rerouteNo="0" devices="tripinfo_382" vType="DEFAULT_VEHTYPE" speedFactor="1.02" vaporized=""/>
    <tripinfo id="369" depart="1269.00" departLane="bottom0A0_0" departPos="5.10" departSpeed="0.00" departDelay="0.00" arrival="1343.00" arrivalLane="B0bottom1_0" arrivalPos="286.40" arrivalSpeed="13.81" duration="74.00" routeLength="858.56" waitingTime="1.00" waitingCount="1" stopTime="0.00" timeLoss="13.21" rerouteNo="0" devices="tripinfo_369" vType="DEFAULT_VEHTYPE" speedFactor="1.05" vaporized=""/>