<?xml version="1.0" encoding="UTF-8"?>

<!-- generated on 2023-08-30 13:36:11 by Eclipse SUMO libsumo Version 1.18.0
<configuration xmlns:xsi="http://www.w3.org/2001/XMLSchema-instance" xsi:noNamespaceSchemaLocation="http://sumo.dlr.de/xsd/libsumoConfiguration.xsd">

    <input>
        <net-file value="/home/stefan/RESCO/./environments/grid4x4/grid4x4.net.xml"/>
        <route-files value="/home/stefan/RESCO/./environments/grid4x4/grid4x4_65.rou.xml"/>
    </input>

    <output>
        <tripinfo-output value="/home/stefan/results/RAINBOW-tr0-grid4x4-0-drq_norm-wait_norm/tripinfo_65.xml"/>
        <tripinfo-output.write-unfinished value="true"/>
    </output>

    <processing>
        <time-to-teleport value="-1"/>
    </processing>

    <report>
        <no-warnings value="True"/>
        <no-step-log value="True"/>
    </report>

    <random_number>
        <random value="true"/>
    </random_number>

</configuration>
-->

<tripinfos xmlns:xsi="http://www.w3.org/2001/XMLSchema-instance" xsi:noNamespaceSchemaLocation="http://sumo.dlr.de/xsd/tripinfo_file.xsd">
    <tripinfo id="6" depart="46.00" departLane="top0A3_0" departPos="5.10" departSpeed="0.00" departDelay="0.00" arrival="92.00" arrivalLane="A3left3_0" arrivalPos="286.40" arrivalSpeed="14.33" duration="46.00" routeLength="576.73" waitingTime="0.00" waitingCount="0" stopTime="0.00" timeLoss="7.37" rerouteNo="0" devices="tripinfo_6" vType="DEFAULT_VEHTYPE" speedFactor="1.12" vaporized=""/>
    <tripinfo id="9" depart="69.00" departLane="top3D3_0" departPos="5.10" departSpeed="0.00" departDelay="0.00" arrival="143.00" arrivalLane="C3top2_0" arrivalPos="286.40" arrivalSpeed="13.37" duration="74.00" routeLength="858.56" waitingTime="0.00" waitingCount="0" stopTime="0.00" timeLoss="12.01" rerouteNo="0" devices="tripinfo_9" vType="DEFAULT_VEHTYPE" speedFactor="1.02" vaporized=""/>
    <tripinfo id="12" depart="84.00" departLane="top3D3_0" departPos="5.10" departSpeed="0.00" departDelay="0.00" arrival="187.00" arrivalLane="B3top1_0" arrivalPos="286.40" arrivalSpeed="14.14" duration="103.00" routeLength="1161.43" waitingTime="2.00" waitingCount="2" stopTime="0.00" timeLoss="21.34" rerouteNo="0" devices="tripinfo_12" vType="DEFAULT_VEHTYPE" speedFactor="1.04" vaporized=""/>
    <tripinfo id="13" depart="90.00" departLane="top0A3_0" departPos="5.10" departSpeed="0.00" departDelay="0.00" arrival="211.00" arrivalLane="B3top1_0" arrivalPos="286.40" arrivalSpeed="12.35" duration="121.00" routeLength="894.86" waitingTime="37.00" waitingCount="1" stopTime="0.00" timeLoss="49.44" rerouteNo="0" devices="tripinfo_13" vType="DEFAULT_VEHTYPE" speedFactor="0.92" vaporized=""/>
    <tripinfo id="14" depart="101.00" departLane="right1D1_0" departPos="5.10" departSpeed="0.00" departDelay="0.00" arrival="290.00" arrivalLane="D0bottom3_0" arrivalPos="286.40" arrivalSpeed="12.58" duration="189.00" routeLength="895.01" waitingTime="109.00" waitingCount="1" stopTime="0.00" timeLoss="123.10" rerouteNo="0" devices="tripinfo_14" vType="DEFAULT_VEHTYPE" speedFactor="1.00" vaporized=""/>
    <tripinfo id="39" depart="244.00" departLane="right3D3_0" departPos="5.10" departSpeed="0.00" departDelay="0.00" arrival="296.00" arrivalLane="D3top3_0" arrivalPos="286.40" arrivalSpeed="12.00" duration="52.00" routeLength="576.73" waitingTime="0.00" waitingCount="0" stopTime="0.00" timeLoss="7.61" rerouteNo="0" devices="tripinfo_39" vType="DEFAULT_VEHTYPE" speedFactor="0.95" vaporized=""/>
    <tripinfo id="1" depart="11.00" departLane="bottom2C0_0" departPos="5.10" departSpeed="0.00" departDelay="0.00" arrival="303.00" arrivalLane="D2right2_0" arrivalPos="286.40" arrivalSpeed="11.00" duration="292.00" routeLength="1479.94" waitingTime="147.00" waitingCount="2" stopTime="0.00" timeLoss="169.35" rerouteNo="0" devices="tripinfo_1" vType="DEFAULT_VEHTYPE" speedFactor="0.88" vaporized=""/>
    <tripinfo id="3" depart="21.00" departLane="top0A3_0" departPos="5.10" departSpeed="0.00" departDelay="0.00" arrival="310.00" arrivalLane="D3top3_0" arrivalPos="286.40" arrivalSpeed="13.48" duration="289.00" routeLength="1497.83" waitingTime="155.00" waitingCount="2" stopTime="0.00" timeLoss="176.61" rerouteNo="0" devices="tripinfo_3" vType="DEFAULT_VEHTYPE" speedFactor="0.97" vaporized=""/>
    <tripinfo id="4" depart="26.00" departLane="right3D3_0" departPos="5.10" departSpeed="0.00" departDelay="0.00" arrival="327.00" arrivalLane="A2left2_0" arrivalPos="286.40" arrivalSpeed="14.99" duration="301.00" routeLength="1782.59" waitingTime="150.00" waitingCount="3" stopTime="0.00" timeLoss="186.55" rerouteNo="0" devices="tripinfo_4" vType="DEFAULT_VEHTYPE" speedFactor="1.13" vaporized=""/>
    <tripinfo id="8" depart="68.00" departLane="bottom0A0_0" departPos="5.10" departSpeed="0.00" departDelay="0.00" arrival="337.00" arrivalLane="A0bottom0_0" arrivalPos="286.40" arrivalSpeed="15.16" duration="269.00" routeLength="1748.75" waitingTime="120.00" waitingCount="4" stopTime="0.00" timeLoss="156.82" rerouteNo="0" devices="tripinfo_8" vType="DEFAULT_VEHTYPE" speedFactor="1.14" vaporized=""/>
    <tripinfo id="36" depart="218.00" departLane="top1B3_0" departPos="5.10" departSpeed="0.00" departDelay="0.00" arrival="343.00" arrivalLane="A2left2_0" arrivalPos="286.40" arrivalSpeed="11.80" duration="125.00" routeLength="1179.77" waitingTime="8.00" waitingCount="2" stopTime="0.00" timeLoss="24.83" rerouteNo="0" devices="tripinfo_36" vType="DEFAULT_VEHTYPE" speedFactor="0.85" vaporized=""/>
    <tripinfo id="33" depart="208.00" departLane="left3A3_0" departPos="5.10" departSpeed="0.00" departDelay="0.00" arrival="344.00" arrivalLane="A0left0_0" arrivalPos="286.40" arrivalSpeed="14.47" duration="136.00" routeLength="1461.60" waitingTime="12.00" waitingCount="3" stopTime="0.00" timeLoss="41.54" rerouteNo="0" devices="tripinfo_33" vType="DEFAULT_VEHTYPE" speedFactor="1.13" vaporized=""/>
    <tripinfo id="16" depart="107.00" departLane="bottom3D0_0" departPos="5.10" departSpeed="0.00" departDelay="0.00" arrival="410.00" arrivalLane="C0bottom2_0" arrivalPos="286.40" arrivalSpeed="13.67" duration="303.00" routeLength="894.86" waitingTime="219.00" waitingCount="2" stopTime="0.00" timeLoss="236.92" rerouteNo="0" devices="tripinfo_16" vType="DEFAULT_VEHTYPE" speedFactor="1.00" vaporized=""/>
    <tripinfo id="19" depart="116.00" departLane="bottom3D0_0" departPos="5.10" departSpeed="0.00" departDelay="0.00" arrival="414.00" arrivalLane="C0bottom2_0" arrivalPos="286.40" arrivalSpeed="12.37" duration="298.00" routeLength="894.86" waitingTime="210.00" waitingCount="2" stopTime="0.00" timeLoss="227.08" rerouteNo="0" devices="tripinfo_19" vType="DEFAULT_VEHTYPE" speedFactor="0.93" vaporized=""/>
    <tripinfo id="46" depart="272.00" departLane="bottom0A0_0" departPos="5.10" departSpeed="0.00" departDelay="0.00" arrival="432.00" arrivalLane="A0bottom0_0" arrivalPos="286.40" arrivalSpeed="12.42" duration="160.00" routeLength="1748.75" waitingTime="1.00" waitingCount="1" stopTime="0.00" timeLoss="19.37" rerouteNo="0" devices="tripinfo_46" vType="DEFAULT_VEHTYPE" speedFactor="0.91" vaporized=""/>
    <tripinfo id="2" depart="18.00" departLane="top2C3_0" departPos="5.10" departSpeed="0.00" departDelay="0.00" arrival="438.00" arrivalLane="C3top2_0" arrivalPos="286.40" arrivalSpeed="14.08" duration="420.00" routeLength="1748.75" waitingTime="264.00" waitingCount="5" stopTime="0.00" timeLoss="301.82" rerouteNo="0" devices="tripinfo_2" vType="DEFAULT_VEHTYPE" speedFactor="1.09" vaporized=""/>
    <tripinfo id="27" depart="180.00" departLane="top0A3_0" departPos="5.10" departSpeed="0.00" departDelay="0.00" arrival="439.00" arrivalLane="B3top1_0" arrivalPos="286.40" arrivalSpeed="13.91" duration="259.00" routeLength="894.86" waitingTime="179.00" waitingCount="2" stopTime="0.00" timeLoss="194.56" rerouteNo="0" devices="tripinfo_27" vType="DEFAULT_VEHTYPE" speedFactor="1.03" vaporized=""/>
    <tripinfo id="73" depart="389.00" departLane="bottom0A0_0" departPos="5.10" departSpeed="0.00" departDelay="0.00" arrival="475.00" arrivalLane="B0bottom1_0" arrivalPos="286.40" arrivalSpeed="12.00" duration="86.00" routeLength="858.56" waitingTime="1.00" waitingCount="1" stopTime="0.00" timeLoss="12.58" rerouteNo="0" devices="tripinfo_73" vType="DEFAULT_VEHTYPE" speedFactor="0.86" vaporized=""/>
    <tripinfo id="55" depart="330.00" departLane="bottom0A0_0" departPos="5.10" departSpeed="0.00" departDelay="0.00" arrival="479.00" arrivalLane="D0right0_0" arrivalPos="286.40" arrivalSpeed="13.82" duration="149.00" routeLength="1479.94" waitingTime="30.00" waitingCount="2" stopTime="0.00" timeLoss="48.64" rerouteNo="0" devices="tripinfo_55" vType="DEFAULT_VEHTYPE" speedFactor="1.07" vaporized=""/>
    <tripinfo id="76" depart="407.00" departLane="right1D1_0" departPos="5.10" departSpeed="0.00" departDelay="0.00" arrival="484.00" arrivalLane="D2right2_0" arrivalPos="286.40" arrivalSpeed="13.71" duration="77.00" routeLength="858.56" waitingTime="2.00" waitingCount="2" stopTime="0.00" timeLoss="17.14" rerouteNo="0" devices="tripinfo_76" vType="DEFAULT_VEHTYPE" speedFactor="1.06" vaporized=""/>
    <tripinfo id="77" depart="409.00" departLane="left2A2_0" departPos="5.10" departSpeed="0.00" departDelay="0.00" arrival="485.00" arrivalLane="A1left1_0" arrivalPos="286.40" arrivalSpeed="15.15" duration="76.00" routeLength="858.56" waitingTime="2.00" waitingCount="2" stopTime="0.00" timeLoss="20.65" rerouteNo="0" devices="tripinfo_77" vType="DEFAULT_VEHTYPE" speedFactor="1.14" vaporized=""/>
    <tripinfo id="47" depart="272.00" departLane="top3D3_0" departPos="5.10" departSpeed="0.00" departDelay="0.00" arrival="514.00" arrivalLane="A2left2_0" arrivalPos="286.40" arrivalSpeed="12.51" duration="242.00" routeLength="1780.11" waitingTime="80.00" waitingCount="3" stopTime="0.00" timeLoss="107.65" rerouteNo="0" devices="tripinfo_47" vType="DEFAULT_VEHTYPE" speedFactor="0.96" vaporized=""/>
    <tripinfo id="90" depart="469.00" departLane="right3D3_0" departPos="5.10" departSpeed="0.00" departDelay="0.00" arrival="532.00" arrivalLane="C3top2_0" arrivalPos="286.40" arrivalSpeed="18.19" duration="63.00" routeLength="876.90" waitingTime="1.00" waitingCount="1" stopTime="0.00" timeLoss="14.19" rerouteNo="0" devices="tripinfo_90" vType="DEFAULT_VEHTYPE" speedFactor="1.31" vaporized=""/>
    <tripinfo id="69" depart="383.00" departLane="bottom1B0_0" departPos="5.10" departSpeed="0.00" departDelay="0.00" arrival="535.00" arrivalLane="A0left0_0" arrivalPos="286.40" arrivalSpeed="12.00" duration="152.00" routeLength="895.01" waitingTime="72.00" waitingCount="1" stopTime="0.00" timeLoss="82.36" rerouteNo="0" devices="tripinfo_69" vType="DEFAULT_VEHTYPE" speedFactor="0.94" vaporized=""/>
    <tripinfo id="26" depart="180.00" departLane="right3D3_0" departPos="5.10" departSpeed="0.00" departDelay="0.00" arrival="541.00" arrivalLane="D0right0_0" arrivalPos="286.40" arrivalSpeed="11.74" duration="361.00" routeLength="1497.83" waitingTime="219.00" waitingCount="3" stopTime="0.00" timeLoss="242.71" rerouteNo="0" devices="tripinfo_26" vType="DEFAULT_VEHTYPE" speedFactor="0.92" vaporized=""/>
    <tripinfo id="29" depart="191.00" departLane="bottom3D0_0" departPos="5.10" departSpeed="0.00" departDelay="0.00" arrival="541.00" arrivalLane="D0bottom3_0" arrivalPos="286.40" arrivalSpeed="12.76" duration="350.00" routeLength="1745.91" waitingTime="181.00" waitingCount="4" stopTime="0.00" timeLoss="212.30" rerouteNo="0" devices="tripinfo_29" vType="DEFAULT_VEHTYPE" speedFactor="0.93" vaporized=""/>
    <tripinfo id="96" depart="492.00" departLane="bottom3D0_0" departPos="5.10" departSpeed="0.00" departDelay="0.00" arrival="543.00" arrivalLane="D0right0_0" arrivalPos="286.40" arrivalSpeed="14.57" duration="51.00" routeLength="576.73" waitingTime="1.00" waitingCount="1" stopTime="0.00" timeLoss="12.23" rerouteNo="0" devices="tripinfo_96" vType="DEFAULT_VEHTYPE" speedFactor="1.10" vaporized=""/>
    <tripinfo id="10" depart="77.00" departLane="left2A2_0" departPos="5.10" departSpeed="0.00" departDelay="0.00" arrival="545.00" arrivalLane="D0bottom3_0" arrivalPos="286.40" arrivalSpeed="11.41" duration="468.00" routeLength="2080.28" waitingTime="259.00" waitingCount="4" stopTime="0.00" timeLoss="295.85" rerouteNo="0" devices="tripinfo_10" vType="DEFAULT_VEHTYPE" speedFactor="0.88" vaporized=""/>
    <tripinfo id="88" depart="467.00" departLane="bottom2C0_0" departPos="5.10" departSpeed="0.00" departDelay="0.00" arrival="548.00" arrivalLane="D0right0_0" arrivalPos="286.40" arrivalSpeed="14.42" duration="81.00" routeLength="879.60" waitingTime="4.00" waitingCount="2" stopTime="0.00" timeLoss="22.56" rerouteNo="0" devices="tripinfo_88" vType="DEFAULT_VEHTYPE" speedFactor="1.10" vaporized=""/>
    <tripinfo id="54" depart="326.00" departLane="right0D0_0" departPos="5.10" departSpeed="0.00" departDelay="0.00" arrival="551.00" arrivalLane="C3top2_1" arrivalPos="286.40" arrivalSpeed="13.18" duration="225.00" routeLength="1780.11" waitingTime="66.00" waitingCount="4" stopTime="0.00" timeLoss="100.40" rerouteNo="0" devices="tripinfo_54" vType="DEFAULT_VEHTYPE" speedFactor="1.04" vaporized=""/>
    <tripinfo id="35" depart="213.00" departLane="bottom3D0_0" departPos="5.10" departSpeed="0.00" departDelay="0.00" arrival="552.00" arrivalLane="C3top2_0" arrivalPos="286.40" arrivalSpeed="11.49" duration="339.00" routeLength="1782.59" waitingTime="158.00" waitingCount="5" stopTime="0.00" timeLoss="193.07" rerouteNo="0" devices="tripinfo_35" vType="DEFAULT_VEHTYPE" speedFactor="0.89" vaporized=""/>
    <tripinfo id="92" depart="472.00" departLane="top3D3_0" departPos="5.10" departSpeed="0.00" departDelay="0.00" arrival="554.00" arrivalLane="C3top2_0" arrivalPos="286.40" arrivalSpeed="13.24" duration="82.00" routeLength="858.56" waitingTime="7.00" waitingCount="1" stopTime="0.00" timeLoss="20.63" rerouteNo="0" devices="tripinfo_92" vType="DEFAULT_VEHTYPE" speedFactor="1.02" vaporized=""/>
    <tripinfo id="21" depart="141.00" departLane="bottom2C0_0" departPos="5.10" departSpeed="0.00" departDelay="0.00" arrival="568.00" arrivalLane="B3top1_0" arrivalPos="286.40" arrivalSpeed="15.13" duration="427.00" routeLength="1782.59" waitingTime="291.00" waitingCount="1" stopTime="0.00" timeLoss="308.40" rerouteNo="0" devices="tripinfo_21" vType="DEFAULT_VEHTYPE" speedFactor="1.10" vaporized=""/>
    <tripinfo id="70" depart="383.00" departLane="bottom2C0_0" departPos="5.10" departSpeed="0.00" departDelay="0.00" arrival="571.00" arrivalLane="B3top1_0" arrivalPos="286.40" arrivalSpeed="14.35" duration="188.00" routeLength="1782.59" waitingTime="44.00" waitingCount="3" stopTime="0.00" timeLoss="71.65" rerouteNo="0" devices="tripinfo_70" vType="DEFAULT_VEHTYPE" speedFactor="1.12" vaporized=""/>
    <tripinfo id="106" depart="520.00" departLane="bottom3D0_0" departPos="5.10" departSpeed="0.00" departDelay="0.00" arrival="571.00" arrivalLane="D0right0_0" arrivalPos="286.40" arrivalSpeed="14.09" duration="51.00" routeLength="576.73" waitingTime="1.00" waitingCount="1" stopTime="0.00" timeLoss="11.72" rerouteNo="0" devices="tripinfo_106" vType="DEFAULT_VEHTYPE" speedFactor="1.09" vaporized=""/>
    <tripinfo id="91" depart="471.00" departLane="left0A0_0" departPos="5.10" departSpeed="0.00" departDelay="0.00" arrival="595.00" arrivalLane="B0bottom1_0" arrivalPos="286.40" arrivalSpeed="13.68" duration="124.00" routeLength="876.90" waitingTime="48.00" waitingCount="1" stopTime="0.00" timeLoss="61.13" rerouteNo="0" devices="tripinfo_91" vType="DEFAULT_VEHTYPE" speedFactor="1.02" vaporized=""/>
    <tripinfo id="108" depart="524.00" departLane="right1D1_0" departPos="5.10" departSpeed="0.00" departDelay="0.00" arrival="607.00" arrivalLane="D2right2_0" arrivalPos="286.40" arrivalSpeed="11.70" duration="83.00" routeLength="858.56" waitingTime="1.00" waitingCount="1" stopTime="0.00" timeLoss="13.00" rerouteNo="0" devices="tripinfo_108" vType="DEFAULT_VEHTYPE" speedFactor="0.90" vaporized=""/>
    <tripinfo id="87" depart="463.00" departLane="top1B3_0" departPos="5.10" departSpeed="0.00" departDelay="0.00" arrival="616.00" arrivalLane="B3top1_0" arrivalPos="286.40" arrivalSpeed="16.40" duration="153.00" routeLength="1748.75" waitingTime="16.00" waitingCount="3" stopTime="0.00" timeLoss="46.89" rerouteNo="0" devices="tripinfo_87" vType="DEFAULT_VEHTYPE" speedFactor="1.22" vaporized=""/>
    <tripinfo id="71" depart="386.00" departLane="right0D0_0" departPos="5.10" departSpeed="0.00" departDelay="0.00" arrival="617.00" arrivalLane="C0bottom2_0" arrivalPos="286.40" arrivalSpeed="14.98" duration="231.00" routeLength="897.72" waitingTime="162.00" waitingCount="1" stopTime="0.00" timeLoss="173.75" rerouteNo="0" devices="tripinfo_71" vType="DEFAULT_VEHTYPE" speedFactor="1.15" vaporized=""/>
    <tripinfo id="94" depart="481.00" departLane="right0D0_0" departPos="5.10" departSpeed="0.00" departDelay="0.00" arrival="625.00" arrivalLane="C0bottom2_0" arrivalPos="286.40" arrivalSpeed="11.34" duration="144.00" routeLength="897.72" waitingTime="53.00" waitingCount="2" stopTime="0.00" timeLoss="69.33" rerouteNo="0" devices="tripinfo_94" vType="DEFAULT_VEHTYPE" speedFactor="0.88" vaporized=""/>
    <tripinfo id="20" depart="125.00" departLane="left0A0_0" departPos="5.10" departSpeed="0.00" departDelay="0.00" arrival="629.00" arrivalLane="C0bottom2_0" arrivalPos="286.40" arrivalSpeed="11.68" duration="504.00" routeLength="1177.07" waitingTime="390.00" waitingCount="2" stopTime="0.00" timeLoss="407.47" rerouteNo="0" devices="tripinfo_20" vType="DEFAULT_VEHTYPE" speedFactor="0.89" vaporized=""/>
    <tripinfo id="52" depart="317.00" departLane="right3D3_0" departPos="5.10" departSpeed="0.00" departDelay="0.00" arrival="631.00" arrivalLane="D2right2_1" arrivalPos="286.40" arrivalSpeed="13.86" duration="314.00" routeLength="894.86" waitingTime="234.00" waitingCount="2" stopTime="0.00" timeLoss="250.54" rerouteNo="0" devices="tripinfo_52" vType="DEFAULT_VEHTYPE" speedFactor="1.04" vaporized=""/>
    <tripinfo id="125" depart="583.00" departLane="right3D3_0" departPos="5.10" departSpeed="0.00" departDelay="0.00" arrival="631.00" arrivalLane="D3top3_0" arrivalPos="286.40" arrivalSpeed="15.26" duration="48.00" routeLength="576.73" waitingTime="1.00" waitingCount="1" stopTime="0.00" timeLoss="11.49" rerouteNo="0" devices="tripinfo_125" vType="DEFAULT_VEHTYPE" speedFactor="1.16" vaporized=""/>
    <tripinfo id="67" depart="380.00" departLane="top3D3_0" departPos="5.10" departSpeed="0.00" departDelay="0.00" arrival="632.00" arrivalLane="D2right2_0" arrivalPos="286.40" arrivalSpeed="11.85" duration="252.00" routeLength="897.72" waitingTime="167.00" waitingCount="1" stopTime="0.00" timeLoss="179.59" rerouteNo="0" devices="tripinfo_67" vType="DEFAULT_VEHTYPE" speedFactor="0.91" vaporized=""/>
    <tripinfo id="40" depart="248.00" departLane="top0A3_0" departPos="5.10" departSpeed="0.00" departDelay="0.00" arrival="651.00" arrivalLane="A0left0_0" arrivalPos="286.40" arrivalSpeed="13.09" duration="403.00" routeLength="1477.24" waitingTime="260.00" waitingCount="3" stopTime="0.00" timeLoss="290.81" rerouteNo="0" devices="tripinfo_40" vType="DEFAULT_VEHTYPE" speedFactor="0.95" vaporized=""/>
    <tripinfo id="58" depart="336.00" departLane="left0A0_0" departPos="5.10" departSpeed="0.00" departDelay="0.00" arrival="688.00" arrivalLane="D0bottom3_0" arrivalPos="286.40" arrivalSpeed="14.42" duration="352.00" routeLength="1477.24" waitingTime="226.00" waitingCount="2" stopTime="0.00" timeLoss="256.03" rerouteNo="0" devices="tripinfo_58" vType="DEFAULT_VEHTYPE" speedFactor="1.11" vaporized=""/>
    <tripinfo id="117" depart="546.00" departLane="bottom3D0_0" departPos="5.10" departSpeed="0.00" departDelay="0.00" arrival="698.00" arrivalLane="C0bottom2_0" arrivalPos="286.40" arrivalSpeed="13.69" duration="152.00" routeLength="894.86" waitingTime="75.00" waitingCount="2" stopTime="0.00" timeLoss="89.73" rerouteNo="0" devices="tripinfo_117" vType="DEFAULT_VEHTYPE" speedFactor="1.06" vaporized=""/>
    <tripinfo id="130" depart="605.00" departLane="right0D0_0" departPos="5.10" departSpeed="0.00" departDelay="0.00" arrival="702.00" arrivalLane="C0bottom2_0" arrivalPos="286.40" arrivalSpeed="13.42" duration="97.00" routeLength="897.72" waitingTime="14.00" waitingCount="1" stopTime="0.00" timeLoss="31.09" rerouteNo="0" devices="tripinfo_130" vType="DEFAULT_VEHTYPE" speedFactor="1.00" vaporized=""/>
    <tripinfo id="146" depart="657.00" departLane="top0A3_0" departPos="5.10" departSpeed="0.00" departDelay="0.00" arrival="708.00" arrivalLane="A3left3_0" arrivalPos="286.40" arrivalSpeed="13.39" duration="51.00" routeLength="576.73" waitingTime="1.00" waitingCount="1" stopTime="0.00" timeLoss="9.35" rerouteNo="0" devices="tripinfo_146" vType="DEFAULT_VEHTYPE" speedFactor="1.01" vaporized=""/>
    <tripinfo id="28" depart="181.00" departLane="top3D3_0" departPos="5.10" departSpeed="0.00" departDelay="0.00" arrival="710.00" arrivalLane="C0bottom2_0" arrivalPos="286.40" arrivalSpeed="13.46" duration="529.00" routeLength="1782.72" waitingTime="363.00" waitingCount="4" stopTime="0.00" timeLoss="396.11" rerouteNo="0" devices="tripinfo_28" vType="DEFAULT_VEHTYPE" speedFactor="0.98" vaporized=""/>
    <tripinfo id="59" depart="337.00" departLane="left1A1_0" departPos="5.10" departSpeed="0.00" departDelay="0.00" arrival="714.00" arrivalLane="C0bottom2_0" arrivalPos="286.40" arrivalSpeed="11.84" duration="377.00" routeLength="1479.94" waitingTime="230.00" waitingCount="3" stopTime="0.00" timeLoss="256.44" rerouteNo="0" devices="tripinfo_59" vType="DEFAULT_VEHTYPE" speedFactor="0.89" vaporized=""/>
    <tripinfo id="74" depart="404.00" departLane="left1A1_0" departPos="5.10" departSpeed="0.00" departDelay="0.00" arrival="716.00" arrivalLane="C0bottom2_0" arrivalPos="286.40" arrivalSpeed="11.96" duration="312.00" routeLength="1479.94" waitingTime="173.00" waitingCount="1" stopTime="0.00" timeLoss="190.95" rerouteNo="0" devices="tripinfo_74" vType="DEFAULT_VEHTYPE" speedFactor="0.89" vaporized=""/>
    <tripinfo id="144" depart="652.00" departLane="top1B3_0" departPos="5.10" departSpeed="0.00" departDelay="0.00" arrival="741.00" arrivalLane="A2left2_0" arrivalPos="286.40" arrivalSpeed="15.71" duration="89.00" routeLength="1179.77" waitingTime="1.00" waitingCount="1" stopTime="0.00" timeLoss="13.12" rerouteNo="0" devices="tripinfo_144" vType="DEFAULT_VEHTYPE" speedFactor="1.13" vaporized=""/>
    <tripinfo id="24" depart="150.00" departLane="left2A2_0" departPos="5.10" departSpeed="0.00" departDelay="0.00" arrival="749.00" arrivalLane="A3top0_0" arrivalPos="286.40" arrivalSpeed="13.49" duration="599.00" routeLength="895.01" waitingTime="517.00" waitingCount="2" stopTime="0.00" timeLoss="535.56" rerouteNo="0" devices="tripinfo_24" vType="DEFAULT_VEHTYPE" speedFactor="1.03" vaporized=""/>
    <tripinfo id="89" depart="468.00" departLane="left0A0_0" departPos="5.10" departSpeed="0.00" departDelay="0.00" arrival="750.00" arrivalLane="A3left3_0" arrivalPos="286.40" arrivalSpeed="12.83" duration="282.00" routeLength="1497.83" waitingTime="142.00" waitingCount="4" stopTime="0.00" timeLoss="170.04" rerouteNo="0" devices="tripinfo_89" vType="DEFAULT_VEHTYPE" speedFactor="0.98" vaporized=""/>
    <tripinfo id="0" depart="1.00" departLane="left1A1_0" departPos="5.10" departSpeed="0.00" departDelay="0.00" arrival="753.00" arrivalLane="A3top0_1" arrivalPos="286.40" arrivalSpeed="14.48" duration="752.00" routeLength="1195.18" waitingTime="644.00" waitingCount="3" stopTime="0.00" timeLoss="669.06" rerouteNo="0" devices="tripinfo_0" vType="DEFAULT_VEHTYPE" speedFactor="1.05" vaporized=""/>
    <tripinfo id="15" depart="103.00" departLane="top0A3_0" departPos="5.10" departSpeed="0.00" departDelay="0.00" arrival="753.00" arrivalLane="A3top0_0" arrivalPos="286.40" arrivalSpeed="13.07" duration="650.00" routeLength="1745.91" waitingTime="481.00" waitingCount="4" stopTime="0.00" timeLoss="514.12" rerouteNo="0" devices="tripinfo_15" vType="DEFAULT_VEHTYPE" speedFactor="0.95" vaporized=""/>
    <tripinfo id="23" depart="144.00" departLane="left2A2_0" departPos="5.10" departSpeed="0.00" departDelay="0.00" arrival="787.00" arrivalLane="B0bottom1_0" arrivalPos="286.40" arrivalSpeed="14.51" duration="643.00" routeLength="1479.94" waitingTime="517.00" waitingCount="3" stopTime="0.00" timeLoss="544.06" rerouteNo="0" devices="tripinfo_23" vType="DEFAULT_VEHTYPE" speedFactor="1.09" vaporized=""/>
    <tripinfo id="30" depart="204.00" departLane="top1B3_0" departPos="5.10" departSpeed="0.00" departDelay="0.00" arrival="791.00" arrivalLane="B0bottom1_0" arrivalPos="286.40" arrivalSpeed="13.92" duration="587.00" routeLength="1495.58" waitingTime="447.00" waitingCount="3" stopTime="0.00" timeLoss="480.90" rerouteNo="0" devices="tripinfo_30" vType="DEFAULT_VEHTYPE" speedFactor="1.02" vaporized=""/>
    <tripinfo id="82" depart="443.00" departLane="bottom0A0_0" departPos="5.10" departSpeed="0.00" departDelay="0.00" arrival="792.00" arrivalLane="A3top0_0" arrivalPos="286.40" arrivalSpeed="12.04" duration="349.00" routeLength="1495.58" waitingTime="197.00" waitingCount="4" stopTime="0.00" timeLoss="227.47" rerouteNo="0" devices="tripinfo_82" vType="DEFAULT_VEHTYPE" speedFactor="0.89" vaporized=""/>
    <tripinfo id="102" depart="511.00" departLane="right3D3_0" departPos="5.10" departSpeed="0.00" departDelay="0.00" arrival="805.00" arrivalLane="C3top2_0" arrivalPos="286.40" arrivalSpeed="14.24" duration="294.00" routeLength="876.90" waitingTime="217.00" waitingCount="2" stopTime="0.00" timeLoss="232.48" rerouteNo="0" devices="tripinfo_102" vType="DEFAULT_VEHTYPE" speedFactor="1.05" vaporized=""/>
    <tripinfo id="34" depart="209.00" departLane="bottom1B0_0" departPos="5.10" departSpeed="0.00" departDelay="0.00" arrival="809.00" arrivalLane="B3top1_0" arrivalPos="286.40" arrivalSpeed="13.69" duration="600.00" routeLength="1495.58" waitingTime="469.00" waitingCount="3" stopTime="0.00" timeLoss="498.07" rerouteNo="0" devices="tripinfo_34" vType="DEFAULT_VEHTYPE" speedFactor="1.06" vaporized=""/>
    <tripinfo id="75" depart="406.00" departLane="right2D2_0" departPos="5.10" departSpeed="0.00" departDelay="0.00" arrival="809.00" arrivalLane="D1right1_0" arrivalPos="286.40" arrivalSpeed="8.91" duration="403.00" routeLength="894.86" waitingTime="297.00" waitingCount="1" stopTime="0.00" timeLoss="310.13" rerouteNo="0" devices="tripinfo_75" vType="DEFAULT_VEHTYPE" speedFactor="0.71" vaporized=""/>
    <tripinfo id="112" depart="530.00" departLane="right1D1_0" departPos="5.10" departSpeed="0.00" departDelay="0.00" arrival="809.00" arrivalLane="C0bottom2_0" arrivalPos="286.40" arrivalSpeed="14.33" duration="279.00" routeLength="1195.18" waitingTime="180.00" waitingCount="1" stopTime="0.00" timeLoss="194.91" rerouteNo="0" devices="tripinfo_112" vType="DEFAULT_VEHTYPE" speedFactor="1.04" vaporized=""/>
    <tripinfo id="123" depart="568.00" departLane="right0D0_0" departPos="5.10" departSpeed="0.00" departDelay="0.00" arrival="810.00" arrivalLane="D0right0_0" arrivalPos="286.40" arrivalSpeed="13.71" duration="242.00" routeLength="1748.75" waitingTime="83.00" waitingCount="4" stopTime="0.00" timeLoss="112.41" rerouteNo="0" devices="tripinfo_123" vType="DEFAULT_VEHTYPE" speedFactor="0.99" vaporized=""/>
    <tripinfo id="57" depart="332.00" departLane="bottom2C0_0" departPos="5.10" departSpeed="0.00" departDelay="0.00" arrival="817.00" arrivalLane="A2left2_0" arrivalPos="286.40" arrivalSpeed="14.68" duration="485.00" routeLength="1795.52" waitingTime="344.00" waitingCount="3" stopTime="0.00" timeLoss="368.16" rerouteNo="0" devices="tripinfo_57" vType="DEFAULT_VEHTYPE" speedFactor="1.11" vaporized=""/>
    <tripinfo id="79" depart="425.00" departLane="top2C3_0" departPos="5.10" departSpeed="0.00" departDelay="0.00" arrival="819.00" arrivalLane="A2left2_0" arrivalPos="286.40" arrivalSpeed="15.36" duration="394.00" routeLength="1479.94" waitingTime="278.00" waitingCount="2" stopTime="0.00" timeLoss="297.50" rerouteNo="0" devices="tripinfo_79" vType="DEFAULT_VEHTYPE" speedFactor="1.11" vaporized=""/>
    <tripinfo id="127" depart="592.00" departLane="bottom0A0_0" departPos="5.10" departSpeed="0.00" departDelay="0.00" arrival="820.00" arrivalLane="A1left1_0" arrivalPos="286.40" arrivalSpeed="13.16" duration="228.00" routeLength="897.72" waitingTime="143.00" waitingCount="2" stopTime="0.00" timeLoss="161.79" rerouteNo="0" devices="tripinfo_127" vType="DEFAULT_VEHTYPE" speedFactor="0.99" vaporized=""/>
    <tripinfo id="97" depart="496.00" departLane="bottom2C0_0" departPos="5.10" departSpeed="0.00" departDelay="0.00" arrival="831.00" arrivalLane="C3top2_0" arrivalPos="286.40" arrivalSpeed="10.39" duration="335.00" routeLength="1495.58" waitingTime="179.00" waitingCount="3" stopTime="0.00" timeLoss="206.19" rerouteNo="0" devices="tripinfo_97" vType="DEFAULT_VEHTYPE" speedFactor="0.84" vaporized=""/>
    <tripinfo id="143" depart="650.00" departLane="right3D3_0" departPos="5.10" departSpeed="0.00" departDelay="0.00" arrival="832.00" arrivalLane="C3top2_1" arrivalPos="286.40" arrivalSpeed="12.69" duration="182.00" routeLength="876.90" waitingTime="92.00" waitingCount="3" stopTime="0.00" timeLoss="114.39" rerouteNo="0" devices="tripinfo_143" vType="DEFAULT_VEHTYPE" speedFactor="0.95" vaporized=""/>
    <tripinfo id="160" depart="751.00" departLane="top1B3_0" departPos="5.10" departSpeed="0.00" departDelay="0.00" arrival="834.00" arrivalLane="A3top0_0" arrivalPos="286.40" arrivalSpeed="12.53" duration="83.00" routeLength="858.56" waitingTime="1.00" waitingCount="1" stopTime="0.00" timeLoss="13.80" rerouteNo="0" devices="tripinfo_160" vType="DEFAULT_VEHTYPE" speedFactor="0.92" vaporized=""/>