<?xml version="1.0" encoding="UTF-8"?>

<!-- generated on 2023-08-30 13:32:13 by Eclipse SUMO libsumo Version 1.18.0
<configuration xmlns:xsi="http://www.w3.org/2001/XMLSchema-instance" xsi:noNamespaceSchemaLocation="http://sumo.dlr.de/xsd/libsumoConfiguration.xsd">

    <input>
        <net-file value="/home/stefan/RESCO/./environments/grid4x4/grid4x4.net.xml"/>
        <route-files value="/home/stefan/RESCO/./environments/grid4x4/grid4x4_59.rou.xml"/>
    </input>

    <output>
        <tripinfo-output value="/home/stefan/results/RAINBOW-tr0-grid4x4-0-drq_norm-wait_norm/tripinfo_59.xml"/>
        <tripinfo-output.write-unfinished value="true"/>
    </output>

    <processing>
        <time-to-teleport value="-1"/>
    </processing>

    <report>
        <no-warnings value="True"/>
        <no-step-log value="True"/>
    </report>

    <random_number>
        <random value="true"/>
    </random_number>

</configuration>
-->

<tripinfos xmlns:xsi="http://www.w3.org/2001/XMLSchema-instance" xsi:noNamespaceSchemaLocation="http://sumo.dlr.de/xsd/tripinfo_file.xsd">
    <tripinfo id="10" depart="55.00" departLane="bottom0A0_0" departPos="5.10" departSpeed="0.00" departDelay="0.00" arrival="116.00" arrivalLane="A0left0_0" arrivalPos="286.40" arrivalSpeed="15.62" duration="61.00" routeLength="597.55" waitingTime="12.00" waitingCount="1" stopTime="0.00" timeLoss="23.10" rerouteNo="0" devices="tripinfo_10" vType="DEFAULT_VEHTYPE" speedFactor="1.16" vaporized=""/>
    <tripinfo id="3" depart="23.00" departLane="left0A0_0" departPos="5.10" departSpeed="0.00" departDelay="0.00" arrival="126.00" arrivalLane="B0bottom1_0" arrivalPos="286.40" arrivalSpeed="13.65" duration="103.00" routeLength="876.90" waitingTime="25.00" waitingCount="2" stopTime="0.00" timeLoss="39.80" rerouteNo="0" devices="tripinfo_3" vType="DEFAULT_VEHTYPE" speedFactor="1.01" vaporized=""/>
    <tripinfo id="24" depart="112.00" departLane="left2A2_0" departPos="5.10" departSpeed="0.00" departDelay="0.00" arrival="198.00" arrivalLane="A3left3_0" arrivalPos="286.40" arrivalSpeed="14.72" duration="86.00" routeLength="894.86" waitingTime="9.00" waitingCount="2" stopTime="0.00" timeLoss="26.49" rerouteNo="0" devices="tripinfo_24" vType="DEFAULT_VEHTYPE" speedFactor="1.12" vaporized=""/>
    <tripinfo id="17" depart="94.00" departLane="top1B3_0" departPos="5.10" departSpeed="0.00" departDelay="0.00" arrival="219.00" arrivalLane="A2left2_0" arrivalPos="286.40" arrivalSpeed="13.51" duration="125.00" routeLength="1179.77" waitingTime="20.00" waitingCount="3" stopTime="0.00" timeLoss="42.12" rerouteNo="0" devices="tripinfo_17" vType="DEFAULT_VEHTYPE" speedFactor="1.04" vaporized=""/>
    <tripinfo id="31" depart="155.00" departLane="right1D1_0" departPos="5.10" departSpeed="0.00" departDelay="0.00" arrival="233.00" arrivalLane="D2right2_0" arrivalPos="286.40" arrivalSpeed="14.73" duration="78.00" routeLength="858.56" waitingTime="2.00" waitingCount="2" stopTime="0.00" timeLoss="18.25" rerouteNo="0" devices="tripinfo_31" vType="DEFAULT_VEHTYPE" speedFactor="1.06" vaporized=""/>
    <tripinfo id="1" depart="2.00" departLane="bottom1B0_0" departPos="5.10" departSpeed="0.00" departDelay="0.00" arrival="241.00" arrivalLane="D0bottom3_0" arrivalPos="286.40" arrivalSpeed="14.18" duration="239.00" routeLength="1161.43" waitingTime="136.00" waitingCount="2" stopTime="0.00" timeLoss="157.68" rerouteNo="0" devices="tripinfo_1" vType="DEFAULT_VEHTYPE" speedFactor="1.04" vaporized=""/>
    <tripinfo id="11" depart="58.00" departLane="bottom0A0_0" departPos="5.10" departSpeed="0.00" departDelay="1.00" arrival="245.00" arrivalLane="D0bottom3_0" arrivalPos="286.40" arrivalSpeed="13.05" duration="187.00" routeLength="1461.60" waitingTime="59.00" waitingCount="2" stopTime="0.00" timeLoss="79.15" rerouteNo="0" devices="tripinfo_11" vType="DEFAULT_VEHTYPE" speedFactor="0.99" vaporized=""/>
    <tripinfo id="7" depart="41.00" departLane="top2C3_0" departPos="5.10" departSpeed="0.00" departDelay="0.00" arrival="259.00" arrivalLane="D3top3_0" arrivalPos="286.40" arrivalSpeed="13.03" duration="218.00" routeLength="894.86" waitingTime="139.00" waitingCount="2" stopTime="0.00" timeLoss="152.97" rerouteNo="0" devices="tripinfo_7" vType="DEFAULT_VEHTYPE" speedFactor="1.00" vaporized=""/>
    <tripinfo id="9" depart="55.00" departLane="bottom2C0_0" departPos="5.10" departSpeed="0.00" departDelay="0.00" arrival="288.00" arrivalLane="A0left0_0" arrivalPos="286.40" arrivalSpeed="14.85" duration="233.00" routeLength="1195.18" waitingTime="135.00" waitingCount="2" stopTime="0.00" timeLoss="153.35" rerouteNo="0" devices="tripinfo_9" vType="DEFAULT_VEHTYPE" speedFactor="1.09" vaporized=""/>
    <tripinfo id="48" depart="242.00" departLane="bottom1B0_0" departPos="5.10" departSpeed="0.00" departDelay="0.00" arrival="318.00" arrivalLane="C0bottom2_0" arrivalPos="286.40" arrivalSpeed="15.25" duration="76.00" routeLength="858.56" waitingTime="2.00" waitingCount="2" stopTime="0.00" timeLoss="20.40" rerouteNo="0" devices="tripinfo_48" vType="DEFAULT_VEHTYPE" speedFactor="1.13" vaporized=""/>
    <tripinfo id="41" depart="190.00" departLane="left1A1_0" departPos="5.10" departSpeed="0.00" departDelay="0.00" arrival="320.00" arrivalLane="A0bottom0_0" arrivalPos="286.40" arrivalSpeed="12.53" duration="130.00" routeLength="879.60" waitingTime="50.00" waitingCount="1" stopTime="0.00" timeLoss="63.38" rerouteNo="0" devices="tripinfo_41" vType="DEFAULT_VEHTYPE" speedFactor="0.96" vaporized=""/>
    <tripinfo id="66" depart="334.00" departLane="left1A1_0" departPos="5.10" departSpeed="0.00" departDelay="0.00" arrival="407.00" arrivalLane="A2left2_0" arrivalPos="286.40" arrivalSpeed="14.72" duration="73.00" routeLength="894.86" waitingTime="2.00" waitingCount="1" stopTime="0.00" timeLoss="13.96" rerouteNo="0" devices="tripinfo_66" vType="DEFAULT_VEHTYPE" speedFactor="1.12" vaporized=""/>
    <tripinfo id="47" depart="219.00" departLane="left2A2_0" departPos="5.10" departSpeed="0.00" departDelay="0.00" arrival="422.00" arrivalLane="A0bottom0_0" arrivalPos="286.40" arrivalSpeed="12.59" duration="203.00" routeLength="1179.77" waitingTime="101.00" waitingCount="2" stopTime="0.00" timeLoss="117.27" rerouteNo="0" devices="tripinfo_47" vType="DEFAULT_VEHTYPE" speedFactor="1.00" vaporized=""/>
    <tripinfo id="55" depart="273.00" departLane="right1D1_0" departPos="5.10" departSpeed="0.00" departDelay="0.00" arrival="423.00" arrivalLane="D0bottom3_0" arrivalPos="286.40" arrivalSpeed="11.41" duration="150.00" routeLength="895.01" waitingTime="57.00" waitingCount="2" stopTime="0.00" timeLoss="77.37" rerouteNo="0" devices="tripinfo_55" vType="DEFAULT_VEHTYPE" speedFactor="0.90" vaporized=""/>
    <tripinfo id="4" depart="32.00" departLane="top3D3_0" departPos="5.10" departSpeed="0.00" departDelay="0.00" arrival="428.00" arrivalLane="A3left3_0" arrivalPos="286.40" arrivalSpeed="14.02" duration="396.00" routeLength="1479.94" waitingTime="269.00" waitingCount="3" stopTime="0.00" timeLoss="296.38" rerouteNo="0" devices="tripinfo_4" vType="DEFAULT_VEHTYPE" speedFactor="1.08" vaporized=""/>
    <tripinfo id="60" depart="312.00" departLane="top3D3_0" departPos="5.10" departSpeed="0.00" departDelay="0.00" arrival="435.00" arrivalLane="D1right1_0" arrivalPos="286.40" arrivalSpeed="13.13" duration="123.00" routeLength="1197.89" waitingTime="21.00" waitingCount="1" stopTime="0.00" timeLoss="35.31" rerouteNo="0" devices="tripinfo_60" vType="DEFAULT_VEHTYPE" speedFactor="0.99" vaporized=""/>
    <tripinfo id="5" depart="34.00" departLane="right1D1_0" departPos="5.10" departSpeed="0.00" departDelay="0.00" arrival="473.00" arrivalLane="A0left0_0" arrivalPos="286.40" arrivalSpeed="12.82" duration="439.00" routeLength="1782.59" waitingTime="279.00" waitingCount="4" stopTime="0.00" timeLoss="305.00" rerouteNo="0" devices="tripinfo_5" vType="DEFAULT_VEHTYPE" speedFactor="0.97" vaporized=""/>
    <tripinfo id="35" depart="171.00" departLane="left0A0_0" departPos="5.10" departSpeed="0.00" departDelay="0.00" arrival="480.00" arrivalLane="A1left1_0" arrivalPos="286.40" arrivalSpeed="12.68" duration="309.00" routeLength="894.86" waitingTime="227.00" waitingCount="2" stopTime="0.00" timeLoss="242.23" rerouteNo="0" devices="tripinfo_35" vType="DEFAULT_VEHTYPE" speedFactor="0.98" vaporized=""/>
    <tripinfo id="32" depart="160.00" departLane="right0D0_0" departPos="5.10" departSpeed="0.00" departDelay="0.00" arrival="486.00" arrivalLane="B3top1_0" arrivalPos="286.40" arrivalSpeed="16.43" duration="326.00" routeLength="2080.28" waitingTime="157.00" waitingCount="5" stopTime="0.00" timeLoss="200.14" rerouteNo="0" devices="tripinfo_32" vType="DEFAULT_VEHTYPE" speedFactor="1.20" vaporized=""/>
    <tripinfo id="15" depart="73.00" departLane="left0A0_0" departPos="5.10" departSpeed="0.00" departDelay="0.00" arrival="492.00" arrivalLane="B3top1_0" arrivalPos="286.40" arrivalSpeed="12.02" duration="419.00" routeLength="1795.52" waitingTime="241.00" waitingCount="5" stopTime="0.00" timeLoss="282.47" rerouteNo="0" devices="tripinfo_15" vType="DEFAULT_VEHTYPE" speedFactor="0.95" vaporized=""/>
    <tripinfo id="62" depart="317.00" departLane="left0A0_0" departPos="5.10" departSpeed="0.00" departDelay="0.00" arrival="509.00" arrivalLane="D0bottom3_0" arrivalPos="286.40" arrivalSpeed="13.03" duration="192.00" routeLength="1477.24" waitingTime="63.00" waitingCount="2" stopTime="0.00" timeLoss="83.82" rerouteNo="0" devices="tripinfo_62" vType="DEFAULT_VEHTYPE" speedFactor="0.99" vaporized=""/>
    <tripinfo id="71" depart="367.00" departLane="bottom1B0_0" departPos="5.10" departSpeed="0.00" departDelay="0.00" arrival="510.00" arrivalLane="D0bottom3_1" arrivalPos="286.40" arrivalSpeed="16.81" duration="143.00" routeLength="1161.43" waitingTime="40.00" waitingCount="2" stopTime="0.00" timeLoss="74.06" rerouteNo="0" devices="tripinfo_71" vType="DEFAULT_VEHTYPE" speedFactor="1.23" vaporized=""/>
    <tripinfo id="82" depart="422.00" departLane="right2D2_0" departPos="5.10" departSpeed="0.00" departDelay="0.00" arrival="510.00" arrivalLane="D3right3_0" arrivalPos="286.40" arrivalSpeed="12.50" duration="88.00" routeLength="858.56" waitingTime="2.00" waitingCount="2" stopTime="0.00" timeLoss="17.59" rerouteNo="0" devices="tripinfo_82" vType="DEFAULT_VEHTYPE" speedFactor="0.90" vaporized=""/>
    <tripinfo id="36" depart="178.00" departLane="top2C3_0" departPos="5.10" departSpeed="0.00" departDelay="0.00" arrival="511.00" arrivalLane="B0bottom1_0" arrivalPos="286.40" arrivalSpeed="14.24" duration="333.00" routeLength="1782.72" waitingTime="189.00" waitingCount="1" stopTime="0.00" timeLoss="206.27" rerouteNo="0" devices="tripinfo_36" vType="DEFAULT_VEHTYPE" speedFactor="1.03" vaporized=""/>
    <tripinfo id="58" depart="284.00" departLane="right3D3_0" departPos="5.10" departSpeed="0.00" departDelay="0.00" arrival="518.00" arrivalLane="D3right3_0" arrivalPos="286.40" arrivalSpeed="13.68" duration="234.00" routeLength="1745.91" waitingTime="81.00" waitingCount="3" stopTime="0.00" timeLoss="111.03" rerouteNo="0" devices="tripinfo_58" vType="DEFAULT_VEHTYPE" speedFactor="1.04" vaporized=""/>
    <tripinfo id="88" depart="454.00" departLane="bottom0A0_0" departPos="5.10" departSpeed="0.00" departDelay="0.00" arrival="520.00" arrivalLane="B0bottom1_0" arrivalPos="286.40" arrivalSpeed="16.57" duration="66.00" routeLength="858.56" waitingTime="1.00" waitingCount="1" stopTime="0.00" timeLoss="15.98" rerouteNo="0" devices="tripinfo_88" vType="DEFAULT_VEHTYPE" speedFactor="1.27" vaporized=""/>
    <tripinfo id="77" depart="395.00" departLane="bottom2C0_0" departPos="5.10" departSpeed="0.00" departDelay="0.00" arrival="537.00" arrivalLane="A0left0_0" arrivalPos="286.40" arrivalSpeed="14.81" duration="142.00" routeLength="1195.18" waitingTime="45.00" waitingCount="2" stopTime="0.00" timeLoss="63.73" rerouteNo="0" devices="tripinfo_77" vType="DEFAULT_VEHTYPE" speedFactor="1.11" vaporized=""/>
    <tripinfo id="63" depart="318.00" departLane="top3D3_0" departPos="5.10" departSpeed="0.00" departDelay="0.00" arrival="538.00" arrivalLane="D3top3_0" arrivalPos="286.40" arrivalSpeed="13.49" duration="220.00" routeLength="1748.75" waitingTime="70.00" waitingCount="3" stopTime="0.00" timeLoss="96.44" rerouteNo="0" devices="tripinfo_63" vType="DEFAULT_VEHTYPE" speedFactor="1.04" vaporized=""/>
    <tripinfo id="29" depart="136.00" departLane="left3A3_0" departPos="5.10" departSpeed="0.00" departDelay="0.00" arrival="539.00" arrivalLane="A3top0_0" arrivalPos="286.40" arrivalSpeed="13.79" duration="403.00" routeLength="597.55" waitingTime="351.00" waitingCount="1" stopTime="0.00" timeLoss="359.46" rerouteNo="0" devices="tripinfo_29" vType="DEFAULT_VEHTYPE" speedFactor="1.01" vaporized=""/>
    <tripinfo id="93" depart="464.00" departLane="left1A1_0" departPos="5.10" departSpeed="0.00" departDelay="0.00" arrival="540.00" arrivalLane="A2left2_1" arrivalPos="286.40" arrivalSpeed="14.51" duration="76.00" routeLength="894.86" waitingTime="2.00" waitingCount="1" stopTime="0.00" timeLoss="14.30" rerouteNo="0" devices="tripinfo_93" vType="DEFAULT_VEHTYPE" speedFactor="1.06" vaporized=""/>
    <tripinfo id="38" depart="180.00" departLane="bottom0A0_0" departPos="5.10" departSpeed="0.00" departDelay="0.00" arrival="541.00" arrivalLane="A2left2_0" arrivalPos="286.40" arrivalSpeed="13.02" duration="361.00" routeLength="1197.89" waitingTime="250.00" waitingCount="2" stopTime="0.00" timeLoss="268.93" rerouteNo="0" devices="tripinfo_38" vType="DEFAULT_VEHTYPE" speedFactor="0.95" vaporized=""/>
    <tripinfo id="90" depart="457.00" departLane="bottom0A0_0" departPos="5.10" departSpeed="0.00" departDelay="0.00" arrival="579.00" arrivalLane="A0left0_0" arrivalPos="286.40" arrivalSpeed="13.45" duration="122.00" routeLength="597.55" waitingTime="69.00" waitingCount="1" stopTime="0.00" timeLoss="79.51" rerouteNo="0" devices="tripinfo_90" vType="DEFAULT_VEHTYPE" speedFactor="1.03" vaporized=""/>
    <tripinfo id="54" depart="269.00" departLane="right0D0_0" departPos="5.10" departSpeed="0.00" departDelay="0.00" arrival="585.00" arrivalLane="D2right2_0" arrivalPos="286.40" arrivalSpeed="12.73" duration="316.00" routeLength="1161.43" waitingTime="214.00" waitingCount="1" stopTime="0.00" timeLoss="230.94" rerouteNo="0" devices="tripinfo_54" vType="DEFAULT_VEHTYPE" speedFactor="1.00" vaporized=""/>
    <tripinfo id="14" depart="68.00" departLane="bottom3D0_0" departPos="5.10" departSpeed="0.00" departDelay="0.00" arrival="588.00" arrivalLane="D2right2_0" arrivalPos="286.40" arrivalSpeed="13.90" duration="520.00" routeLength="1177.07" waitingTime="414.00" waitingCount="2" stopTime="0.00" timeLoss="434.47" rerouteNo="0" devices="tripinfo_14" vType="DEFAULT_VEHTYPE" speedFactor="1.00" vaporized=""/>
    <tripinfo id="106" depart="516.00" departLane="left1A1_0" departPos="5.10" departSpeed="0.00" departDelay="0.00" arrival="592.00" arrivalLane="A0left0_0" arrivalPos="286.40" arrivalSpeed="12.95" duration="76.00" routeLength="858.56" waitingTime="1.00" waitingCount="1" stopTime="0.00" timeLoss="13.84" rerouteNo="0" devices="tripinfo_106" vType="DEFAULT_VEHTYPE" speedFactor="1.02" vaporized=""/>
    <tripinfo id="113" depart="544.00" departLane="top0A3_0" departPos="5.10" departSpeed="0.00" departDelay="3.00" arrival="598.00" arrivalLane="A3left3_0" arrivalPos="286.40" arrivalSpeed="11.22" duration="54.00" routeLength="576.73" waitingTime="0.00" waitingCount="0" stopTime="0.00" timeLoss="6.69" rerouteNo="0" devices="tripinfo_113" vType="DEFAULT_VEHTYPE" speedFactor="0.90" vaporized=""/>
    <tripinfo id="91" depart="460.00" departLane="bottom1B0_0" departPos="5.10" departSpeed="0.00" departDelay="0.00" arrival="601.00" arrivalLane="A3top0_0" arrivalPos="286.40" arrivalSpeed="14.78" duration="141.00" routeLength="1782.59" waitingTime="1.00" waitingCount="1" stopTime="0.00" timeLoss="21.24" rerouteNo="0" devices="tripinfo_91" vType="DEFAULT_VEHTYPE" speedFactor="1.08" vaporized=""/>
    <tripinfo id="109" depart="520.00" departLane="top3D3_0" departPos="5.10" departSpeed="0.00" departDelay="0.00" arrival="603.00" arrivalLane="D2right2_0" arrivalPos="286.40" arrivalSpeed="13.37" duration="83.00" routeLength="897.72" waitingTime="7.00" waitingCount="1" stopTime="0.00" timeLoss="17.14" rerouteNo="0" devices="tripinfo_109" vType="DEFAULT_VEHTYPE" speedFactor="0.99" vaporized=""/>
    <tripinfo id="52" depart="261.00" departLane="left3A3_0" departPos="5.10" departSpeed="0.00" departDelay="0.00" arrival="618.00" arrivalLane="C3top2_1" arrivalPos="286.40" arrivalSpeed="15.52" duration="357.00" routeLength="1197.89" waitingTime="251.00" waitingCount="3" stopTime="0.00" timeLoss="282.69" rerouteNo="0" devices="tripinfo_52" vType="DEFAULT_VEHTYPE" speedFactor="1.17" vaporized=""/>
    <tripinfo id="42" depart="192.00" departLane="left3A3_0" departPos="5.10" departSpeed="0.00" departDelay="0.00" arrival="619.00" arrivalLane="C3top2_0" arrivalPos="286.40" arrivalSpeed="13.43" duration="427.00" routeLength="1197.89" waitingTime="319.00" waitingCount="3" stopTime="0.00" timeLoss="342.35" rerouteNo="0" devices="tripinfo_42" vType="DEFAULT_VEHTYPE" speedFactor="1.03" vaporized=""/>
    <tripinfo id="44" depart="194.00" departLane="top2C3_0" departPos="5.10" departSpeed="0.00" departDelay="0.00" arrival="621.00" arrivalLane="B0bottom1_0" arrivalPos="286.40" arrivalSpeed="13.49" duration="427.00" routeLength="1782.72" waitingTime="278.00" waitingCount="2" stopTime="0.00" timeLoss="300.41" rerouteNo="0" devices="tripinfo_44" vType="DEFAULT_VEHTYPE" speedFactor="1.03" vaporized=""/>
    <tripinfo id="86" depart="444.00" departLane="top2C3_0" departPos="5.10" departSpeed="0.00" departDelay="0.00" arrival="622.00" arrivalLane="C3top2_0" arrivalPos="286.40" arrivalSpeed="14.01" duration="178.00" routeLength="1748.75" waitingTime="26.00" waitingCount="4" stopTime="0.00" timeLoss="57.43" rerouteNo="0" devices="tripinfo_86" vType="DEFAULT_VEHTYPE" speedFactor="1.07" vaporized=""/>
    <tripinfo id="51" depart="253.00" departLane="left3A3_0" departPos="5.10" departSpeed="0.00" departDelay="0.00" arrival="624.00" arrivalLane="A1left1_0" arrivalPos="286.40" arrivalSpeed="11.45" duration="371.00" routeLength="1161.43" waitingTime="252.00" waitingCount="3" stopTime="0.00" timeLoss="273.62" rerouteNo="0" devices="tripinfo_51" vType="DEFAULT_VEHTYPE" speedFactor="0.88" vaporized=""/>
    <tripinfo id="130" depart="576.00" departLane="right3D3_0" departPos="5.10" departSpeed="0.00" departDelay="0.00" arrival="624.00" arrivalLane="D3top3_0" arrivalPos="286.40" arrivalSpeed="15.43" duration="48.00" routeLength="576.73" waitingTime="1.00" waitingCount="1" stopTime="0.00" timeLoss="12.59" rerouteNo="0" devices="tripinfo_130" vType="DEFAULT_VEHTYPE" speedFactor="1.20" vaporized=""/>
    <tripinfo id="19" depart="96.00" departLane="right3D3_0" departPos="5.10" departSpeed="0.00" departDelay="0.00" arrival="633.00" arrivalLane="B3top1_0" arrivalPos="286.40" arrivalSpeed="13.97" duration="537.00" routeLength="1177.07" waitingTime="434.00" waitingCount="3" stopTime="0.00" timeLoss="458.97" rerouteNo="0" devices="tripinfo_19" vType="DEFAULT_VEHTYPE" speedFactor="1.10" vaporized=""/>
    <tripinfo id="74" depart="383.00" departLane="bottom2C0_0" departPos="5.10" departSpeed="0.00" departDelay="0.00" arrival="639.00" arrivalLane="C3top2_0" arrivalPos="286.40" arrivalSpeed="13.50" duration="256.00" routeLength="1495.58" waitingTime="112.00" waitingCount="4" stopTime="0.00" timeLoss="146.89" rerouteNo="0" devices="tripinfo_74" vType="DEFAULT_VEHTYPE" speedFactor="0.99" vaporized=""/>
    <tripinfo id="33" depart="163.00" departLane="right3D3_0" departPos="5.10" departSpeed="0.00" departDelay="0.00" arrival="645.00" arrivalLane="B3top1_0" arrivalPos="286.40" arrivalSpeed="13.33" duration="482.00" routeLength="1177.07" waitingTime="363.00" waitingCount="4" stopTime="0.00" timeLoss="393.88" rerouteNo="0" devices="tripinfo_33" vType="DEFAULT_VEHTYPE" speedFactor="0.97" vaporized=""/>
    <tripinfo id="124" depart="572.00" departLane="left2A2_0" departPos="5.10" departSpeed="0.00" departDelay="0.00" arrival="648.00" arrivalLane="A3top0_0" arrivalPos="286.40" arrivalSpeed="14.63" duration="76.00" routeLength="895.01" waitingTime="3.00" waitingCount="1" stopTime="0.00" timeLoss="14.83" rerouteNo="0" devices="tripinfo_124" vType="DEFAULT_VEHTYPE" speedFactor="1.08" vaporized=""/>
    <tripinfo id="49" depart="242.00" departLane="left2A2_0" departPos="5.10" departSpeed="0.00" departDelay="0.00" arrival="652.00" arrivalLane="A0bottom0_0" arrivalPos="286.40" arrivalSpeed="12.38" duration="410.00" routeLength="1179.77" waitingTime="292.00" waitingCount="3" stopTime="0.00" timeLoss="313.62" rerouteNo="0" devices="tripinfo_49" vType="DEFAULT_VEHTYPE" speedFactor="0.89" vaporized=""/>
    <tripinfo id="97" depart="473.00" departLane="top2C3_0" departPos="5.10" departSpeed="0.00" departDelay="0.00" arrival="653.00" arrivalLane="D3top3_1" arrivalPos="286.40" arrivalSpeed="11.99" duration="180.00" routeLength="894.86" waitingTime="95.00" waitingCount="1" stopTime="0.00" timeLoss="108.46" rerouteNo="0" devices="tripinfo_97" vType="DEFAULT_VEHTYPE" speedFactor="0.92" vaporized=""/>
    <tripinfo id="137" depart="591.00" departLane="right3D3_0" departPos="5.10" departSpeed="0.00" departDelay="0.00" arrival="653.00" arrivalLane="D3top3_0" arrivalPos="286.40" arrivalSpeed="10.82" duration="62.00" routeLength="576.73" waitingTime="1.00" waitingCount="1" stopTime="0.00" timeLoss="12.67" rerouteNo="0" devices="tripinfo_137" vType="DEFAULT_VEHTYPE" speedFactor="0.87" vaporized=""/>
    <tripinfo id="39" depart="182.00" departLane="bottom1B0_0" departPos="5.10" departSpeed="0.00" departDelay="0.00" arrival="656.00" arrivalLane="D3top3_0" arrivalPos="286.40" arrivalSpeed="11.50" duration="474.00" routeLength="2082.76" waitingTime="258.00" waitingCount="6" stopTime="0.00" timeLoss="300.07" rerouteNo="0" devices="tripinfo_39" vType="DEFAULT_VEHTYPE" speedFactor="0.87" vaporized=""/>
    <tripinfo id="132" depart="580.00" departLane="right2D2_0" departPos="5.10" departSpeed="0.00" departDelay="0.00" arrival="660.00" arrivalLane="D3right3_0" arrivalPos="286.40" arrivalSpeed="14.64" duration="80.00" routeLength="858.56" waitingTime="2.00" waitingCount="2" stopTime="0.00" timeLoss="21.17" rerouteNo="0" devices="tripinfo_132" vType="DEFAULT_VEHTYPE" speedFactor="1.07" vaporized=""/>
    <tripinfo id="115" depart="548.00" departLane="top1B3_0" departPos="5.10" departSpeed="0.00" departDelay="0.00" arrival="680.00" arrivalLane="C3top2_0" arrivalPos="286.40" arrivalSpeed="13.11" duration="132.00" routeLength="894.86" waitingTime="50.00" waitingCount="1" stopTime="0.00" timeLoss="66.03" rerouteNo="0" devices="tripinfo_115" vType="DEFAULT_VEHTYPE" speedFactor="1.00" vaporized=""/>
    <tripinfo id="140" depart="609.00" departLane="left2A2_0" departPos="5.10" departSpeed="0.00" departDelay="0.00" arrival="689.00" arrivalLane="A3top0_0" arrivalPos="286.40" arrivalSpeed="12.30" duration="80.00" routeLength="895.01" waitingTime="0.00" waitingCount="0" stopTime="0.00" timeLoss="8.09" rerouteNo="0" devices="tripinfo_140" vType="DEFAULT_VEHTYPE" speedFactor="0.91" vaporized=""/>
    <tripinfo id="98" depart="477.00" departLane="left0A0_0" departPos="5.10" departSpeed="0.00" departDelay="0.00" arrival="690.00" arrivalLane="C0bottom2_0" arrivalPos="286.40" arrivalSpeed="13.72" duration="213.00" routeLength="1177.07" waitingTime="114.00" waitingCount="1" stopTime="0.00" timeLoss="132.62" rerouteNo="0" devices="tripinfo_98" vType="DEFAULT_VEHTYPE" speedFactor="1.06" vaporized=""/>
    <tripinfo id="145" depart="640.00" departLane="right3D3_0" departPos="5.10" departSpeed="0.00" departDelay="0.00" arrival="690.00" arrivalLane="D3top3_0" arrivalPos="286.40" arrivalSpeed="14.17" duration="50.00" routeLength="576.73" waitingTime="1.00" waitingCount="1" stopTime="0.00" timeLoss="10.84" rerouteNo="0" devices="tripinfo_145" vType="DEFAULT_VEHTYPE" speedFactor="1.08" vaporized=""/>
    <tripinfo id="129" depart="576.00" departLane="right2D2_0" departPos="5.10" departSpeed="0.00" departDelay="0.00" arrival="698.00" arrivalLane="C3top2_0" arrivalPos="286.40" arrivalSpeed="14.55" duration="122.00" routeLength="1179.77" waitingTime="30.00" waitingCount="1" stopTime="0.00" timeLoss="44.96" rerouteNo="0" devices="tripinfo_129" vType="DEFAULT_VEHTYPE" speedFactor="1.12" vaporized=""/>
    <tripinfo id="138" depart="592.00" departLane="right2D2_0" departPos="5.10" departSpeed="0.00" departDelay="0.00" arrival="702.00" arrivalLane="C3top2_0" arrivalPos="286.40" arrivalSpeed="13.94" duration="110.00" routeLength="1179.77" waitingTime="17.00" waitingCount="1" stopTime="0.00" timeLoss="30.11" rerouteNo="0" devices="tripinfo_138" vType="DEFAULT_VEHTYPE" speedFactor="1.08" vaporized=""/>
    <tripinfo id="105" depart="510.00" departLane="left0A0_0" departPos="5.10" departSpeed="0.00" departDelay="2.00" arrival="722.00" arrivalLane="D0bottom3_0" arrivalPos="286.40" arrivalSpeed="12.66" duration="212.00" routeLength="1477.24" waitingTime="84.00" waitingCount="2" stopTime="0.00" timeLoss="101.82" rerouteNo="0" devices="tripinfo_105" vType="DEFAULT_VEHTYPE" speedFactor="0.97" vaporized=""/>
    <tripinfo id="67" depart="338.00" departLane="left0A0_0" departPos="5.10" departSpeed="0.00" departDelay="0.00" arrival="725.00" arrivalLane="C3top2_0" arrivalPos="286.40" arrivalSpeed="11.87" duration="387.00" routeLength="2095.69" waitingTime="197.00" waitingCount="3" stopTime="0.00" timeLoss="224.26" rerouteNo="0" devices="tripinfo_67" vType="DEFAULT_VEHTYPE" speedFactor="0.93" vaporized=""/>
    <tripinfo id="133" depart="581.00" departLane="left0A0_0" departPos="5.10" departSpeed="0.00" departDelay="0.00" arrival="726.00" arrivalLane="D0bottom3_0" arrivalPos="286.40" arrivalSpeed="14.55" duration="145.00" routeLength="1477.24" waitingTime="20.00" waitingCount="2" stopTime="0.00" timeLoss="48.88" rerouteNo="0" devices="tripinfo_133" vType="DEFAULT_VEHTYPE" speedFactor="1.12" vaporized=""/>
    <tripinfo id="0" depart="1.00" departLane="right2D2_0" departPos="5.10" departSpeed="0.00" departDelay="0.00" arrival="728.00" arrivalLane="C0bottom2_0" arrivalPos="286.40" arrivalSpeed="14.94" duration="727.00" routeLength="1495.35" waitingTime="595.00" waitingCount="4" stopTime="0.00" timeLoss="627.42" rerouteNo="0" devices="tripinfo_0" vType="DEFAULT_VEHTYPE" speedFactor="1.10" vaporized=""/>
    <tripinfo id="73" depart="374.00" departLane="bottom2C0_0" departPos="5.10" departSpeed="0.00" departDelay="0.00" arrival="729.00" arrivalLane="B3top1_0" arrivalPos="286.40" arrivalSpeed="12.86" duration="355.00" routeLength="1782.59" waitingTime="194.00" waitingCount="4" stopTime="0.00" timeLoss="227.03" rerouteNo="0" devices="tripinfo_73" vType="DEFAULT_VEHTYPE" speedFactor="1.01" vaporized=""/>
    <tripinfo id="6" depart="34.00" departLane="top0A3_0" departPos="5.10" departSpeed="0.00" departDelay="0.00" arrival="731.00" arrivalLane="C0bottom2_0" arrivalPos="286.40" arrivalSpeed="14.01" duration="697.00" routeLength="2080.05" waitingTime="510.00" waitingCount="5" stopTime="0.00" timeLoss="550.11" rerouteNo="0" devices="tripinfo_6" vType="DEFAULT_VEHTYPE" speedFactor="1.03" vaporized=""/>
    <tripinfo id="26" depart="129.00" departLane="top0A3_0" departPos="5.10" departSpeed="0.00" departDelay="0.00" arrival="731.00" arrivalLane="C0bottom2_1" arrivalPos="286.40" arrivalSpeed="15.36" duration="602.00" routeLength="2080.05" waitingTime="432.00" waitingCount="4" stopTime="0.00" timeLoss="470.23" rerouteNo="0" devices="tripinfo_26" vType="DEFAULT_VEHTYPE" speedFactor="1.15" vaporized=""/>
    <tripinfo id="160" depart="680.00" departLane="top0A3_0" departPos="5.10" departSpeed="0.00" departDelay="0.00" arrival="731.00" arrivalLane="A3left3_0" arrivalPos="286.40" arrivalSpeed="13.26" duration="51.00" routeLength="576.73" waitingTime="0.00" waitingCount="0" stopTime="0.00" timeLoss="7.44" rerouteNo="0" devices="tripinfo_160" vType="DEFAULT_VEHTYPE" speedFactor="0.99" vaporized=""/>
    <tripinfo id="103" depart="503.00" departLane="left2A2_0" departPos="5.10" departSpeed="0.00" departDelay="0.00" arrival="738.00" arrivalLane="B0bottom1_0" arrivalPos="286.40" arrivalSpeed="13.67" duration="235.00" routeLength="1479.94" waitingTime="112.00" waitingCount="2" stopTime="0.00" timeLoss="132.48" rerouteNo="0" devices="tripinfo_103" vType="DEFAULT_VEHTYPE" speedFactor="1.05" vaporized=""/>
    <tripinfo id="150" depart="645.00" departLane="top3D3_0" departPos="5.10" departSpeed="0.00" departDelay="0.00" arrival="738.00" arrivalLane="D2right2_0" arrivalPos="286.40" arrivalSpeed="11.44" duration="93.00" routeLength="897.72" waitingTime="9.00" waitingCount="1" stopTime="0.00" timeLoss="20.41" rerouteNo="0" devices="tripinfo_150" vType="DEFAULT_VEHTYPE" speedFactor="0.91" vaporized=""/>
    <tripinfo id="50" depart="252.00" departLane="bottom2C0_0" departPos="5.10" departSpeed="0.00" departDelay="0.00" arrival="749.00" arrivalLane="D3right3_0" arrivalPos="286.40" arrivalSpeed="13.42" duration="497.00" routeLength="1780.11" waitingTime="341.00" waitingCount="4" stopTime="0.00" timeLoss="372.70" rerouteNo="0" devices="tripinfo_50" vType="DEFAULT_VEHTYPE" speedFactor="1.04" vaporized=""/>
    <tripinfo id="87" depart="447.00" departLane="left0A0_0" departPos="5.10" departSpeed="0.00" departDelay="0.00" arrival="749.00" arrivalLane="C3top2_0" arrivalPos="286.40" arrivalSpeed="13.46" duration="302.00" routeLength="2095.69" waitingTime="112.00" waitingCount="3" stopTime="0.00" timeLoss="155.84" rerouteNo="0" devices="tripinfo_87" vType="DEFAULT_VEHTYPE" speedFactor="1.04" vaporized=""/>