<?xml version="1.0" encoding="UTF-8"?>

<!-- generated on 2023-08-30 13:41:45 by Eclipse SUMO libsumo Version 1.18.0
<configuration xmlns:xsi="http://www.w3.org/2001/XMLSchema-instance" xsi:noNamespaceSchemaLocation="http://sumo.dlr.de/xsd/libsumoConfiguration.xsd">

    <input>
        <net-file value="/home/stefan/RESCO/./environments/grid4x4/grid4x4.net.xml"/>
        <route-files value="/home/stefan/RESCO/./environments/grid4x4/grid4x4_73.rou.xml"/>
    </input>

    <output>
        <tripinfo-output value="/home/stefan/results/RAINBOW-tr0-grid4x4-0-drq_norm-wait_norm/tripinfo_73.xml"/>
        <tripinfo-output.write-unfinished value="true"/>
    </output>

    <processing>
        <time-to-teleport value="-1"/>
    </processing>

    <report>
        <no-warnings value="True"/>
        <no-step-log value="True"/>
    </report>

    <random_number>
        <random value="true"/>
    </random_number>

</configuration>
-->

<tripinfos xmlns:xsi="http://www.w3.org/2001/XMLSchema-instance" xsi:noNamespaceSchemaLocation="http://sumo.dlr.de/xsd/tripinfo_file.xsd">
    <tripinfo id="1" depart="9.00" departLane="bottom2C0_0" departPos="5.10" departSpeed="0.00" departDelay="0.00" arrival="103.00" arrivalLane="D0right0_0" arrivalPos="286.40" arrivalSpeed="11.59" duration="94.00" routeLength="879.60" waitingTime="5.00" waitingCount="1" stopTime="0.00" timeLoss="19.20" rerouteNo="0" devices="tripinfo_1" vType="DEFAULT_VEHTYPE" speedFactor="0.86" vaporized=""/>
    <tripinfo id="9" depart="44.00" departLane="top1B3_0" departPos="5.10" departSpeed="0.00" departDelay="0.00" arrival="123.00" arrivalLane="A3top0_0" arrivalPos="286.40" arrivalSpeed="14.18" duration="79.00" routeLength="858.56" waitingTime="2.00" waitingCount="2" stopTime="0.00" timeLoss="19.83" rerouteNo="0" devices="tripinfo_9" vType="DEFAULT_VEHTYPE" speedFactor="1.06" vaporized=""/>
    <tripinfo id="14" depart="64.00" departLane="top0A3_0" departPos="5.10" departSpeed="0.00" departDelay="0.00" arrival="164.00" arrivalLane="A1left1_0" arrivalPos="286.40" arrivalSpeed="12.19" duration="100.00" routeLength="1177.07" waitingTime="0.00" waitingCount="0" stopTime="0.00" timeLoss="9.36" rerouteNo="0" devices="tripinfo_14" vType="DEFAULT_VEHTYPE" speedFactor="0.94" vaporized=""/>
    <tripinfo id="28" depart="120.00" departLane="right2D2_0" departPos="5.10" departSpeed="0.00" departDelay="0.00" arrival="189.00" arrivalLane="D1right1_0" arrivalPos="286.40" arrivalSpeed="13.76" duration="69.00" routeLength="894.86" waitingTime="0.00" waitingCount="0" stopTime="0.00" timeLoss="6.69" rerouteNo="0" devices="tripinfo_28" vType="DEFAULT_VEHTYPE" speedFactor="1.06" vaporized=""/>
    <tripinfo id="16" depart="71.00" departLane="left2A2_0" departPos="5.10" departSpeed="0.00" departDelay="0.00" arrival="191.00" arrivalLane="A0left0_0" arrivalPos="286.40" arrivalSpeed="11.34" duration="120.00" routeLength="1161.43" waitingTime="5.00" waitingCount="3" stopTime="0.00" timeLoss="24.64" rerouteNo="0" devices="tripinfo_16" vType="DEFAULT_VEHTYPE" speedFactor="0.90" vaporized=""/>
    <tripinfo id="30" depart="131.00" departLane="top0A3_0" departPos="5.10" departSpeed="0.00" departDelay="0.00" arrival="198.00" arrivalLane="A2left2_0" arrivalPos="286.40" arrivalSpeed="14.94" duration="67.00" routeLength="876.90" waitingTime="0.00" waitingCount="0" stopTime="0.00" timeLoss="7.67" rerouteNo="0" devices="tripinfo_30" vType="DEFAULT_VEHTYPE" speedFactor="1.08" vaporized=""/>
    <tripinfo id="35" depart="151.00" departLane="top0A3_0" departPos="5.10" departSpeed="0.00" departDelay="0.00" arrival="220.00" arrivalLane="B3top1_0" arrivalPos="286.40" arrivalSpeed="14.83" duration="69.00" routeLength="894.86" waitingTime="0.00" waitingCount="0" stopTime="0.00" timeLoss="6.97" rerouteNo="0" devices="tripinfo_35" vType="DEFAULT_VEHTYPE" speedFactor="1.07" vaporized=""/>
    <tripinfo id="33" depart="142.00" departLane="top3D3_0" departPos="5.10" departSpeed="0.00" departDelay="0.00" arrival="226.00" arrivalLane="C3top2_0" arrivalPos="286.40" arrivalSpeed="13.56" duration="84.00" routeLength="858.56" waitingTime="2.00" waitingCount="2" stopTime="0.00" timeLoss="21.19" rerouteNo="0" devices="tripinfo_33" vType="DEFAULT_VEHTYPE" speedFactor="1.01" vaporized=""/>
    <tripinfo id="2" depart="9.00" departLane="right3D3_0" departPos="5.10" departSpeed="0.00" departDelay="0.00" arrival="251.00" arrivalLane="D3right3_0" arrivalPos="286.40" arrivalSpeed="11.64" duration="242.00" routeLength="1745.91" waitingTime="70.00" waitingCount="4" stopTime="0.00" timeLoss="98.62" rerouteNo="0" devices="tripinfo_2" vType="DEFAULT_VEHTYPE" speedFactor="0.89" vaporized=""/>
    <tripinfo id="56" depart="264.00" departLane="top0A3_0" departPos="5.10" departSpeed="0.00" departDelay="0.00" arrival="329.00" arrivalLane="B3top1_0" arrivalPos="286.40" arrivalSpeed="15.15" duration="65.00" routeLength="894.86" waitingTime="0.00" waitingCount="0" stopTime="0.00" timeLoss="7.14" rerouteNo="0" devices="tripinfo_56" vType="DEFAULT_VEHTYPE" speedFactor="1.15" vaporized=""/>
    <tripinfo id="63" depart="305.00" departLane="right2D2_0" departPos="5.10" departSpeed="0.00" departDelay="0.00" arrival="378.00" arrivalLane="D3right3_0" arrivalPos="286.40" arrivalSpeed="16.77" duration="73.00" routeLength="858.56" waitingTime="2.00" waitingCount="2" stopTime="0.00" timeLoss="21.28" rerouteNo="0" devices="tripinfo_63" vType="DEFAULT_VEHTYPE" speedFactor="1.24" vaporized=""/>
    <tripinfo id="74" depart="326.00" departLane="top0A3_0" departPos="5.10" departSpeed="0.00" departDelay="0.00" arrival="394.00" arrivalLane="B3top1_0" arrivalPos="286.40" arrivalSpeed="15.04" duration="68.00" routeLength="894.86" waitingTime="0.00" waitingCount="0" stopTime="0.00" timeLoss="7.31" rerouteNo="0" devices="tripinfo_74" vType="DEFAULT_VEHTYPE" speedFactor="1.08" vaporized=""/>
    <tripinfo id="83" depart="356.00" departLane="top3D3_0" departPos="5.10" departSpeed="0.00" departDelay="0.00" arrival="421.00" arrivalLane="D3right3_0" arrivalPos="286.40" arrivalSpeed="11.98" duration="65.00" routeLength="597.55" waitingTime="9.00" waitingCount="1" stopTime="0.00" timeLoss="18.14" rerouteNo="0" devices="tripinfo_83" vType="DEFAULT_VEHTYPE" speedFactor="0.93" vaporized=""/>
    <tripinfo id="41" depart="184.00" departLane="left3A3_0" departPos="5.10" departSpeed="0.00" departDelay="0.00" arrival="480.00" arrivalLane="C3top2_0" arrivalPos="286.40" arrivalSpeed="12.23" duration="296.00" routeLength="1197.89" waitingTime="181.00" waitingCount="3" stopTime="0.00" timeLoss="206.31" rerouteNo="0" devices="tripinfo_41" vType="DEFAULT_VEHTYPE" speedFactor="0.97" vaporized=""/>
    <tripinfo id="15" depart="65.00" departLane="right3D3_0" departPos="5.10" departSpeed="0.00" departDelay="0.00" arrival="492.00" arrivalLane="A3top0_0" arrivalPos="286.40" arrivalSpeed="14.85" duration="427.00" routeLength="1477.24" waitingTime="309.00" waitingCount="3" stopTime="0.00" timeLoss="333.26" rerouteNo="0" devices="tripinfo_15" vType="DEFAULT_VEHTYPE" speedFactor="1.14" vaporized=""/>
    <tripinfo id="67" depart="315.00" departLane="left2A2_0" departPos="5.10" departSpeed="0.00" departDelay="2.00" arrival="524.00" arrivalLane="A0bottom0_0" arrivalPos="286.40" arrivalSpeed="10.94" duration="209.00" routeLength="1179.77" waitingTime="88.00" waitingCount="2" stopTime="0.00" timeLoss="104.27" rerouteNo="0" devices="tripinfo_67" vType="DEFAULT_VEHTYPE" speedFactor="0.82" vaporized=""/>
    <tripinfo id="109" depart="444.00" departLane="bottom1B0_0" departPos="5.10" departSpeed="0.00" departDelay="0.00" arrival="524.00" arrivalLane="C0bottom2_0" arrivalPos="286.40" arrivalSpeed="14.54" duration="80.00" routeLength="858.56" waitingTime="2.00" waitingCount="2" stopTime="0.00" timeLoss="21.25" rerouteNo="0" devices="tripinfo_109" vType="DEFAULT_VEHTYPE" speedFactor="1.09" vaporized=""/>
    <tripinfo id="7" depart="41.00" departLane="top2C3_0" departPos="5.10" departSpeed="0.00" departDelay="0.00" arrival="548.00" arrivalLane="C0bottom2_0" arrivalPos="286.40" arrivalSpeed="14.48" duration="507.00" routeLength="1495.58" waitingTime="389.00" waitingCount="2" stopTime="0.00" timeLoss="409.53" rerouteNo="0" devices="tripinfo_7" vType="DEFAULT_VEHTYPE" speedFactor="1.11" vaporized=""/>
    <tripinfo id="8" depart="42.00" departLane="right3D3_0" departPos="5.10" departSpeed="0.00" departDelay="0.00" arrival="552.00" arrivalLane="C0bottom2_0" arrivalPos="286.40" arrivalSpeed="14.89" duration="510.00" routeLength="1795.52" waitingTime="363.00" waitingCount="3" stopTime="0.00" timeLoss="391.65" rerouteNo="0" devices="tripinfo_8" vType="DEFAULT_VEHTYPE" speedFactor="1.10" vaporized=""/>
    <tripinfo id="122" depart="489.00" departLane="bottom0A0_0" departPos="5.10" departSpeed="0.00" departDelay="0.00" arrival="558.00" arrivalLane="B0bottom1_0" arrivalPos="286.40" arrivalSpeed="15.69" duration="69.00" routeLength="858.56" waitingTime="1.00" waitingCount="1" stopTime="0.00" timeLoss="14.25" rerouteNo="0" devices="tripinfo_122" vType="DEFAULT_VEHTYPE" speedFactor="1.16" vaporized=""/>
    <tripinfo id="120" depart="482.00" departLane="left3A3_0" departPos="5.10" departSpeed="0.00" departDelay="0.00" arrival="563.00" arrivalLane="A2left2_0" arrivalPos="286.40" arrivalSpeed="12.14" duration="81.00" routeLength="858.56" waitingTime="0.00" waitingCount="0" stopTime="0.00" timeLoss="9.96" rerouteNo="0" devices="tripinfo_120" vType="DEFAULT_VEHTYPE" speedFactor="0.89" vaporized=""/>
    <tripinfo id="126" depart="501.00" departLane="bottom1B0_0" departPos="5.10" departSpeed="0.00" departDelay="0.00" arrival="580.00" arrivalLane="C0bottom2_0" arrivalPos="286.40" arrivalSpeed="13.59" duration="79.00" routeLength="858.56" waitingTime="2.00" waitingCount="2" stopTime="0.00" timeLoss="18.97" rerouteNo="0" devices="tripinfo_126" vType="DEFAULT_VEHTYPE" speedFactor="1.06" vaporized=""/>
    <tripinfo id="57" depart="270.00" departLane="left3A3_0" departPos="5.10" departSpeed="0.00" departDelay="0.00" arrival="604.00" arrivalLane="B3top1_0" arrivalPos="286.40" arrivalSpeed="10.94" duration="334.00" routeLength="897.72" waitingTime="239.00" waitingCount="2" stopTime="0.00" timeLoss="254.38" rerouteNo="0" devices="tripinfo_57" vType="DEFAULT_VEHTYPE" speedFactor="0.82" vaporized=""/>
    <tripinfo id="38" depart="180.00" departLane="right0D0_0" departPos="5.10" departSpeed="0.00" departDelay="0.00" arrival="617.00" arrivalLane="D0bottom3_0" arrivalPos="286.40" arrivalSpeed="14.30" duration="437.00" routeLength="597.55" waitingTime="388.00" waitingCount="1" stopTime="0.00" timeLoss="397.85" rerouteNo="0" devices="tripinfo_38" vType="DEFAULT_VEHTYPE" speedFactor="1.12" vaporized=""/>
    <tripinfo id="90" depart="375.00" departLane="right0D0_0" departPos="5.10" departSpeed="0.00" departDelay="0.00" arrival="620.00" arrivalLane="D0bottom3_0" arrivalPos="286.40" arrivalSpeed="14.47" duration="245.00" routeLength="597.55" waitingTime="193.00" waitingCount="1" stopTime="0.00" timeLoss="204.22" rerouteNo="0" devices="tripinfo_90" vType="DEFAULT_VEHTYPE" speedFactor="1.08" vaporized=""/>
    <tripinfo id="6" depart="35.00" departLane="bottom0A0_0" departPos="5.10" departSpeed="0.00" departDelay="0.00" arrival="628.00" arrivalLane="D0bottom3_0" arrivalPos="286.40" arrivalSpeed="13.33" duration="593.00" routeLength="1461.60" waitingTime="462.00" waitingCount="3" stopTime="0.00" timeLoss="485.32" rerouteNo="0" devices="tripinfo_6" vType="DEFAULT_VEHTYPE" speedFactor="0.99" vaporized=""/>
    <tripinfo id="58" depart="275.00" departLane="left0A0_0" departPos="5.10" departSpeed="0.00" departDelay="0.00" arrival="628.00" arrivalLane="C0bottom2_0" arrivalPos="286.40" arrivalSpeed="13.89" duration="353.00" routeLength="1177.07" waitingTime="252.00" waitingCount="2" stopTime="0.00" timeLoss="269.49" rerouteNo="0" devices="tripinfo_58" vType="DEFAULT_VEHTYPE" speedFactor="1.02" vaporized=""/>
    <tripinfo id="11" depart="54.00" departLane="left1A1_0" departPos="5.10" departSpeed="0.00" departDelay="0.00" arrival="630.00" arrivalLane="A3left3_0" arrivalPos="286.40" arrivalSpeed="12.83" duration="576.00" routeLength="1197.66" waitingTime="468.00" waitingCount="2" stopTime="0.00" timeLoss="486.44" rerouteNo="0" devices="tripinfo_11" vType="DEFAULT_VEHTYPE" speedFactor="0.98" vaporized=""/>
    <tripinfo id="94" depart="392.00" departLane="left2A2_0" departPos="5.10" departSpeed="0.00" departDelay="0.00" arrival="631.00" arrivalLane="A3left3_1" arrivalPos="286.40" arrivalSpeed="13.00" duration="239.00" routeLength="894.86" waitingTime="155.00" waitingCount="2" stopTime="0.00" timeLoss="173.52" rerouteNo="0" devices="tripinfo_94" vType="DEFAULT_VEHTYPE" speedFactor="1.00" vaporized=""/>
    <tripinfo id="32" depart="139.00" departLane="bottom1B0_0" departPos="5.10" departSpeed="0.00" departDelay="0.00" arrival="635.00" arrivalLane="D0bottom3_0" arrivalPos="286.40" arrivalSpeed="13.02" duration="496.00" routeLength="1161.43" waitingTime="381.00" waitingCount="3" stopTime="0.00" timeLoss="411.04" rerouteNo="0" devices="tripinfo_32" vType="DEFAULT_VEHTYPE" speedFactor="1.00" vaporized=""/>
    <tripinfo id="34" depart="147.00" departLane="left0A0_0" departPos="5.10" departSpeed="0.00" departDelay="0.00" arrival="640.00" arrivalLane="D0right0_0" arrivalPos="286.40" arrivalSpeed="12.47" duration="493.00" routeLength="1495.58" waitingTime="354.00" waitingCount="3" stopTime="0.00" timeLoss="380.10" rerouteNo="0" devices="tripinfo_34" vType="DEFAULT_VEHTYPE" speedFactor="0.96" vaporized=""/>
    <tripinfo id="10" depart="45.00" departLane="bottom2C0_0" departPos="5.10" departSpeed="0.00" departDelay="0.00" arrival="649.00" arrivalLane="A1left1_0" arrivalPos="286.40" arrivalSpeed="13.42" duration="604.00" routeLength="1495.35" waitingTime="478.00" waitingCount="2" stopTime="0.00" timeLoss="497.18" rerouteNo="0" devices="tripinfo_10" vType="DEFAULT_VEHTYPE" speedFactor="1.02" vaporized=""/>
    <tripinfo id="17" depart="74.00" departLane="bottom3D0_0" departPos="5.10" departSpeed="0.00" departDelay="0.00" arrival="654.00" arrivalLane="A1left1_1" arrivalPos="286.40" arrivalSpeed="13.41" duration="580.00" routeLength="1795.52" waitingTime="418.00" waitingCount="3" stopTime="0.00" timeLoss="447.50" rerouteNo="0" devices="tripinfo_17" vType="DEFAULT_VEHTYPE" speedFactor="0.99" vaporized=""/>
    <tripinfo id="22" depart="96.00" departLane="bottom2C0_0" departPos="5.10" departSpeed="0.00" departDelay="0.00" arrival="654.00" arrivalLane="A1left1_0" arrivalPos="286.40" arrivalSpeed="11.57" duration="558.00" routeLength="1495.35" waitingTime="414.00" waitingCount="2" stopTime="0.00" timeLoss="434.21" rerouteNo="0" devices="tripinfo_22" vType="DEFAULT_VEHTYPE" speedFactor="0.88" vaporized=""/>
    <tripinfo id="47" depart="208.00" departLane="bottom2C0_0" departPos="5.10" departSpeed="0.00" departDelay="0.00" arrival="668.00" arrivalLane="D1right1_0" arrivalPos="286.40" arrivalSpeed="13.85" duration="460.00" routeLength="1179.77" waitingTime="365.00" waitingCount="1" stopTime="0.00" timeLoss="379.03" rerouteNo="0" devices="tripinfo_47" vType="DEFAULT_VEHTYPE" speedFactor="1.07" vaporized=""/>
    <tripinfo id="78" depart="340.00" departLane="left3A3_0" departPos="5.10" departSpeed="0.00" departDelay="0.00" arrival="690.00" arrivalLane="C3top2_0" arrivalPos="286.40" arrivalSpeed="12.16" duration="350.00" routeLength="1197.89" waitingTime="234.00" waitingCount="3" stopTime="0.00" timeLoss="259.05" rerouteNo="0" devices="tripinfo_78" vType="DEFAULT_VEHTYPE" speedFactor="0.95" vaporized=""/>
    <tripinfo id="163" depart="621.00" departLane="bottom1B0_0" departPos="5.10" departSpeed="0.00" departDelay="0.00" arrival="694.00" arrivalLane="C0bottom2_0" arrivalPos="286.40" arrivalSpeed="16.71" duration="73.00" routeLength="858.56" waitingTime="2.00" waitingCount="2" stopTime="0.00" timeLoss="21.05" rerouteNo="0" devices="tripinfo_163" vType="DEFAULT_VEHTYPE" speedFactor="1.21" vaporized=""/>
    <tripinfo id="123" depart="492.00" departLane="top0A3_0" departPos="5.10" departSpeed="0.00" departDelay="0.00" arrival="723.00" arrivalLane="A1left1_0" arrivalPos="286.40" arrivalSpeed="13.34" duration="231.00" routeLength="1177.07" waitingTime="134.00" waitingCount="1" stopTime="0.00" timeLoss="148.19" rerouteNo="0" devices="tripinfo_123" vType="DEFAULT_VEHTYPE" speedFactor="1.04" vaporized=""/>
    <tripinfo id="128" depart="506.00" departLane="top0A3_0" departPos="5.10" departSpeed="0.00" departDelay="0.00" arrival="724.00" arrivalLane="A1left1_0" arrivalPos="286.40" arrivalSpeed="14.36" duration="218.00" routeLength="1177.07" waitingTime="121.00" waitingCount="1" stopTime="0.00" timeLoss="139.04" rerouteNo="0" devices="tripinfo_128" vType="DEFAULT_VEHTYPE" speedFactor="1.08" vaporized=""/>
    <tripinfo id="132" depart="525.00" departLane="top3D3_0" departPos="5.10" departSpeed="0.00" departDelay="0.00" arrival="746.00" arrivalLane="D1right1_0" arrivalPos="286.40" arrivalSpeed="16.52" duration="221.00" routeLength="1197.89" waitingTime="130.00" waitingCount="2" stopTime="0.00" timeLoss="149.73" rerouteNo="0" devices="tripinfo_132" vType="DEFAULT_VEHTYPE" speedFactor="1.23" vaporized=""/>
    <tripinfo id="180" depart="674.00" departLane="left2A2_0" departPos="5.10" departSpeed="0.00" departDelay="0.00" arrival="751.00" arrivalLane="A1left1_0" arrivalPos="286.40" arrivalSpeed="15.50" duration="77.00" routeLength="858.56" waitingTime="2.00" waitingCount="2" stopTime="0.00" timeLoss="21.45" rerouteNo="0" devices="tripinfo_180" vType="DEFAULT_VEHTYPE" speedFactor="1.14" vaporized=""/>
    <tripinfo id="111" depart="452.00" departLane="left3A3_0" departPos="5.10" departSpeed="0.00" departDelay="0.00" arrival="758.00" arrivalLane="D2right2_0" arrivalPos="286.40" arrivalSpeed="14.33" duration="306.00" routeLength="1782.72" waitingTime="165.00" waitingCount="2" stopTime="0.00" timeLoss="184.64" rerouteNo="0" devices="tripinfo_111" vType="DEFAULT_VEHTYPE" speedFactor="1.07" vaporized=""/>
    <tripinfo id="113" depart="461.00" departLane="bottom2C0_0" departPos="5.10" departSpeed="0.00" departDelay="0.00" arrival="759.00" arrivalLane="D2right2_0" arrivalPos="286.40" arrivalSpeed="15.12" duration="298.00" routeLength="1479.94" waitingTime="183.00" waitingCount="2" stopTime="0.00" timeLoss="201.47" rerouteNo="0" devices="tripinfo_113" vType="DEFAULT_VEHTYPE" speedFactor="1.11" vaporized=""/>
    <tripinfo id="167" depart="634.00" departLane="left3A3_0" departPos="5.10" departSpeed="0.00" departDelay="0.00" arrival="762.00" arrivalLane="A0left0_0" arrivalPos="286.40" arrivalSpeed="13.17" duration="128.00" routeLength="1461.60" waitingTime="2.00" waitingCount="2" stopTime="0.00" timeLoss="21.66" rerouteNo="0" devices="tripinfo_167" vType="DEFAULT_VEHTYPE" speedFactor="1.01" vaporized=""/>
    <tripinfo id="186" depart="690.00" departLane="bottom2C0_0" departPos="5.10" departSpeed="0.00" departDelay="0.00" arrival="762.00" arrivalLane="D0right0_0" arrivalPos="286.40" arrivalSpeed="12.77" duration="72.00" routeLength="879.60" waitingTime="0.00" waitingCount="0" stopTime="0.00" timeLoss="6.91" rerouteNo="0" devices="tripinfo_186" vType="DEFAULT_VEHTYPE" speedFactor="0.99" vaporized=""/>
    <tripinfo id="157" depart="601.00" departLane="right3D3_0" departPos="5.10" departSpeed="0.00" departDelay="0.00" arrival="767.00" arrivalLane="D2right2_0" arrivalPos="286.40" arrivalSpeed="14.06" duration="166.00" routeLength="894.86" waitingTime="86.00" waitingCount="2" stopTime="0.00" timeLoss="106.46" rerouteNo="0" devices="tripinfo_157" vType="DEFAULT_VEHTYPE" speedFactor="1.10" vaporized=""/>
    <tripinfo id="153" depart="599.00" departLane="left3A3_0" departPos="5.10" departSpeed="0.00" departDelay="0.00" arrival="790.00" arrivalLane="A3left3_1" arrivalPos="286.40" arrivalSpeed="14.63" duration="191.00" routeLength="1748.75" waitingTime="38.00" waitingCount="5" stopTime="0.00" timeLoss="73.29" rerouteNo="0" devices="tripinfo_153" vType="DEFAULT_VEHTYPE" speedFactor="1.09" vaporized=""/>
    <tripinfo id="59" depart="278.00" departLane="left0A0_0" departPos="5.10" departSpeed="0.00" departDelay="3.00" arrival="792.00" arrivalLane="A3left3_0" arrivalPos="286.40" arrivalSpeed="12.42" duration="514.00" routeLength="1497.83" waitingTime="363.00" waitingCount="3" stopTime="0.00" timeLoss="392.59" rerouteNo="0" devices="tripinfo_59" vType="DEFAULT_VEHTYPE" speedFactor="0.90" vaporized=""/>
    <tripinfo id="151" depart="594.00" departLane="top1B3_0" departPos="5.10" departSpeed="0.00" departDelay="0.00" arrival="807.00" arrivalLane="B3top1_0" arrivalPos="286.40" arrivalSpeed="12.39" duration="213.00" routeLength="1748.75" waitingTime="43.00" waitingCount="4" stopTime="0.00" timeLoss="70.86" rerouteNo="0" devices="tripinfo_151" vType="DEFAULT_VEHTYPE" speedFactor="0.90" vaporized=""/>
    <tripinfo id="185" depart="690.00" departLane="left3A3_0" departPos="5.10" departSpeed="0.00" departDelay="0.00" arrival="822.00" arrivalLane="A0left0_0" arrivalPos="286.40" arrivalSpeed="12.64" duration="132.00" routeLength="1461.60" waitingTime="2.00" waitingCount="2" stopTime="0.00" timeLoss="19.38" rerouteNo="0" devices="tripinfo_185" vType="DEFAULT_VEHTYPE" speedFactor="0.95" vaporized=""/>
    <tripinfo id="195" depart="734.00" departLane="right1D1_0" departPos="5.10" departSpeed="0.00" departDelay="0.00" arrival="824.00" arrivalLane="D2right2_0" arrivalPos="286.40" arrivalSpeed="11.82" duration="90.00" routeLength="858.56" waitingTime="2.00" waitingCount="2" stopTime="0.00" timeLoss="19.61" rerouteNo="0" devices="tripinfo_195" vType="DEFAULT_VEHTYPE" speedFactor="0.89" vaporized=""/>
    <tripinfo id="194" depart="731.00" departLane="left3A3_0" departPos="5.10" departSpeed="0.00" departDelay="0.00" arrival="829.00" arrivalLane="A1left1_0" arrivalPos="286.40" arrivalSpeed="14.26" duration="98.00" routeLength="1161.43" waitingTime="1.00" waitingCount="1" stopTime="0.00" timeLoss="14.27" rerouteNo="0" devices="tripinfo_194" vType="DEFAULT_VEHTYPE" speedFactor="1.03" vaporized=""/>
    <tripinfo id="98" depart="400.00" departLane="bottom3D0_0" departPos="5.10" departSpeed="0.00" departDelay="0.00" arrival="838.00" arrivalLane="C3top2_0" arrivalPos="286.40" arrivalSpeed="14.67" duration="438.00" routeLength="1782.59" waitingTime="291.00" waitingCount="3" stopTime="0.00" timeLoss="317.28" rerouteNo="0" devices="tripinfo_98" vType="DEFAULT_VEHTYPE" speedFactor="1.08" vaporized=""/>
    <tripinfo id="127" depart="502.00" departLane="bottom3D0_0" departPos="5.10" departSpeed="0.00" departDelay="0.00" arrival="843.00" arrivalLane="C3top2_0" arrivalPos="286.40" arrivalSpeed="12.26" duration="341.00" routeLength="1782.59" waitingTime="170.00" waitingCount="4" stopTime="0.00" timeLoss="203.01" rerouteNo="0" devices="tripinfo_127" vType="DEFAULT_VEHTYPE" speedFactor="0.94" vaporized=""/>
    <tripinfo id="159" depart="606.00" departLane="right0D0_0" departPos="5.10" departSpeed="0.00" departDelay="0.00" arrival="845.00" arrivalLane="C3top2_0" arrivalPos="286.40" arrivalSpeed="12.61" duration="239.00" routeLength="1780.11" waitingTime="75.00" waitingCount="3" stopTime="0.00" timeLoss="102.25" rerouteNo="0" devices="tripinfo_159" vType="DEFAULT_VEHTYPE" speedFactor="0.95" vaporized=""/>
    <tripinfo id="43" depart="192.00" departLane="left1A1_0" departPos="5.10" departSpeed="0.00" departDelay="0.00" arrival="847.00" arrivalLane="A3top0_0" arrivalPos="286.40" arrivalSpeed="14.54" duration="655.00" routeLength="1195.18" waitingTime="559.00" waitingCount="2" stopTime="0.00" timeLoss="577.67" rerouteNo="0" devices="tripinfo_43" vType="DEFAULT_VEHTYPE" speedFactor="1.13" vaporized=""/>
    <tripinfo id="181" depart="682.00" departLane="left1A1_0" departPos="5.10" departSpeed="0.00" departDelay="0.00" arrival="850.00" arrivalLane="A3left3_0" arrivalPos="286.40" arrivalSpeed="12.32" duration="168.00" routeLength="1197.66" waitingTime="59.00" waitingCount="2" stopTime="0.00" timeLoss="78.49" rerouteNo="0" devices="tripinfo_181" vType="DEFAULT_VEHTYPE" speedFactor="0.98" vaporized=""/>
    <tripinfo id="76" depart="331.00" departLane="left1A1_0" departPos="5.10" departSpeed="0.00" departDelay="0.00" arrival="851.00" arrivalLane="A3top0_0" arrivalPos="286.40" arrivalSpeed="12.94" duration="520.00" routeLength="1195.18" waitingTime="415.00" waitingCount="2" stopTime="0.00" timeLoss="431.60" rerouteNo="0" devices="tripinfo_76" vType="DEFAULT_VEHTYPE" speedFactor="0.98" vaporized=""/>
    <tripinfo id="154" depart="602.00" departLane="left3A3_0" departPos="5.10" departSpeed="0.00" departDelay="3.00" arrival="851.00" arrivalLane="A3left3_1" arrivalPos="286.40" arrivalSpeed="13.35" duration="249.00" routeLength="1748.75" waitingTime="78.00" waitingCount="5" stopTime="0.00" timeLoss="122.70" rerouteNo="0" devices="tripinfo_154" vType="DEFAULT_VEHTYPE" speedFactor="1.01" vaporized=""/>
    <tripinfo id="182" depart="686.00" departLane="left0A0_0" departPos="5.10" departSpeed="0.00" departDelay="0.00" arrival="859.00" arrivalLane="A3left3_0" arrivalPos="286.40" arrivalSpeed="11.10" duration="173.00" routeLength="1497.83" waitingTime="25.00" waitingCount="1" stopTime="0.00" timeLoss="41.20" rerouteNo="0" devices="tripinfo_182" vType="DEFAULT_VEHTYPE" speedFactor="0.83" vaporized=""/>
    <tripinfo id="124" depart="495.00" departLane="left2A2_0" departPos="5.10" departSpeed="0.00" departDelay="0.00" arrival="860.00" arrivalLane="A3top0_0" arrivalPos="286.40" arrivalSpeed="10.02" duration="365.00" routeLength="895.01" waitingTime="260.00" waitingCount="2" stopTime="0.00" timeLoss="279.47" rerouteNo="0" devices="tripinfo_124" vType="DEFAULT_VEHTYPE" speedFactor="0.76" vaporized=""/>
    <tripinfo id="48" depart="213.00" departLane="right2D2_0" departPos="5.10" departSpeed="0.00" departDelay="0.00" arrival="862.00" arrivalLane="B3top1_0" arrivalPos="286.40" arrivalSpeed="11.29" duration="649.00" routeLength="1479.94" waitingTime="505.00" waitingCount="3" stopTime="0.00" timeLoss="529.73" rerouteNo="0" devices="tripinfo_48" vType="DEFAULT_VEHTYPE" speedFactor="0.90" vaporized=""/>
    <tripinfo id="213" depart="811.00" departLane="top1B3_0" departPos="5.10" departSpeed="0.00" departDelay="0.00" arrival="885.00" arrivalLane="A3top0_0" arrivalPos="286.40" arrivalSpeed="13.18" duration="74.00" routeLength="858.56" waitingTime="0.00" waitingCount="0" stopTime="0.00" timeLoss="9.77" rerouteNo="0" devices="tripinfo_213" vType="DEFAULT_VEHTYPE" speedFactor="0.99" vaporized=""/>
    <tripinfo id="205" depart="787.00" departLane="top3D3_0" departPos="5.10" departSpeed="0.00" departDelay="0.00" arrival="890.00" arrivalLane="B3top1_0" arrivalPos="286.40" arrivalSpeed="14.09" duration="103.00" routeLength="1161.43" waitingTime="2.00" waitingCount="2" stopTime="0.00" timeLoss="20.08" rerouteNo="0" devices="tripinfo_205" vType="DEFAULT_VEHTYPE" speedFactor="1.02" vaporized=""/>
    <tripinfo id="100" depart="404.00" departLane="bottom2C0_0" departPos="5.10" departSpeed="0.00" departDelay="0.00" arrival="899.00" arrivalLane="A1left1_0" arrivalPos="286.40" arrivalSpeed="13.66" duration="495.00" routeLength="1495.35" waitingTime="355.00" waitingCount="4" stopTime="0.00" timeLoss="387.72" rerouteNo="0" devices="tripinfo_100" vType="DEFAULT_VEHTYPE" speedFactor="1.02" vaporized=""/>
    <tripinfo id="215" depart="825.00" departLane="left0A0_0" departPos="5.10" departSpeed="0.00" departDelay="0.00" arrival="901.00" arrivalLane="B0bottom1_0" arrivalPos="286.40" arrivalSpeed="11.88" duration="76.00" routeLength="876.90" waitingTime="0.00" waitingCount="0" stopTime="0.00" timeLoss="8.13" rerouteNo="0" devices="tripinfo_215" vType="DEFAULT_VEHTYPE" speedFactor="0.94" vaporized=""/>
    <tripinfo id="12" depart="58.00" departLane="top1B3_0" departPos="5.10" departSpeed="0.00" departDelay="0.00" arrival="905.00" arrivalLane="A1left1_0" arrivalPos="286.40" arrivalSpeed="11.23" duration="847.00" routeLength="1479.94" waitingTime="693.00" waitingCount="4" stopTime="0.00" timeLoss="723.66" rerouteNo="0" devices="tripinfo_12" vType="DEFAULT_VEHTYPE" speedFactor="0.87" vaporized=""/>
    <tripinfo id="147" depart="580.00" departLane="right3D3_0" departPos="5.10" departSpeed="0.00" departDelay="2.00" arrival="920.00" arrivalLane="B3top1_0" arrivalPos="286.40" arrivalSpeed="12.54" duration="340.00" routeLength="1177.07" waitingTime="225.00" waitingCount="2" stopTime="0.00" timeLoss="245.06" rerouteNo="0" devices="tripinfo_147" vType="DEFAULT_VEHTYPE" speedFactor="0.90" vaporized=""/>
    <tripinfo id="206" depart="790.00" departLane="bottom2C0_0" departPos="5.10" departSpeed="0.00" departDelay="0.00" arrival="931.00" arrivalLane="B0bottom1_0" arrivalPos="286.40" arrivalSpeed="13.15" duration="141.00" routeLength="894.86" waitingTime="59.00" waitingCount="1" stopTime="0.00" timeLoss="71.50" rerouteNo="0" devices="tripinfo_206" vType="DEFAULT_VEHTYPE" speedFactor="0.95" vaporized=""/>
    <tripinfo id="96" depart="393.00" departLane="right2D2_0" departPos="5.10" departSpeed="0.00" departDelay="0.00" arrival="949.00" arrivalLane="D2right2_0" arrivalPos="286.40" arrivalSpeed="13.60" duration="556.00" routeLength="1748.75" waitingTime="384.00" waitingCount="5" stopTime="0.00" timeLoss="426.88" rerouteNo="0" devices="tripinfo_96" vType="DEFAULT_VEHTYPE" speedFactor="0.99" vaporized=""/>
    <tripinfo id="37" depart="171.00" departLane="left1A1_0" departPos="5.10" departSpeed="0.00" departDelay="0.00" arrival="957.00" arrivalLane="B0bottom1_0" arrivalPos="286.40" arrivalSpeed="14.70" duration="786.00" routeLength="1179.77" waitingTime="686.00" waitingCount="3" stopTime="0.00" timeLoss="711.20" rerouteNo="0" devices="tripinfo_37" vType="DEFAULT_VEHTYPE" speedFactor="1.15" vaporized=""/>