<?xml version="1.0" encoding="UTF-8"?>

<!-- generated on 2023-08-30 22:18:25 by Eclipse SUMO libsumo Version 1.18.0
<configuration xmlns:xsi="http://www.w3.org/2001/XMLSchema-instance" xsi:noNamespaceSchemaLocation="http://sumo.dlr.de/xsd/libsumoConfiguration.xsd">

    <input>
        <net-file value="/home/stefan/RESCO/./environments/ingolstadt21/ingolstadt21.net.xml"/>
        <route-files value="/home/stefan/RESCO/./environments/ingolstadt21/ingolstadt21.rou.xml"/>
    </input>

    <output>
        <tripinfo-output value="/home/stefan/results/RAINBOW-tr0-ingolstadt21-21-drq_norm-wait_norm/tripinfo_94.xml"/>
        <tripinfo-output.write-unfinished value="true"/>
    </output>

    <time>
        <begin value="57600"/>
        <end value="61200"/>
    </time>

    <processing>
        <time-to-teleport value="-1"/>
    </processing>

    <report>
        <no-warnings value="True"/>
        <no-step-log value="True"/>
    </report>

    <random_number>
        <random value="true"/>
    </random_number>

</configuration>
-->

<tripinfos xmlns:xsi="http://www.w3.org/2001/XMLSchema-instance" xsi:noNamespaceSchemaLocation="http://sumo.dlr.de/xsd/tripinfo_file.xsd">
    <tripinfo id="h15454c2:3" depart="57612.00" departLane="24608844_1" departPos="5.10" departSpeed="0.00" departDelay="0.50" arrival="57649.00" arrivalLane="32978638#0_1" arrivalPos="49.29" arrivalSpeed="14.55" duration="37.00" routeLength="354.79" waitingTime="0.00" waitingCount="0" stopTime="0.00" timeLoss="6.37" rerouteNo="1" devices="tripinfo_h15454c2:3 routing_h15454c2:3" vType="default_016" speedFactor="1.13" vaporized=""/>
    <tripinfo id="carIn53971:1" depart="57640.00" departLane="272042143_1" departPos="5.10" departSpeed="0.00" departDelay="0.80" arrival="57701.00" arrivalLane="24634414#1_1" arrivalPos="162.19" arrivalSpeed="7.23" duration="61.00" routeLength="493.04" waitingTime="0.00" waitingCount="0" stopTime="0.00" timeLoss="8.74" rerouteNo="1" devices="tripinfo_carIn53971:1 routing_carIn53971:1" vType="default_016" speedFactor="0.88" vaporized=""/>
    <tripinfo id="h7800c1:5" depart="57696.00" departLane="-447569998#1_1" departPos="5.10" departSpeed="0.00" departDelay="0.00" arrival="57726.00" arrivalLane="-447569998#1_1" arrivalPos="180.76" arrivalSpeed="6.51" duration="30.00" routeLength="175.66" waitingTime="0.00" waitingCount="0" stopTime="0.00" timeLoss="4.16" rerouteNo="1" devices="tripinfo_h7800c1:5 routing_h7800c1:5" vType="default_016" speedFactor="0.85" vaporized=""/>
    <tripinfo id="h3568c1:3" depart="57656.00" departLane="266565295#5_1" departPos="5.10" departSpeed="0.00" departDelay="0.80" arrival="57733.00" arrivalLane="-24634415_1" arrivalPos="62.03" arrivalSpeed="12.63" duration="77.00" routeLength="807.40" waitingTime="0.00" waitingCount="0" stopTime="0.00" timeLoss="12.60" rerouteNo="1" devices="tripinfo_h3568c1:3 routing_h3568c1:3" vType="default_016" speedFactor="1.00" vaporized=""/>
    <tripinfo id="h3326c1:2" depart="57656.00" departLane="22716069#0_1" departPos="5.10" departSpeed="0.00" departDelay="0.00" arrival="57759.00" arrivalLane="24634517#13_1" arrivalPos="111.62" arrivalSpeed="15.09" duration="103.00" routeLength="1312.81" waitingTime="0.00" waitingCount="0" stopTime="0.00" timeLoss="15.93" rerouteNo="1" devices="tripinfo_h3326c1:2 routing_h3326c1:2" vType="default_016" speedFactor="1.12" vaporized=""/>
    <tripinfo id="h3154c1:1" depart="57658.00" departLane="24634507_1" departPos="5.10" departSpeed="0.00" departDelay="0.00" arrival="57762.00" arrivalLane="-266565295#5_1" arrivalPos="172.76" arrivalSpeed="12.96" duration="104.00" routeLength="1206.22" waitingTime="0.00" waitingCount="0" stopTime="0.00" timeLoss="11.14" rerouteNo="1" devices="tripinfo_h3154c1:1 routing_h3154c1:1" vType="default_016" speedFactor="0.96" vaporized=""/>
    <tripinfo id="carIn27009:1" depart="57673.00" departLane="-447569998#1_1" departPos="5.10" departSpeed="0.00" departDelay="0.50" arrival="57770.00" arrivalLane="-26677539_1" arrivalPos="152.75" arrivalSpeed="7.00" duration="97.00" routeLength="699.63" waitingTime="0.00" waitingCount="0" stopTime="0.00" timeLoss="11.79" rerouteNo="1" devices="tripinfo_carIn27009:1 routing_carIn27009:1" vType="default_015" speedFactor="0.98" vaporized=""/>
    <tripinfo id="carIn129809:1" depart="57729.00" departLane="-447569998#1_1" departPos="5.10" departSpeed="0.00" departDelay="1.00" arrival="57803.00" arrivalLane="-315358244_1" arrivalPos="33.95" arrivalSpeed="12.52" duration="74.00" routeLength="706.49" waitingTime="0.00" waitingCount="0" stopTime="0.00" timeLoss="8.27" rerouteNo="1" devices="tripinfo_carIn129809:1 routing_carIn129809:1" vType="default_015" speedFactor="0.92" vaporized=""/>
    <tripinfo id="carIn107282:1" depart="57749.00" departLane="-447569998#1_1" departPos="5.10" departSpeed="0.00" departDelay="0.00" arrival="57806.00" arrivalLane="315358242#0_1" arrivalPos="165.37" arrivalSpeed="10.87" duration="57.00" routeLength="448.50" waitingTime="0.00" waitingCount="0" stopTime="0.00" timeLoss="6.46" rerouteNo="1" devices="tripinfo_carIn107282:1 routing_carIn107282:1" vType="default_016" speedFactor="0.83" vaporized=""/>
    <tripinfo id="carIn8642:1" depart="57774.00" departLane="-447569998#1_1" departPos="5.10" departSpeed="0.00" departDelay="0.90" arrival="57843.00" arrivalLane="-315358244_1" arrivalPos="33.95" arrivalSpeed="13.17" duration="69.00" routeLength="706.49" waitingTime="0.00" waitingCount="0" stopTime="0.00" timeLoss="7.11" rerouteNo="1" devices="tripinfo_carIn8642:1 routing_carIn8642:1" vType="default_016" speedFactor="0.99" vaporized=""/>
    <tripinfo id="randUni31145:1" depart="57814.00" departLane="10425609#0_1" departPos="5.10" departSpeed="0.00" departDelay="0.30" arrival="57848.00" arrivalLane="201956810_1" arrivalPos="71.65" arrivalSpeed="12.44" duration="34.00" routeLength="255.78" waitingTime="5.00" waitingCount="1" stopTime="0.00" timeLoss="13.30" rerouteNo="1" devices="tripinfo_randUni31145:1 routing_randUni31145:1" vType="random_016" speedFactor="0.96" vaporized=""/>
    <tripinfo id="randUni2407:1" depart="57820.00" departLane="10425609#0_1" departPos="5.10" departSpeed="0.00" departDelay="0.80" arrival="57857.00" arrivalLane="201956810_1" arrivalPos="71.65" arrivalSpeed="15.90" duration="37.00" routeLength="255.78" waitingTime="7.00" waitingCount="2" stopTime="0.00" timeLoss="20.70" rerouteNo="1" devices="tripinfo_randUni2407:1 routing_randUni2407:1" vType="random_016" speedFactor="1.23" vaporized=""/>
    <tripinfo id="carIn70533:1" depart="57812.00" departLane="-447569998#1_1" departPos="5.10" departSpeed="0.00" departDelay="0.10" arrival="57881.00" arrivalLane="-315358244_1" arrivalPos="33.95" arrivalSpeed="12.73" duration="69.00" routeLength="706.49" waitingTime="0.00" waitingCount="0" stopTime="0.00" timeLoss="6.81" rerouteNo="1" devices="tripinfo_carIn70533:1 routing_carIn70533:1" vType="default_016" speedFactor="0.98" vaporized=""/>
    <tripinfo id="randUni23028:1" depart="57884.00" departLane="124812856#0_1" departPos="5.10" departSpeed="0.00" departDelay="0.10" arrival="57902.00" arrivalLane="201956810_1" arrivalPos="71.65" arrivalSpeed="12.00" duration="18.00" routeLength="134.91" waitingTime="0.00" waitingCount="0" stopTime="0.00" timeLoss="6.68" rerouteNo="1" devices="tripinfo_randUni23028:1 routing_randUni23028:1" vType="random_016" speedFactor="0.92" vaporized=""/>
    <tripinfo id="carIn63848:1" depart="57841.00" departLane="-447569998#1_1" departPos="5.10" departSpeed="0.00" departDelay="0.80" arrival="57905.00" arrivalLane="-315358244_2" arrivalPos="33.95" arrivalSpeed="14.16" duration="64.00" routeLength="706.49" waitingTime="0.00" waitingCount="0" stopTime="0.00" timeLoss="8.31" rerouteNo="1" devices="tripinfo_carIn63848:1 routing_carIn63848:1" vType="default_016" speedFactor="1.08" vaporized=""/>
    <tripinfo id="carIn13353:1" depart="57838.00" departLane="-447569998#1_1" departPos="5.10" departSpeed="0.00" departDelay="0.30" arrival="57908.00" arrivalLane="-315358244_1" arrivalPos="33.95" arrivalSpeed="13.05" duration="70.00" routeLength="706.49" waitingTime="0.00" waitingCount="0" stopTime="0.00" timeLoss="6.77" rerouteNo="1" devices="tripinfo_carIn13353:1 routing_carIn13353:1" vType="default_016" speedFactor="0.96" vaporized=""/>
    <tripinfo id="randUni16001:1" depart="57912.00" departLane="10425609#0_1" departPos="5.10" departSpeed="0.00" departDelay="0.30" arrival="57935.00" arrivalLane="201956810_1" arrivalPos="71.65" arrivalSpeed="16.46" duration="23.00" routeLength="255.78" waitingTime="0.00" waitingCount="0" stopTime="0.00" timeLoss="7.60" rerouteNo="1" devices="tripinfo_randUni16001:1 routing_randUni16001:1" vType="random_016" speedFactor="1.27" vaporized=""/>
    <tripinfo id="h2859c1:1" depart="57822.00" departLane="201238726#0.117_1" departPos="5.10" departSpeed="0.00" departDelay="0.10" arrival="57947.00" arrivalLane="386687235_1" arrivalPos="80.84" arrivalSpeed="13.55" duration="125.00" routeLength="1631.78" waitingTime="0.00" waitingCount="0" stopTime="0.00" timeLoss="9.41" rerouteNo="1" devices="tripinfo_h2859c1:1 routing_h2859c1:1" vType="default_016" speedFactor="1.03" vaporized=""/>
    <tripinfo id="h3426c1:1" depart="57864.00" departLane="-160314345#2_1" departPos="5.10" departSpeed="0.00" departDelay="0.00" arrival="57960.00" arrivalLane="386687235_1" arrivalPos="80.84" arrivalSpeed="10.72" duration="96.00" routeLength="726.87" waitingTime="0.00" waitingCount="0" stopTime="0.00" timeLoss="12.66" rerouteNo="1" devices="tripinfo_h3426c1:1 routing_h3426c1:1" vType="default_016" speedFactor="0.82" vaporized=""/>
    <tripinfo id="h7032c2:3" depart="57863.00" departLane="315358244_1" departPos="5.10" departSpeed="0.00" departDelay="0.40" arrival="57968.00" arrivalLane="26677541_1" arrivalPos="152.31" arrivalSpeed="12.57" duration="105.00" routeLength="901.39" waitingTime="0.00" waitingCount="0" stopTime="0.00" timeLoss="14.04" rerouteNo="1" devices="tripinfo_h7032c2:3 routing_h7032c2:3" vType="default_016" speedFactor="0.91" vaporized=""/>
    <tripinfo id="h6846c2:1" depart="57741.00" departLane="26677213#0_1" departPos="5.10" departSpeed="0.00" departDelay="0.00" arrival="57971.00" arrivalLane="386687235_1" arrivalPos="80.84" arrivalSpeed="11.78" duration="230.00" routeLength="1412.24" waitingTime="56.00" waitingCount="2" stopTime="0.00" timeLoss="82.34" rerouteNo="1" devices="tripinfo_h6846c2:1 routing_h6846c2:1" vType="default_016" speedFactor="0.93" vaporized=""/>
    <tripinfo id="h4574c1:3" depart="57907.00" departLane="-137454133#5_1" departPos="5.10" departSpeed="0.00" departDelay="0.00" arrival="57988.00" arrivalLane="201238729#3_1" arrivalPos="431.02" arrivalSpeed="13.47" duration="81.00" routeLength="979.11" waitingTime="0.00" waitingCount="0" stopTime="0.00" timeLoss="15.49" rerouteNo="1" devices="tripinfo_h4574c1:3 routing_h4574c1:3" vType="default_016" speedFactor="1.04" vaporized=""/>
    <tripinfo id="carIn113750:1" depart="57961.00" departLane="24599188#0.94_1" departPos="5.10" departSpeed="0.00" departDelay="0.30" arrival="57988.00" arrivalLane="24599188#0.94_1" arrivalPos="186.59" arrivalSpeed="7.48" duration="27.00" routeLength="181.49" waitingTime="0.00" waitingCount="0" stopTime="0.00" timeLoss="2.96" rerouteNo="1" devices="tripinfo_carIn113750:1 routing_carIn113750:1" vType="default_016" speedFactor="0.91" vaporized=""/>
    <tripinfo id="carIn29676:1" depart="57789.00" departLane="-160314345#5_1" departPos="5.10" departSpeed="0.00" departDelay="0.00" arrival="58045.00" arrivalLane="-24634505_1" arrivalPos="48.18" arrivalSpeed="13.60" duration="256.00" routeLength="1162.34" waitingTime="145.00" waitingCount="1" stopTime="0.00" timeLoss="165.64" rerouteNo="1" devices="tripinfo_carIn29676:1 routing_carIn29676:1" vType="default_016" speedFactor="1.00" vaporized=""/>
    <tripinfo id="h7649c2:1" depart="57988.00" departLane="-447569998#1_1" departPos="5.10" departSpeed="0.00" departDelay="0.20" arrival="58062.00" arrivalLane="-315358244_1" arrivalPos="33.95" arrivalSpeed="11.50" duration="74.00" routeLength="706.49" waitingTime="0.00" waitingCount="0" stopTime="0.00" timeLoss="8.36" rerouteNo="1" devices="tripinfo_h7649c2:1 routing_h7649c2:1" vType="default_016" speedFactor="0.92" vaporized=""/>
    <tripinfo id="carIn99077:1" depart="58021.00" departLane="-447569998#1_1" departPos="5.10" departSpeed="0.00" departDelay="0.50" arrival="58092.00" arrivalLane="-315358244_2" arrivalPos="33.95" arrivalSpeed="12.87" duration="71.00" routeLength="706.49" waitingTime="0.00" waitingCount="0" stopTime="0.00" timeLoss="7.89" rerouteNo="1" devices="tripinfo_carIn99077:1 routing_carIn99077:1" vType="default_016" speedFactor="0.95" vaporized=""/>
    <tripinfo id="carIn130975:1" depart="58017.00" departLane="-447569998#1_1" departPos="5.10" departSpeed="0.00" departDelay="0.10" arrival="58094.00" arrivalLane="-315358244_1" arrivalPos="33.95" arrivalSpeed="11.16" duration="77.00" routeLength="706.49" waitingTime="0.00" waitingCount="0" stopTime="0.00" timeLoss="7.29" rerouteNo="1" devices="tripinfo_carIn130975:1 routing_carIn130975:1" vType="default_015" speedFactor="0.86" vaporized=""/>
    <tripinfo id="h5801c1:1" depart="57970.00" departLane="-26677216#0_1" departPos="5.10" departSpeed="0.00" departDelay="0.00" arrival="58102.00" arrivalLane="386687235_1" arrivalPos="80.84" arrivalSpeed="15.20" duration="132.00" routeLength="1335.31" waitingTime="0.00" waitingCount="0" stopTime="0.00" timeLoss="17.02" rerouteNo="1" devices="tripinfo_h5801c1:1 routing_h5801c1:1" vType="default_016" speedFactor="1.15" vaporized=""/>
    <tripinfo id="h1626c2:3" depart="57984.00" departLane="201201935#0_1" departPos="5.10" departSpeed="0.00" departDelay="0.50" arrival="58106.00" arrivalLane="-32395288#1_0" arrivalPos="21.79" arrivalSpeed="2.76" duration="122.00" routeLength="952.80" waitingTime="0.00" waitingCount="0" stopTime="0.00" timeLoss="17.79" rerouteNo="1" devices="tripinfo_h1626c2:3 routing_h1626c2:3" vType="default_016" speedFactor="1.09" vaporized=""/>
    <tripinfo id="randUni22786:1" depart="58065.00" departLane="10425609#0_1" departPos="5.10" departSpeed="0.00" departDelay="0.00" arrival="58109.00" arrivalLane="201956810_1" arrivalPos="71.65" arrivalSpeed="12.18" duration="44.00" routeLength="255.78" waitingTime="11.00" waitingCount="2" stopTime="0.00" timeLoss="21.95" rerouteNo="1" devices="tripinfo_randUni22786:1 routing_randUni22786:1" vType="random_016" speedFactor="0.92" vaporized=""/>
    <tripinfo id="randUni1534:1" depart="57949.00" departLane="-447569998#1_1" departPos="5.10" departSpeed="0.00" departDelay="0.30" arrival="58124.00" arrivalLane="40888356#0_1" arrivalPos="103.49" arrivalSpeed="13.54" duration="175.00" routeLength="2017.53" waitingTime="0.00" waitingCount="0" stopTime="0.00" timeLoss="15.19" rerouteNo="1" devices="tripinfo_randUni1534:1 routing_randUni1534:1" vType="random_016" speedFactor="1.02" vaporized=""/>
    <tripinfo id="h3874c1:1" depart="58083.00" departLane="24608844_1" departPos="5.10" departSpeed="0.00" departDelay="0.90" arrival="58126.00" arrivalLane="32978638#0_1" arrivalPos="49.29" arrivalSpeed="12.46" duration="43.00" routeLength="354.79" waitingTime="0.00" waitingCount="0" stopTime="0.00" timeLoss="6.62" rerouteNo="1" devices="tripinfo_h3874c1:1 routing_h3874c1:1" vType="default_016" speedFactor="0.95" vaporized=""/>
    <tripinfo id="h4794c2:1" depart="58074.00" departLane="-224892361#8_1" departPos="5.10" departSpeed="0.00" departDelay="0.00" arrival="58130.00" arrivalLane="306240162#0_0" arrivalPos="220.43" arrivalSpeed="19.02" duration="56.00" routeLength="979.18" waitingTime="0.00" waitingCount="0" stopTime="0.00" timeLoss="13.80" rerouteNo="1" devices="tripinfo_h4794c2:1 routing_h4794c2:1" vType="default_016" speedFactor="1.20" vaporized=""/>
    <tripinfo id="h7618c2:1" depart="58128.00" departLane="-25117417#1_1" departPos="5.10" departSpeed="0.00" departDelay="0.00" arrival="58169.00" arrivalLane="-315358244_1" arrivalPos="33.95" arrivalSpeed="14.37" duration="41.00" routeLength="415.59" waitingTime="0.00" waitingCount="0" stopTime="0.00" timeLoss="5.70" rerouteNo="1" devices="tripinfo_h7618c2:1 routing_h7618c2:1" vType="default_016" speedFactor="1.07" vaporized=""/>
    <tripinfo id="h8323c2:1" depart="58013.00" departLane="-24634510#5_1" departPos="5.10" departSpeed="0.00" departDelay="0.00" arrival="58171.00" arrivalLane="272042145_1" arrivalPos="234.87" arrivalSpeed="12.44" duration="158.00" routeLength="1334.79" waitingTime="34.00" waitingCount="1" stopTime="0.00" timeLoss="51.27" rerouteNo="1" devices="tripinfo_h8323c2:1 routing_h8323c2:1" vType="default_016" speedFactor="0.93" vaporized=""/>
    <tripinfo id="h7415c1:1" depart="58104.00" departLane="53396619#4_1" departPos="5.10" departSpeed="0.00" departDelay="0.00" arrival="58173.00" arrivalLane="386687235_1" arrivalPos="80.84" arrivalSpeed="14.49" duration="69.00" routeLength="614.45" waitingTime="0.00" waitingCount="0" stopTime="0.00" timeLoss="9.44" rerouteNo="1" devices="tripinfo_h7415c1:1 routing_h7415c1:1" vType="default_016" speedFactor="1.05" vaporized=""/>
    <tripinfo id="h3923c1:1" depart="58095.00" departLane="315392062#0_1" departPos="5.10" departSpeed="0.00" departDelay="0.00" arrival="58183.00" arrivalLane="272042145_1" arrivalPos="234.87" arrivalSpeed="14.40" duration="88.00" routeLength="1157.92" waitingTime="0.00" waitingCount="0" stopTime="0.00" timeLoss="8.32" rerouteNo="1" devices="tripinfo_h3923c1:1 routing_h3923c1:1" vType="default_016" speedFactor="1.06" vaporized=""/>
    <tripinfo id="h8701c1:1" depart="58062.00" departLane="24634510#1_1" departPos="5.10" departSpeed="0.00" departDelay="0.00" arrival="58198.00" arrivalLane="272042145_1" arrivalPos="234.87" arrivalSpeed="13.32" duration="136.00" routeLength="1502.87" waitingTime="14.00" waitingCount="1" stopTime="0.00" timeLoss="31.15" rerouteNo="1" devices="tripinfo_h8701c1:1 routing_h8701c1:1" vType="default_016" speedFactor="1.05" vaporized=""/>
    <tripinfo id="h7445c2:1" depart="58087.00" departLane="54169231#1_1" departPos="5.10" departSpeed="0.00" departDelay="0.00" arrival="58198.00" arrivalLane="386687235_1" arrivalPos="80.84" arrivalSpeed="12.52" duration="111.00" routeLength="887.16" waitingTime="0.00" waitingCount="0" stopTime="0.00" timeLoss="16.70" rerouteNo="1" devices="tripinfo_h7445c2:1 routing_h7445c2:1" vType="default_016" speedFactor="0.95" vaporized=""/>
    <tripinfo id="h5559c1:1" depart="58108.00" departLane="-201950247#0_1" departPos="5.10" departSpeed="0.00" departDelay="0.10" arrival="58206.00" arrivalLane="386687235_1" arrivalPos="80.84" arrivalSpeed="13.02" duration="98.00" routeLength="904.10" waitingTime="0.00" waitingCount="0" stopTime="0.00" timeLoss="12.80" rerouteNo="1" devices="tripinfo_h5559c1:1 routing_h5559c1:1" vType="default_016" speedFactor="0.95" vaporized=""/>
    <tripinfo id="h8449c1:3" depart="58116.00" departLane="176550249#3_1" departPos="5.10" departSpeed="0.00" departDelay="0.50" arrival="58213.00" arrivalLane="272042145_1" arrivalPos="234.87" arrivalSpeed="11.50" duration="97.00" routeLength="1113.61" waitingTime="0.00" waitingCount="0" stopTime="0.00" timeLoss="8.79" rerouteNo="1" devices="tripinfo_h8449c1:3 routing_h8449c1:3" vType="default_016" speedFactor="0.91" vaporized=""/>
    <tripinfo id="h8552c1:1" depart="58132.00" departLane="176550249#4_1" departPos="5.10" departSpeed="0.00" departDelay="0.40" arrival="58215.00" arrivalLane="272042145_1" arrivalPos="234.87" arrivalSpeed="12.63" duration="83.00" routeLength="911.47" waitingTime="0.00" waitingCount="0" stopTime="0.00" timeLoss="11.99" rerouteNo="1" devices="tripinfo_h8552c1:1 routing_h8552c1:1" vType="default_016" speedFactor="0.93" vaporized=""/>
    <tripinfo id="h7072c2:1" depart="58036.00" departLane="315358244_1" departPos="5.10" departSpeed="0.00" departDelay="0.40" arrival="58224.00" arrivalLane="386687235_1" arrivalPos="80.84" arrivalSpeed="13.84" duration="188.00" routeLength="1701.77" waitingTime="7.00" waitingCount="1" stopTime="0.00" timeLoss="31.08" rerouteNo="1" devices="tripinfo_h7072c2:1 routing_h7072c2:1" vType="default_016" speedFactor="1.01" vaporized=""/>
    <tripinfo id="h5183c2:1" depart="58014.00" departLane="201238719#0_1" departPos="5.10" departSpeed="0.00" departDelay="0.00" arrival="58244.00" arrivalLane="32978638#0_1" arrivalPos="49.29" arrivalSpeed="14.42" duration="230.00" routeLength="2487.90" waitingTime="31.00" waitingCount="1" stopTime="0.00" timeLoss="59.01" rerouteNo="1" devices="tripinfo_h5183c2:1 routing_h5183c2:1" vType="default_016" speedFactor="1.05" vaporized=""/>
    <tripinfo id="h11064c2:3" depart="58065.00" departLane="315358244_1" departPos="5.10" departSpeed="0.00" departDelay="0.80" arrival="58250.00" arrivalLane="386687235_1" arrivalPos="80.84" arrivalSpeed="13.36" duration="185.00" routeLength="1701.77" waitingTime="0.00" waitingCount="0" stopTime="0.00" timeLoss="21.93" rerouteNo="1" devices="tripinfo_h11064c2:3 routing_h11064c2:3" vType="default_016" speedFactor="0.97" vaporized=""/>
    <tripinfo id="h3249c2:1" depart="58018.00" departLane="24634513#0_0" departPos="5.10" departSpeed="0.00" departDelay="0.00" arrival="58255.00" arrivalLane="272042145_1" arrivalPos="234.87" arrivalSpeed="12.83" duration="237.00" routeLength="1693.33" waitingTime="0.00" waitingCount="0" stopTime="0.00" timeLoss="39.06" rerouteNo="1" devices="tripinfo_h3249c2:1 routing_h3249c2:1" vType="default_016" speedFactor="0.96" vaporized=""/>
    <tripinfo id="carIn41543:1" depart="58207.00" departLane="-447569998#1_1" departPos="5.10" departSpeed="0.00" departDelay="0.70" arrival="58270.00" arrivalLane="-315358244_1" arrivalPos="33.95" arrivalSpeed="14.70" duration="63.00" routeLength="706.49" waitingTime="0.00" waitingCount="0" stopTime="0.00" timeLoss="6.19" rerouteNo="1" devices="tripinfo_carIn41543:1 routing_carIn41543:1" vType="default_015" speedFactor="1.07" vaporized=""/>
    <tripinfo id="h317c2:1" depart="57707.00" departLane="-32978638#0_1" departPos="5.10" departSpeed="0.00" departDelay="0.10" arrival="58284.00" arrivalLane="-266565295#5_1" arrivalPos="172.76" arrivalSpeed="14.58" duration="577.00" routeLength="370.53" waitingTime="541.00" waitingCount="1" stopTime="0.00" timeLoss="551.00" rerouteNo="1" devices="tripinfo_h317c2:1 routing_h317c2:1" vType="default_016" speedFactor="1.05" vaporized=""/>
    <tripinfo id="h330c1:1" depart="57736.00" departLane="-32978638#0_1" departPos="5.10" departSpeed="0.00" departDelay="0.20" arrival="58286.00" arrivalLane="-266565295#5_1" arrivalPos="172.76" arrivalSpeed="14.75" duration="550.00" routeLength="370.53" waitingTime="515.00" waitingCount="1" stopTime="0.00" timeLoss="525.63" rerouteNo="1" devices="tripinfo_h330c1:1 routing_h330c1:1" vType="default_016" speedFactor="1.14" vaporized=""/>
    <tripinfo id="h5350c1:3" depart="58199.00" departLane="315358254#0_1" departPos="5.10" departSpeed="0.00" departDelay="2.20" arrival="58298.00" arrivalLane="28319300#3_1" arrivalPos="85.93" arrivalSpeed="6.45" duration="99.00" routeLength="738.32" waitingTime="1.00" waitingCount="1" stopTime="0.00" timeLoss="18.65" rerouteNo="1" devices="tripinfo_h5350c1:3 routing_h5350c1:3" vType="default_016" speedFactor="0.92" vaporized=""/>
    <tripinfo id="carIn66973:1" depart="58231.00" departLane="-447569998#1_1" departPos="5.10" departSpeed="0.00" departDelay="0.10" arrival="58306.00" arrivalLane="-315358244_1" arrivalPos="33.95" arrivalSpeed="11.65" duration="75.00" routeLength="706.49" waitingTime="0.00" waitingCount="0" stopTime="0.00" timeLoss="6.38" rerouteNo="1" devices="tripinfo_carIn66973:1 routing_carIn66973:1" vType="default_016" speedFactor="0.88" vaporized=""/>
    <tripinfo id="h9695c1:3" depart="58259.00" departLane="-447569998#1_1" departPos="5.10" departSpeed="0.00" departDelay="0.10" arrival="58325.00" arrivalLane="-315358244_1" arrivalPos="33.95" arrivalSpeed="13.21" duration="66.00" routeLength="706.49" waitingTime="0.00" waitingCount="0" stopTime="0.00" timeLoss="6.07" rerouteNo="1" devices="tripinfo_h9695c1:3 routing_h9695c1:3" vType="default_016" speedFactor="1.01" vaporized=""/>
    <tripinfo id="carIn44560:1" depart="58262.00" departLane="-447569998#1_1" departPos="5.10" departSpeed="0.00" departDelay="1.00" arrival="58325.00" arrivalLane="-315358244_2" arrivalPos="33.95" arrivalSpeed="15.09" duration="63.00" routeLength="706.49" waitingTime="0.00" waitingCount="0" stopTime="0.00" timeLoss="7.31" rerouteNo="1" devices="tripinfo_carIn44560:1 routing_carIn44560:1" vType="default_016" speedFactor="1.09" vaporized=""/>
    <tripinfo id="carIn104860:1" depart="58195.00" departLane="-30482615#4_0" departPos="5.10" departSpeed="0.00" departDelay="0.60" arrival="58327.00" arrivalLane="18809673#0_1" arrivalPos="473.56" arrivalSpeed="14.14" duration="132.00" routeLength="958.56" waitingTime="5.00" waitingCount="1" stopTime="0.00" timeLoss="21.74" rerouteNo="1" devices="tripinfo_carIn104860:1 routing_carIn104860:1" vType="default_016" speedFactor="1.06" vaporized=""/>
    <tripinfo id="h4391c1:3" depart="58294.00" departLane="-32978638#0_1" departPos="5.10" departSpeed="0.00" departDelay="297.90" arrival="58330.00" arrivalLane="-266565295#5_1" arrivalPos="172.76" arrivalSpeed="14.45" duration="36.00" routeLength="370.53" waitingTime="0.00" waitingCount="0" stopTime="0.00" timeLoss="10.59" rerouteNo="1" devices="tripinfo_h4391c1:3 routing_h4391c1:3" vType="default_016" speedFactor="1.08" vaporized=""/>
    <tripinfo id="h923c1:1" depart="58051.00" departLane="10425609#0_1" departPos="5.10" departSpeed="0.00" departDelay="0.70" arrival="58331.00" arrivalLane="-218647954_1" arrivalPos="72.82" arrivalSpeed="1.63" duration="280.00" routeLength="1916.62" waitingTime="11.00" waitingCount="3" stopTime="0.00" timeLoss="63.87" rerouteNo="1" devices="tripinfo_h923c1:1 routing_h923c1:1" vType="default_016" speedFactor="0.89" vaporized=""/>
    <tripinfo id="carIn36101:1" depart="58284.00" departLane="-447569998#1_1" departPos="5.10" departSpeed="0.00" departDelay="1.70" arrival="58357.00" arrivalLane="-315358244_1" arrivalPos="33.95" arrivalSpeed="12.30" duration="73.00" routeLength="706.49" waitingTime="0.00" waitingCount="0" stopTime="0.00" timeLoss="7.55" rerouteNo="1" devices="tripinfo_carIn36101:1 routing_carIn36101:1" vType="default_016" speedFactor="0.92" vaporized=""/>
    <tripinfo id="randUni32801:1" depart="58337.00" departLane="447569997#1_1" departPos="5.10" departSpeed="0.00" departDelay="0.00" arrival="58363.00" arrivalLane="447569997#1_1" arrivalPos="180.93" arrivalSpeed="7.08" duration="26.00" routeLength="175.83" waitingTime="0.00" waitingCount="0" stopTime="0.00" timeLoss="3.28" rerouteNo="1" devices="tripinfo_randUni32801:1 routing_randUni32801:1" vType="random_016" speedFactor="0.95" vaporized=""/>
    <tripinfo id="h2796c2:1" depart="58253.00" departLane="176550249#0_1" departPos="5.10" departSpeed="0.00" departDelay="0.00" arrival="58365.00" arrivalLane="-24634506#2_1" arrivalPos="71.32" arrivalSpeed="14.37" duration="112.00" routeLength="1306.77" waitingTime="0.00" waitingCount="0" stopTime="0.00" timeLoss="14.66" rerouteNo="1" devices="tripinfo_h2796c2:1 routing_h2796c2:1" vType="default_016" speedFactor="1.05" vaporized=""/>
    <tripinfo id="h6709c1:3" depart="58216.00" departLane="315358244_1" departPos="5.10" departSpeed="0.00" departDelay="0.40" arrival="58391.00" arrivalLane="23166741#5_1" arrivalPos="170.18" arrivalSpeed="14.12" duration="175.00" routeLength="1395.97" waitingTime="16.00" waitingCount="1" stopTime="0.00" timeLoss="37.36" rerouteNo="1" devices="tripinfo_h6709c1:3 routing_h6709c1:3" vType="default_016" speedFactor="1.04" vaporized=""/>
    <tripinfo id="h2825c2:1" depart="58217.00" departLane="176550249#1_1" departPos="5.10" departSpeed="0.00" departDelay="0.20" arrival="58404.00" arrivalLane="4942376_1" arrivalPos="259.23" arrivalSpeed="6.80" duration="187.00" routeLength="1837.39" waitingTime="0.00" waitingCount="0" stopTime="0.00" timeLoss="14.93" rerouteNo="1" devices="tripinfo_h2825c2:1 routing_h2825c2:1" vType="default_016" speedFactor="0.85" vaporized=""/>
    <tripinfo id="h16288c1:3" depart="58372.00" departLane="-32978638#0_1" departPos="5.10" departSpeed="0.00" departDelay="165.20" arrival="58405.00" arrivalLane="-266565295#5_1" arrivalPos="172.76" arrivalSpeed="13.45" duration="33.00" routeLength="370.53" waitingTime="0.00" waitingCount="0" stopTime="0.00" timeLoss="4.79" rerouteNo="1" devices="tripinfo_h16288c1:3 routing_h16288c1:3" vType="default_016" speedFactor="0.99" vaporized=""/>
    <tripinfo id="h3919c1:1" depart="58293.00" departLane="315392062#0_1" departPos="5.10" departSpeed="0.00" departDelay="0.00" arrival="58412.00" arrivalLane="32978638#0_1" arrivalPos="49.29" arrivalSpeed="14.38" duration="119.00" routeLength="1184.68" waitingTime="0.00" waitingCount="0" stopTime="0.00" timeLoss="17.06" rerouteNo="1" devices="tripinfo_h3919c1:1 routing_h3919c1:1" vType="default_016" speedFactor="1.05" vaporized=""/>
    <tripinfo id="h4804c2:3" depart="58258.00" departLane="315358254#0_1" departPos="5.10" departSpeed="0.00" departDelay="0.90" arrival="58413.00" arrivalLane="-22724699#1_1" arrivalPos="53.01" arrivalSpeed="6.93" duration="155.00" routeLength="1224.37" waitingTime="0.00" waitingCount="0" stopTime="0.00" timeLoss="18.69" rerouteNo="1" devices="tripinfo_h4804c2:3 routing_h4804c2:3" vType="default_016" speedFactor="0.97" vaporized=""/>
    <tripinfo id="h614c1:1" depart="58283.00" departLane="10425609#0_1" departPos="5.10" departSpeed="0.00" departDelay="0.90" arrival="58415.00" arrivalLane="26642363_1" arrivalPos="35.89" arrivalSpeed="12.43" duration="132.00" routeLength="1346.68" waitingTime="0.00" waitingCount="0" stopTime="0.00" timeLoss="16.93" rerouteNo="1" devices="tripinfo_h614c1:1 routing_h614c1:1" vType="default_016" speedFactor="0.94" vaporized=""/>