<?xml version="1.0" encoding="UTF-8"?>

<!-- generated on 2023-08-30 21:42:13 by Eclipse SUMO libsumo Version 1.18.0
<configuration xmlns:xsi="http://www.w3.org/2001/XMLSchema-instance" xsi:noNamespaceSchemaLocation="http://sumo.dlr.de/xsd/libsumoConfiguration.xsd">

    <input>
        <net-file value="/home/stefan/RESCO/./environments/ingolstadt21/ingolstadt21.net.xml"/>
        <route-files value="/home/stefan/RESCO/./environments/ingolstadt21/ingolstadt21.rou.xml"/>
    </input>

    <output>
        <tripinfo-output value="/home/stefan/results/RAINBOW-tr0-ingolstadt21-21-drq_norm-wait_norm/tripinfo_65.xml"/>
        <tripinfo-output.write-unfinished value="true"/>
    </output>

    <time>
        <begin value="57600"/>
        <end value="61200"/>
    </time>

    <processing>
        <time-to-teleport value="-1"/>
    </processing>

    <report>
        <no-warnings value="True"/>
        <no-step-log value="True"/>
    </report>

    <random_number>
        <random value="true"/>
    </random_number>

</configuration>
-->

<tripinfos xmlns:xsi="http://www.w3.org/2001/XMLSchema-instance" xsi:noNamespaceSchemaLocation="http://sumo.dlr.de/xsd/tripinfo_file.xsd">
    <tripinfo id="h15454c2:3" depart="57612.00" departLane="24608844_1" departPos="5.10" departSpeed="0.00" departDelay="0.50" arrival="57649.00" arrivalLane="32978638#0_1" arrivalPos="49.29" arrivalSpeed="14.92" duration="37.00" routeLength="354.79" waitingTime="0.00" waitingCount="0" stopTime="0.00" timeLoss="6.89" rerouteNo="1" devices="tripinfo_h15454c2:3 routing_h15454c2:3" vType="default_016" speedFactor="1.15" vaporized=""/>
    <tripinfo id="carIn53971:1" depart="57640.00" departLane="272042143_1" departPos="5.10" departSpeed="0.00" departDelay="0.80" arrival="57698.00" arrivalLane="24634414#1_1" arrivalPos="162.19" arrivalSpeed="7.57" duration="58.00" routeLength="493.04" waitingTime="0.00" waitingCount="0" stopTime="0.00" timeLoss="8.55" rerouteNo="1" devices="tripinfo_carIn53971:1 routing_carIn53971:1" vType="default_016" speedFactor="0.92" vaporized=""/>
    <tripinfo id="h7800c1:5" depart="57696.00" departLane="-447569998#1_1" departPos="5.10" departSpeed="0.00" departDelay="0.00" arrival="57721.00" arrivalLane="-447569998#1_1" arrivalPos="180.76" arrivalSpeed="7.82" duration="25.00" routeLength="175.66" waitingTime="0.00" waitingCount="0" stopTime="0.00" timeLoss="3.03" rerouteNo="1" devices="tripinfo_h7800c1:5 routing_h7800c1:5" vType="default_016" speedFactor="1.00" vaporized=""/>
    <tripinfo id="h3568c1:3" depart="57656.00" departLane="266565295#5_1" departPos="5.10" departSpeed="0.00" departDelay="0.80" arrival="57736.00" arrivalLane="-24634415_1" arrivalPos="62.03" arrivalSpeed="13.08" duration="80.00" routeLength="807.40" waitingTime="0.00" waitingCount="0" stopTime="0.00" timeLoss="11.93" rerouteNo="1" devices="tripinfo_h3568c1:3 routing_h3568c1:3" vType="default_016" speedFactor="0.95" vaporized=""/>
    <tripinfo id="carIn80064:1" depart="57603.00" departLane="128361109#1_1" departPos="5.10" departSpeed="0.00" departDelay="0.40" arrival="57737.00" arrivalLane="-315358254#1_1" arrivalPos="137.16" arrivalSpeed="13.99" duration="134.00" routeLength="1587.97" waitingTime="26.00" waitingCount="1" stopTime="0.00" timeLoss="51.75" rerouteNo="1" devices="tripinfo_carIn80064:1 routing_carIn80064:1" vType="default_016" speedFactor="1.10" vaporized=""/>
    <tripinfo id="h3688c1:1" depart="57625.00" departLane="201201950#1_1" departPos="5.10" departSpeed="0.00" departDelay="0.00" arrival="57739.00" arrivalLane="32978638#0_1" arrivalPos="49.29" arrivalSpeed="11.56" duration="114.00" routeLength="1089.75" waitingTime="12.00" waitingCount="1" stopTime="0.00" timeLoss="25.11" rerouteNo="1" devices="tripinfo_h3688c1:1 routing_h3688c1:1" vType="default_016" speedFactor="0.89" vaporized=""/>
    <tripinfo id="h3154c1:1" depart="57658.00" departLane="24634507_1" departPos="5.10" departSpeed="0.00" departDelay="0.00" arrival="57750.00" arrivalLane="-266565295#5_1" arrivalPos="172.76" arrivalSpeed="14.98" duration="92.00" routeLength="1206.22" waitingTime="0.00" waitingCount="0" stopTime="0.00" timeLoss="11.71" rerouteNo="1" devices="tripinfo_h3154c1:1 routing_h3154c1:1" vType="default_016" speedFactor="1.12" vaporized=""/>
    <tripinfo id="carIn27009:1" depart="57673.00" departLane="-447569998#1_1" departPos="5.10" departSpeed="0.00" departDelay="0.50" arrival="57757.00" arrivalLane="-26677539_1" arrivalPos="152.75" arrivalSpeed="9.30" duration="84.00" routeLength="699.63" waitingTime="0.00" waitingCount="0" stopTime="0.00" timeLoss="9.18" rerouteNo="1" devices="tripinfo_carIn27009:1 routing_carIn27009:1" vType="default_015" speedFactor="1.13" vaporized=""/>
    <tripinfo id="carIn60260:1" depart="57606.00" departLane="315358254#0_1" departPos="5.10" departSpeed="0.00" departDelay="0.90" arrival="57764.00" arrivalLane="399835085#1_1" arrivalPos="212.23" arrivalSpeed="7.85" duration="158.00" routeLength="430.98" waitingTime="100.00" waitingCount="1" stopTime="0.00" timeLoss="110.40" rerouteNo="1" devices="tripinfo_carIn60260:1 routing_carIn60260:1" vType="default_016" speedFactor="0.97" vaporized=""/>
    <tripinfo id="h3326c1:2" depart="57656.00" departLane="22716069#0_1" departPos="5.10" departSpeed="0.00" departDelay="0.00" arrival="57764.00" arrivalLane="24634517#13_1" arrivalPos="111.62" arrivalSpeed="13.65" duration="108.00" routeLength="1312.81" waitingTime="0.00" waitingCount="0" stopTime="0.00" timeLoss="15.24" rerouteNo="1" devices="tripinfo_h3326c1:2 routing_h3326c1:2" vType="default_016" speedFactor="1.05" vaporized=""/>
    <tripinfo id="h7181c1:1" depart="57660.00" departLane="315358254#0_1" departPos="5.10" departSpeed="0.00" departDelay="0.10" arrival="57773.00" arrivalLane="306240162#0_0" arrivalPos="220.43" arrivalSpeed="17.64" duration="113.00" routeLength="932.35" waitingTime="49.00" waitingCount="1" stopTime="0.00" timeLoss="65.73" rerouteNo="1" devices="tripinfo_h7181c1:1 routing_h7181c1:1" vType="default_016" speedFactor="1.09" vaporized=""/>
    <tripinfo id="carIn30817:1" depart="57681.00" departLane="315358244_1" departPos="5.10" departSpeed="0.00" departDelay="0.20" arrival="57774.00" arrivalLane="447569997#1_1" arrivalPos="180.93" arrivalSpeed="8.16" duration="93.00" routeLength="718.04" waitingTime="16.00" waitingCount="1" stopTime="0.00" timeLoss="32.14" rerouteNo="1" devices="tripinfo_carIn30817:1 routing_carIn30817:1" vType="default_016" speedFactor="1.01" vaporized=""/>
    <tripinfo id="h317c2:1" depart="57707.00" departLane="-32978638#0_1" departPos="5.10" departSpeed="0.00" departDelay="0.10" arrival="57779.00" arrivalLane="-266565295#5_1" arrivalPos="172.76" arrivalSpeed="14.76" duration="72.00" routeLength="370.53" waitingTime="38.00" waitingCount="1" stopTime="0.00" timeLoss="47.27" rerouteNo="1" devices="tripinfo_h317c2:1 routing_h317c2:1" vType="default_016" speedFactor="1.09" vaporized=""/>
    <tripinfo id="h4538c1:1" depart="57701.00" departLane="-10427692#1_1" departPos="5.10" departSpeed="0.00" departDelay="0.00" arrival="57781.00" arrivalLane="-128361102#1_1" arrivalPos="274.68" arrivalSpeed="13.33" duration="80.00" routeLength="440.74" waitingTime="38.00" waitingCount="1" stopTime="0.00" timeLoss="49.28" rerouteNo="1" devices="tripinfo_h4538c1:1 routing_h4538c1:1" vType="default_016" speedFactor="1.03" vaporized=""/>
    <tripinfo id="carIn107282:1" depart="57749.00" departLane="-447569998#1_1" departPos="5.10" departSpeed="0.00" departDelay="0.00" arrival="57815.00" arrivalLane="315358242#0_1" arrivalPos="165.37" arrivalSpeed="13.63" duration="66.00" routeLength="448.50" waitingTime="17.00" waitingCount="1" stopTime="0.00" timeLoss="25.99" rerouteNo="1" devices="tripinfo_carIn107282:1 routing_carIn107282:1" vType="default_016" speedFactor="1.06" vaporized=""/>
    <tripinfo id="h11737c1:1" depart="57665.00" departLane="272042143_1" departPos="5.10" departSpeed="0.00" departDelay="1.50" arrival="57826.00" arrivalLane="-315358254#1_1" arrivalPos="137.16" arrivalSpeed="15.61" duration="161.00" routeLength="1596.88" waitingTime="33.00" waitingCount="1" stopTime="0.00" timeLoss="60.53" rerouteNo="1" devices="tripinfo_h11737c1:1 routing_h11737c1:1" vType="default_016" speedFactor="1.16" vaporized=""/>
    <tripinfo id="carIn126288:1" depart="57674.00" departLane="272042143_1" departPos="5.10" departSpeed="0.00" departDelay="0.00" arrival="57828.00" arrivalLane="-315358254#1_1" arrivalPos="137.16" arrivalSpeed="14.27" duration="154.00" routeLength="1596.88" waitingTime="27.00" waitingCount="1" stopTime="0.00" timeLoss="47.17" rerouteNo="1" devices="tripinfo_carIn126288:1 routing_carIn126288:1" vType="default_016" speedFactor="1.09" vaporized=""/>
    <tripinfo id="h5979c1:5" depart="57669.00" departLane="399835085#1_1" departPos="5.10" departSpeed="0.00" departDelay="0.00" arrival="57831.00" arrivalLane="-315358254#1_1" arrivalPos="137.16" arrivalSpeed="14.74" duration="162.00" routeLength="659.33" waitingTime="77.00" waitingCount="1" stopTime="0.00" timeLoss="97.01" rerouteNo="1" devices="tripinfo_h5979c1:5 routing_h5979c1:5" vType="default_016" speedFactor="1.13" vaporized=""/>
    <tripinfo id="randUni15030:1" depart="57735.00" departLane="386687232#0_1" departPos="5.10" departSpeed="0.00" departDelay="0.10" arrival="57831.00" arrivalLane="26677539_1" arrivalPos="151.98" arrivalSpeed="8.13" duration="96.00" routeLength="919.89" waitingTime="1.00" waitingCount="1" stopTime="0.00" timeLoss="16.85" rerouteNo="1" devices="tripinfo_randUni15030:1 routing_randUni15030:1" vType="random_016" speedFactor="1.05" vaporized=""/>
    <tripinfo id="carIn12365:1" depart="57713.00" departLane="315358244_1" departPos="5.10" departSpeed="0.00" departDelay="0.50" arrival="57832.00" arrivalLane="447569997#1_1" arrivalPos="180.93" arrivalSpeed="8.05" duration="119.00" routeLength="718.04" waitingTime="42.00" waitingCount="2" stopTime="0.00" timeLoss="61.45" rerouteNo="1" devices="tripinfo_carIn12365:1 routing_carIn12365:1" vType="default_016" speedFactor="1.08" vaporized=""/>
    <tripinfo id="h645c1:1" depart="57622.00" departLane="266565295#5_1" departPos="5.10" departSpeed="0.00" departDelay="0.40" arrival="57833.00" arrivalLane="-315358244_1" arrivalPos="33.95" arrivalSpeed="14.55" duration="211.00" routeLength="1910.83" waitingTime="53.00" waitingCount="3" stopTime="0.00" timeLoss="81.27" rerouteNo="1" devices="tripinfo_h645c1:1 routing_h645c1:1" vType="default_016" speedFactor="1.07" vaporized=""/>
    <tripinfo id="carIn121703:1" depart="57647.00" departLane="386687232#0_1" departPos="5.10" departSpeed="0.00" departDelay="0.30" arrival="57835.00" arrivalLane="-315358244_1" arrivalPos="33.95" arrivalSpeed="10.62" duration="188.00" routeLength="1157.39" waitingTime="61.00" waitingCount="3" stopTime="0.00" timeLoss="83.15" rerouteNo="1" devices="tripinfo_carIn121703:1 routing_carIn121703:1" vType="default_016" speedFactor="0.81" vaporized=""/>
    <tripinfo id="h330c1:1" depart="57736.00" departLane="-32978638#0_1" departPos="5.10" departSpeed="0.00" departDelay="0.20" arrival="57840.00" arrivalLane="-266565295#5_1" arrivalPos="172.76" arrivalSpeed="14.13" duration="104.00" routeLength="370.53" waitingTime="65.00" waitingCount="2" stopTime="0.00" timeLoss="77.92" rerouteNo="1" devices="tripinfo_h330c1:1 routing_h330c1:1" vType="default_016" speedFactor="1.07" vaporized=""/>
    <tripinfo id="randUni31145:1" depart="57814.00" departLane="10425609#0_1" departPos="5.10" departSpeed="0.00" departDelay="0.30" arrival="57851.00" arrivalLane="201956810_1" arrivalPos="71.65" arrivalSpeed="12.42" duration="37.00" routeLength="255.78" waitingTime="7.00" waitingCount="1" stopTime="0.00" timeLoss="15.99" rerouteNo="1" devices="tripinfo_randUni31145:1 routing_randUni31145:1" vType="random_016" speedFactor="0.92" vaporized=""/>
    <tripinfo id="h17549c1:1" depart="57680.00" departLane="-447569998#1_1" departPos="5.10" departSpeed="0.00" departDelay="0.00" arrival="57866.00" arrivalLane="-315358254#1_1" arrivalPos="137.16" arrivalSpeed="14.44" duration="186.00" routeLength="1746.60" waitingTime="37.00" waitingCount="3" stopTime="0.00" timeLoss="63.49" rerouteNo="1" devices="tripinfo_h17549c1:1 routing_h17549c1:1" vType="default_016" speedFactor="1.12" vaporized=""/>
    <tripinfo id="randUni2407:1" depart="57820.00" departLane="10425609#0_1" departPos="5.10" departSpeed="0.00" departDelay="0.80" arrival="57867.00" arrivalLane="201956810_1" arrivalPos="71.65" arrivalSpeed="15.22" duration="47.00" routeLength="255.78" waitingTime="11.00" waitingCount="3" stopTime="0.00" timeLoss="30.15" rerouteNo="1" devices="tripinfo_randUni2407:1 routing_randUni2407:1" vType="random_016" speedFactor="1.19" vaporized=""/>
    <tripinfo id="h8343c1:5" depart="57679.00" departLane="315358254#0_1" departPos="5.10" departSpeed="0.00" departDelay="0.60" arrival="57884.00" arrivalLane="-24634510#5_1" arrivalPos="236.88" arrivalSpeed="11.41" duration="205.00" routeLength="2056.84" waitingTime="31.00" waitingCount="2" stopTime="0.00" timeLoss="60.23" rerouteNo="1" devices="tripinfo_h8343c1:5 routing_h8343c1:5" vType="default_016" speedFactor="0.86" vaporized=""/>
    <tripinfo id="carIn24709:1" depart="57753.00" departLane="266565295#5_1" departPos="5.10" departSpeed="0.00" departDelay="2.50" arrival="57885.00" arrivalLane="-24634506#2_1" arrivalPos="71.32" arrivalSpeed="14.50" duration="132.00" routeLength="1534.27" waitingTime="3.00" waitingCount="1" stopTime="0.00" timeLoss="24.29" rerouteNo="1" devices="tripinfo_carIn24709:1 routing_carIn24709:1" vType="default_016" speedFactor="1.05" vaporized=""/>
    <tripinfo id="h13377c2:3" depart="57808.00" departLane="315358244_1" departPos="5.10" departSpeed="0.00" departDelay="4.60" arrival="57888.00" arrivalLane="447569997#1_1" arrivalPos="180.93" arrivalSpeed="9.33" duration="80.00" routeLength="718.04" waitingTime="7.00" waitingCount="1" stopTime="0.00" timeLoss="25.47" rerouteNo="1" devices="tripinfo_h13377c2:3 routing_h13377c2:3" vType="default_016" speedFactor="1.13" vaporized=""/>
    <tripinfo id="h5170c2:1" depart="57631.00" departLane="201201953#4_1" departPos="5.10" departSpeed="0.00" departDelay="0.00" arrival="57889.00" arrivalLane="-266565295#5_1" arrivalPos="172.76" arrivalSpeed="12.71" duration="258.00" routeLength="3097.92" waitingTime="0.00" waitingCount="0" stopTime="0.00" timeLoss="25.30" rerouteNo="1" devices="tripinfo_h5170c2:1 routing_h5170c2:1" vType="default_016" speedFactor="0.99" vaporized=""/>
    <tripinfo id="carIn118538:1" depart="57683.00" departLane="-447569998#1_1" departPos="5.10" departSpeed="0.00" departDelay="1.00" arrival="57890.00" arrivalLane="399835085#1_1" arrivalPos="212.23" arrivalSpeed="9.69" duration="207.00" routeLength="1907.17" waitingTime="33.00" waitingCount="3" stopTime="0.00" timeLoss="69.21" rerouteNo="1" devices="tripinfo_carIn118538:1 routing_carIn118538:1" vType="default_016" speedFactor="1.18" vaporized=""/>
    <tripinfo id="carIn13443:1" depart="57729.00" departLane="272042143_1" departPos="5.10" departSpeed="0.00" departDelay="0.80" arrival="57895.00" arrivalLane="399835085#1_1" arrivalPos="212.23" arrivalSpeed="8.57" duration="166.00" routeLength="1757.45" waitingTime="16.00" waitingCount="1" stopTime="0.00" timeLoss="36.41" rerouteNo="1" devices="tripinfo_carIn13443:1 routing_carIn13443:1" vType="default_016" speedFactor="1.10" vaporized=""/>
    <tripinfo id="h5938c1:1" depart="57740.00" departLane="-26677542#0_1" departPos="5.10" departSpeed="0.00" departDelay="0.00" arrival="57910.00" arrivalLane="447569997#1_1" arrivalPos="180.93" arrivalSpeed="8.88" duration="170.00" routeLength="1093.64" waitingTime="67.00" waitingCount="1" stopTime="0.00" timeLoss="82.30" rerouteNo="1" devices="tripinfo_h5938c1:1 routing_h5938c1:1" vType="default_016" speedFactor="1.11" vaporized=""/>
    <tripinfo id="carIn81681:1" depart="57726.00" departLane="272042143_1" departPos="5.10" departSpeed="0.00" departDelay="0.30" arrival="57913.00" arrivalLane="306240162#0_0" arrivalPos="220.43" arrivalSpeed="13.43" duration="187.00" routeLength="2246.89" waitingTime="0.00" waitingCount="0" stopTime="0.00" timeLoss="17.57" rerouteNo="1" devices="tripinfo_carIn81681:1 routing_carIn81681:1" vType="default_016" speedFactor="0.87" vaporized=""/>
    <tripinfo id="carIn80913:1" depart="57732.00" departLane="272042143_1" departPos="5.10" departSpeed="0.00" departDelay="0.40" arrival="57921.00" arrivalLane="306240162#0_0" arrivalPos="220.43" arrivalSpeed="14.88" duration="189.00" routeLength="2246.89" waitingTime="2.00" waitingCount="1" stopTime="0.00" timeLoss="29.95" rerouteNo="1" devices="tripinfo_carIn80913:1 routing_carIn80913:1" vType="default_016" speedFactor="0.93" vaporized=""/>
    <tripinfo id="carIn22761:1" depart="57616.00" departLane="-306240162#1_0" departPos="5.10" departSpeed="0.00" departDelay="2.10" arrival="57924.00" arrivalLane="399835085#1_1" arrivalPos="212.23" arrivalSpeed="7.82" duration="308.00" routeLength="1093.26" waitingTime="202.00" waitingCount="3" stopTime="0.00" timeLoss="230.35" rerouteNo="1" devices="tripinfo_carIn22761:1 routing_carIn22761:1" vType="default_016" speedFactor="1.01" vaporized=""/>
    <tripinfo id="carIn12858:1" depart="57661.00" departLane="128361109#1_1" departPos="5.10" departSpeed="0.00" departDelay="0.90" arrival="57926.00" arrivalLane="399835085#1_1" arrivalPos="212.23" arrivalSpeed="7.98" duration="265.00" routeLength="1738.12" waitingTime="123.00" waitingCount="1" stopTime="0.00" timeLoss="158.44" rerouteNo="1" devices="tripinfo_carIn12858:1 routing_carIn12858:1" vType="default_016" speedFactor="1.08" vaporized=""/>
    <tripinfo id="h12244c1:3" depart="57612.00" departLane="315358244_1" departPos="5.10" departSpeed="0.00" departDelay="0.40" arrival="57927.00" arrivalLane="386687235_1" arrivalPos="80.84" arrivalSpeed="13.34" duration="315.00" routeLength="1186.14" waitingTime="209.00" waitingCount="3" stopTime="0.00" timeLoss="232.75" rerouteNo="1" devices="tripinfo_h12244c1:3 routing_h12244c1:3" vType="default_016" speedFactor="1.05" vaporized=""/>
    <tripinfo id="carIn14532:1" depart="57743.00" departLane="272042143_1" departPos="5.10" departSpeed="0.00" departDelay="1.90" arrival="57929.00" arrivalLane="399835085#1_1" arrivalPos="212.23" arrivalSpeed="7.33" duration="186.00" routeLength="1757.45" waitingTime="8.00" waitingCount="1" stopTime="0.00" timeLoss="46.41" rerouteNo="1" devices="tripinfo_carIn14532:1 routing_carIn14532:1" vType="default_016" speedFactor="1.01" vaporized=""/>
    <tripinfo id="h9563c2:5" depart="57631.00" departLane="315358244_1" departPos="5.10" departSpeed="0.00" departDelay="0.70" arrival="57931.00" arrivalLane="386687235_1" arrivalPos="80.84" arrivalSpeed="12.00" duration="300.00" routeLength="1186.14" waitingTime="175.00" waitingCount="3" stopTime="0.00" timeLoss="201.44" rerouteNo="1" devices="tripinfo_h9563c2:5 routing_h9563c2:5" vType="default_016" speedFactor="0.88" vaporized=""/>
    <tripinfo id="carIn118591:1" depart="57689.00" departLane="315358244_1" departPos="5.10" departSpeed="0.00" departDelay="0.20" arrival="57933.00" arrivalLane="386687235_1" arrivalPos="80.84" arrivalSpeed="12.22" duration="244.00" routeLength="1186.14" waitingTime="122.00" waitingCount="2" stopTime="0.00" timeLoss="151.07" rerouteNo="1" devices="tripinfo_carIn118591:1 routing_carIn118591:1" vType="default_016" speedFactor="0.93" vaporized=""/>
    <tripinfo id="h6846c2:1" depart="57741.00" departLane="26677213#0_1" departPos="5.10" departSpeed="0.00" departDelay="0.00" arrival="57935.00" arrivalLane="386687235_1" arrivalPos="80.84" arrivalSpeed="13.24" duration="194.00" routeLength="1412.24" waitingTime="28.00" waitingCount="1" stopTime="0.00" timeLoss="57.94" rerouteNo="1" devices="tripinfo_h6846c2:1 routing_h6846c2:1" vType="default_016" speedFactor="1.01" vaporized=""/>
    <tripinfo id="carIn102242:1" depart="57802.00" departLane="315358244_1" departPos="5.10" departSpeed="0.00" departDelay="0.90" arrival="57937.00" arrivalLane="386687235_1" arrivalPos="80.84" arrivalSpeed="13.93" duration="135.00" routeLength="1186.14" waitingTime="24.00" waitingCount="3" stopTime="0.00" timeLoss="55.44" rerouteNo="1" devices="tripinfo_carIn102242:1 routing_carIn102242:1" vType="default_016" speedFactor="1.09" vaporized=""/>
    <tripinfo id="randUni16001:1" depart="57912.00" departLane="10425609#0_1" departPos="5.10" departSpeed="0.00" departDelay="0.30" arrival="57939.00" arrivalLane="201956810_1" arrivalPos="71.65" arrivalSpeed="12.66" duration="27.00" routeLength="255.78" waitingTime="0.00" waitingCount="0" stopTime="0.00" timeLoss="6.51" rerouteNo="1" devices="tripinfo_randUni16001:1 routing_randUni16001:1" vType="random_016" speedFactor="0.98" vaporized=""/>
    <tripinfo id="S5R_frequency1.2" depart="57767.00" departLane="315358250#0_1" departPos="12.10" departSpeed="0.00" departDelay="155.40" arrival="57947.00" arrivalLane="386687235_1" arrivalPos="80.84" arrivalSpeed="13.61" duration="180.00" routeLength="1115.62" waitingTime="60.00" waitingCount="2" stopTime="0.00" timeLoss="98.36" rerouteNo="1" devices="tripinfo_S5R_frequency1.2 routing_S5R_frequency1.2" vType="bus" speedFactor="1.00" vaporized=""/>
    <tripinfo id="carIn101266:1" depart="57737.00" departLane="272042143_1" departPos="5.10" departSpeed="0.00" departDelay="0.50" arrival="57952.00" arrivalLane="306240162#0_0" arrivalPos="220.43" arrivalSpeed="12.17" duration="215.00" routeLength="2246.89" waitingTime="10.00" waitingCount="1" stopTime="0.00" timeLoss="30.88" rerouteNo="1" devices="tripinfo_carIn101266:1 routing_carIn101266:1" vType="default_016" speedFactor="0.80" vaporized=""/>
    <tripinfo id="carIn12775:1" depart="57676.00" departLane="10425609#0_1" departPos="5.10" departSpeed="0.00" departDelay="0.60" arrival="57954.00" arrivalLane="18809673#0_1" arrivalPos="473.56" arrivalSpeed="12.09" duration="278.00" routeLength="1959.45" waitingTime="98.00" waitingCount="3" stopTime="0.00" timeLoss="125.28" rerouteNo="1" devices="tripinfo_carIn12775:1 routing_carIn12775:1" vType="default_016" speedFactor="0.95" vaporized=""/>
    <tripinfo id="h8222c1:5" depart="57839.00" departLane="266565295#5_1" departPos="5.10" departSpeed="0.00" departDelay="0.90" arrival="57957.00" arrivalLane="-201238724_1" arrivalPos="217.34" arrivalSpeed="14.10" duration="118.00" routeLength="1538.58" waitingTime="0.00" waitingCount="0" stopTime="0.00" timeLoss="12.23" rerouteNo="1" devices="tripinfo_h8222c1:5 routing_h8222c1:5" vType="default_016" speedFactor="1.06" vaporized=""/>
    <tripinfo id="h4943c1:3" depart="57861.00" departLane="-399835085#0_1" departPos="5.10" departSpeed="0.00" departDelay="0.00" arrival="57983.00" arrivalLane="201238729#3_1" arrivalPos="431.02" arrivalSpeed="13.02" duration="122.00" routeLength="1490.33" waitingTime="14.00" waitingCount="1" stopTime="0.00" timeLoss="33.46" rerouteNo="1" devices="tripinfo_h4943c1:3 routing_h4943c1:3" vType="default_016" speedFactor="1.03" vaporized=""/>
    <tripinfo id="carIn113750:1" depart="57961.00" departLane="24599188#0.94_1" departPos="5.10" departSpeed="0.00" departDelay="0.30" arrival="57985.00" arrivalLane="24599188#0.94_1" arrivalPos="186.59" arrivalSpeed="8.67" duration="24.00" routeLength="181.49" waitingTime="0.00" waitingCount="0" stopTime="0.00" timeLoss="4.28" rerouteNo="1" devices="tripinfo_carIn113750:1 routing_carIn113750:1" vType="default_016" speedFactor="1.13" vaporized=""/>
    <tripinfo id="h17890c1:3" depart="57792.00" departLane="386687232#0_1" departPos="5.10" departSpeed="0.00" departDelay="0.00" arrival="57992.00" arrivalLane="32978638#0_1" arrivalPos="49.29" arrivalSpeed="12.85" duration="200.00" routeLength="792.72" waitingTime="124.00" waitingCount="1" stopTime="0.00" timeLoss="137.35" rerouteNo="1" devices="tripinfo_h17890c1:3 routing_h17890c1:3" vType="default_016" speedFactor="0.94" vaporized=""/>
    <tripinfo id="carIn11414:1" depart="57831.00" departLane="272042143_1" departPos="5.10" departSpeed="0.00" departDelay="4.20" arrival="57993.00" arrivalLane="306240162#0_0" arrivalPos="220.43" arrivalSpeed="21.92" duration="162.00" routeLength="2246.89" waitingTime="15.00" waitingCount="2" stopTime="0.00" timeLoss="49.37" rerouteNo="1" devices="tripinfo_carIn11414:1 routing_carIn11414:1" vType="default_016" speedFactor="1.32" vaporized=""/>
    <tripinfo id="h3536c1:1" depart="57767.00" departLane="-24634413#2_1" departPos="5.10" departSpeed="0.00" departDelay="0.00" arrival="57995.00" arrivalLane="32978638#0_1" arrivalPos="49.29" arrivalSpeed="12.79" duration="228.00" routeLength="953.61" waitingTime="113.00" waitingCount="1" stopTime="0.00" timeLoss="131.44" rerouteNo="1" devices="tripinfo_h3536c1:1 routing_h3536c1:1" vType="default_016" speedFactor="0.93" vaporized=""/>
    <tripinfo id="h3847c1:3" depart="57893.00" departLane="24634416_1" departPos="5.10" departSpeed="0.00" departDelay="0.00" arrival="57997.00" arrivalLane="32978638#0_2" arrivalPos="49.29" arrivalSpeed="12.98" duration="104.00" routeLength="552.31" waitingTime="47.00" waitingCount="1" stopTime="0.00" timeLoss="61.95" rerouteNo="1" devices="tripinfo_h3847c1:3 routing_h3847c1:3" vType="default_016" speedFactor="1.00" vaporized=""/>
    <tripinfo id="h4574c1:3" depart="57907.00" departLane="-137454133#5_1" departPos="5.10" departSpeed="0.00" departDelay="0.00" arrival="57998.00" arrivalLane="201238729#3_1" arrivalPos="431.02" arrivalSpeed="11.23" duration="91.00" routeLength="979.11" waitingTime="0.00" waitingCount="0" stopTime="0.00" timeLoss="13.70" rerouteNo="1" devices="tripinfo_h4574c1:3 routing_h4574c1:3" vType="default_016" speedFactor="0.87" vaporized=""/>
    <tripinfo id="h825c2:3" depart="57690.00" departLane="315358254#0_1" departPos="5.10" departSpeed="0.00" departDelay="0.50" arrival="58001.00" arrivalLane="32978638#0_1" arrivalPos="49.29" arrivalSpeed="13.33" duration="311.00" routeLength="2207.01" waitingTime="113.00" waitingCount="3" stopTime="0.00" timeLoss="144.33" rerouteNo="1" devices="tripinfo_h825c2:3 routing_h825c2:3" vType="default_016" speedFactor="0.97" vaporized=""/>
    <tripinfo id="h4388c1:3" depart="57693.00" departLane="315358254#0_1" departPos="5.10" departSpeed="0.00" departDelay="1.80" arrival="58002.00" arrivalLane="32978638#0_1" arrivalPos="49.29" arrivalSpeed="13.93" duration="309.00" routeLength="2207.01" waitingTime="111.00" waitingCount="4" stopTime="0.00" timeLoss="161.19" rerouteNo="1" devices="tripinfo_h4388c1:3 routing_h4388c1:3" vType="default_016" speedFactor="1.09" vaporized=""/>
    <tripinfo id="carIn73855:1" depart="57743.00" departLane="386687232#0_1" departPos="5.10" departSpeed="0.00" departDelay="0.50" arrival="58004.00" arrivalLane="-315358244_2" arrivalPos="33.95" arrivalSpeed="12.56" duration="261.00" routeLength="1157.39" waitingTime="153.00" waitingCount="2" stopTime="0.00" timeLoss="170.84" rerouteNo="1" devices="tripinfo_carIn73855:1 routing_carIn73855:1" vType="default_016" speedFactor="0.94" vaporized=""/>
    <tripinfo id="carIn129809:1" depart="57729.00" departLane="-447569998#1_1" departPos="5.10" departSpeed="0.00" departDelay="1.00" arrival="58005.00" arrivalLane="-315358244_1" arrivalPos="33.95" arrivalSpeed="11.18" duration="276.00" routeLength="706.49" waitingTime="187.00" waitingCount="2" stopTime="0.00" timeLoss="203.95" rerouteNo="1" devices="tripinfo_carIn129809:1 routing_carIn129809:1" vType="default_015" speedFactor="0.84" vaporized=""/>
    <tripinfo id="carIn8642:1" depart="57774.00" departLane="-447569998#1_1" departPos="5.10" departSpeed="0.00" departDelay="0.90" arrival="58005.00" arrivalLane="-315358244_2" arrivalPos="33.95" arrivalSpeed="13.42" duration="231.00" routeLength="706.49" waitingTime="153.00" waitingCount="2" stopTime="0.00" timeLoss="172.90" rerouteNo="1" devices="tripinfo_carIn8642:1 routing_carIn8642:1" vType="default_016" speedFactor="1.03" vaporized=""/>
    <tripinfo id="carIn126378:1" depart="57746.00" departLane="386687232#0_1" departPos="5.10" departSpeed="0.00" departDelay="1.80" arrival="58006.00" arrivalLane="-315358244_1" arrivalPos="33.95" arrivalSpeed="13.10" duration="260.00" routeLength="1157.39" waitingTime="155.00" waitingCount="3" stopTime="0.00" timeLoss="175.04" rerouteNo="1" devices="tripinfo_carIn126378:1 routing_carIn126378:1" vType="default_016" speedFactor="0.99" vaporized=""/>
    <tripinfo id="carIn63848:1" depart="57841.00" departLane="-447569998#1_1" departPos="5.10" departSpeed="0.00" departDelay="0.80" arrival="58007.00" arrivalLane="-315358244_2" arrivalPos="33.95" arrivalSpeed="14.65" duration="166.00" routeLength="706.49" waitingTime="94.00" waitingCount="2" stopTime="0.00" timeLoss="113.17" rerouteNo="1" devices="tripinfo_carIn63848:1 routing_carIn63848:1" vType="default_016" speedFactor="1.14" vaporized=""/>
    <tripinfo id="carIn70533:1" depart="57812.00" departLane="-447569998#1_1" departPos="5.10" departSpeed="0.00" departDelay="0.10" arrival="58008.00" arrivalLane="-315358244_1" arrivalPos="33.95" arrivalSpeed="11.89" duration="196.00" routeLength="706.49" waitingTime="114.00" waitingCount="2" stopTime="0.00" timeLoss="131.95" rerouteNo="1" devices="tripinfo_carIn70533:1 routing_carIn70533:1" vType="default_016" speedFactor="0.94" vaporized=""/>
    <tripinfo id="carIn115169:1" depart="57759.00" departLane="24599188#0.94_1" departPos="5.10" departSpeed="0.00" departDelay="0.50" arrival="58009.00" arrivalLane="-10427692#3_1" arrivalPos="28.64" arrivalSpeed="23.82" duration="250.00" routeLength="2183.23" waitingTime="61.00" waitingCount="1" stopTime="0.00" timeLoss="96.63" rerouteNo="1" devices="tripinfo_carIn115169:1 routing_carIn115169:1" vType="default_016" speedFactor="1.11" vaporized=""/>