<?xml version="1.0" encoding="UTF-8"?>

<!-- generated on 2023-08-30 22:17:12 by Eclipse SUMO libsumo Version 1.18.0
<configuration xmlns:xsi="http://www.w3.org/2001/XMLSchema-instance" xsi:noNamespaceSchemaLocation="http://sumo.dlr.de/xsd/libsumoConfiguration.xsd">

    <input>
        <net-file value="/home/stefan/RESCO/./environments/ingolstadt21/ingolstadt21.net.xml"/>
        <route-files value="/home/stefan/RESCO/./environments/ingolstadt21/ingolstadt21.rou.xml"/>
    </input>

    <output>
        <tripinfo-output value="/home/stefan/results/RAINBOW-tr0-ingolstadt21-21-drq_norm-wait_norm/tripinfo_93.xml"/>
        <tripinfo-output.write-unfinished value="true"/>
    </output>

    <time>
        <begin value="57600"/>
        <end value="61200"/>
    </time>

    <processing>
        <time-to-teleport value="-1"/>
    </processing>

    <report>
        <no-warnings value="True"/>
        <no-step-log value="True"/>
    </report>

    <random_number>
        <random value="true"/>
    </random_number>

</configuration>
-->

<tripinfos xmlns:xsi="http://www.w3.org/2001/XMLSchema-instance" xsi:noNamespaceSchemaLocation="http://sumo.dlr.de/xsd/tripinfo_file.xsd">
    <tripinfo id="carIn53971:1" depart="57640.00" departLane="272042143_1" departPos="5.10" departSpeed="0.00" departDelay="0.80" arrival="57702.00" arrivalLane="24634414#1_1" arrivalPos="162.19" arrivalSpeed="6.41" duration="62.00" routeLength="493.04" waitingTime="0.00" waitingCount="0" stopTime="0.00" timeLoss="8.22" rerouteNo="1" devices="tripinfo_carIn53971:1 routing_carIn53971:1" vType="default_016" speedFactor="0.85" vaporized=""/>
    <tripinfo id="h7800c1:5" depart="57696.00" departLane="-447569998#1_1" departPos="5.10" departSpeed="0.00" departDelay="0.00" arrival="57718.00" arrivalLane="-447569998#1_1" arrivalPos="180.76" arrivalSpeed="9.09" duration="22.00" routeLength="175.66" waitingTime="0.00" waitingCount="0" stopTime="0.00" timeLoss="3.48" rerouteNo="1" devices="tripinfo_h7800c1:5 routing_h7800c1:5" vType="default_016" speedFactor="1.16" vaporized=""/>
    <tripinfo id="h317c2:1" depart="57707.00" departLane="-32978638#0_1" departPos="5.10" departSpeed="0.00" departDelay="0.10" arrival="57739.00" arrivalLane="-266565295#5_1" arrivalPos="172.76" arrivalSpeed="13.79" duration="32.00" routeLength="370.53" waitingTime="0.00" waitingCount="0" stopTime="0.00" timeLoss="5.68" rerouteNo="1" devices="tripinfo_h317c2:1 routing_h317c2:1" vType="default_016" speedFactor="1.06" vaporized=""/>
    <tripinfo id="carIn27009:1" depart="57673.00" departLane="-447569998#1_1" departPos="5.10" departSpeed="0.00" departDelay="0.50" arrival="57770.00" arrivalLane="-26677539_1" arrivalPos="152.75" arrivalSpeed="8.03" duration="97.00" routeLength="699.63" waitingTime="0.00" waitingCount="0" stopTime="0.00" timeLoss="12.33" rerouteNo="1" devices="tripinfo_carIn27009:1 routing_carIn27009:1" vType="default_015" speedFactor="1.00" vaporized=""/>
    <tripinfo id="h330c1:1" depart="57736.00" departLane="-32978638#0_1" departPos="5.10" departSpeed="0.00" departDelay="0.20" arrival="57770.00" arrivalLane="-266565295#5_1" arrivalPos="172.76" arrivalSpeed="13.30" duration="34.00" routeLength="370.53" waitingTime="0.00" waitingCount="0" stopTime="0.00" timeLoss="6.20" rerouteNo="1" devices="tripinfo_h330c1:1 routing_h330c1:1" vType="default_016" speedFactor="0.99" vaporized=""/>
    <tripinfo id="h3326c1:2" depart="57656.00" departLane="22716069#0_1" departPos="5.10" departSpeed="0.00" departDelay="0.00" arrival="57777.00" arrivalLane="24634517#13_1" arrivalPos="111.62" arrivalSpeed="12.54" duration="121.00" routeLength="1312.81" waitingTime="0.00" waitingCount="0" stopTime="0.00" timeLoss="14.73" rerouteNo="1" devices="tripinfo_h3326c1:2 routing_h3326c1:2" vType="default_016" speedFactor="0.92" vaporized=""/>
    <tripinfo id="carIn107282:1" depart="57749.00" departLane="-447569998#1_1" departPos="5.10" departSpeed="0.00" departDelay="0.00" arrival="57791.00" arrivalLane="315358242#0_1" arrivalPos="165.37" arrivalSpeed="15.10" duration="42.00" routeLength="448.50" waitingTime="0.00" waitingCount="0" stopTime="0.00" timeLoss="4.49" rerouteNo="1" devices="tripinfo_carIn107282:1 routing_carIn107282:1" vType="default_016" speedFactor="1.13" vaporized=""/>
    <tripinfo id="carIn129809:1" depart="57729.00" departLane="-447569998#1_1" departPos="5.10" departSpeed="0.00" departDelay="1.00" arrival="57810.00" arrivalLane="-315358244_1" arrivalPos="33.95" arrivalSpeed="10.79" duration="81.00" routeLength="706.49" waitingTime="0.00" waitingCount="0" stopTime="0.00" timeLoss="8.03" rerouteNo="1" devices="tripinfo_carIn129809:1 routing_carIn129809:1" vType="default_015" speedFactor="0.83" vaporized=""/>
    <tripinfo id="carIn8642:1" depart="57774.00" departLane="-447569998#1_1" departPos="5.10" departSpeed="0.00" departDelay="0.90" arrival="57845.00" arrivalLane="-315358244_1" arrivalPos="33.95" arrivalSpeed="12.26" duration="71.00" routeLength="706.49" waitingTime="0.00" waitingCount="0" stopTime="0.00" timeLoss="6.61" rerouteNo="1" devices="tripinfo_carIn8642:1 routing_carIn8642:1" vType="default_016" speedFactor="0.94" vaporized=""/>
    <tripinfo id="randUni31145:1" depart="57814.00" departLane="10425609#0_1" departPos="5.10" departSpeed="0.00" departDelay="0.30" arrival="57848.00" arrivalLane="201956810_1" arrivalPos="71.65" arrivalSpeed="12.64" duration="34.00" routeLength="255.78" waitingTime="3.00" waitingCount="1" stopTime="0.00" timeLoss="11.79" rerouteNo="1" devices="tripinfo_randUni31145:1 routing_randUni31145:1" vType="random_016" speedFactor="0.91" vaporized=""/>
    <tripinfo id="randUni2407:1" depart="57820.00" departLane="10425609#0_1" departPos="5.10" departSpeed="0.00" departDelay="0.80" arrival="57858.00" arrivalLane="201956810_1" arrivalPos="71.65" arrivalSpeed="12.49" duration="38.00" routeLength="255.78" waitingTime="5.00" waitingCount="2" stopTime="0.00" timeLoss="17.72" rerouteNo="1" devices="tripinfo_randUni2407:1 routing_randUni2407:1" vType="random_016" speedFactor="0.98" vaporized=""/>
    <tripinfo id="carIn70533:1" depart="57812.00" departLane="-447569998#1_1" departPos="5.10" departSpeed="0.00" departDelay="0.10" arrival="57872.00" arrivalLane="-315358244_1" arrivalPos="33.95" arrivalSpeed="14.47" duration="60.00" routeLength="706.49" waitingTime="0.00" waitingCount="0" stopTime="0.00" timeLoss="6.07" rerouteNo="1" devices="tripinfo_carIn70533:1 routing_carIn70533:1" vType="default_016" speedFactor="1.12" vaporized=""/>
    <tripinfo id="randUni23028:1" depart="57884.00" departLane="124812856#0_1" departPos="5.10" departSpeed="0.00" departDelay="0.10" arrival="57902.00" arrivalLane="201956810_1" arrivalPos="71.65" arrivalSpeed="12.30" duration="18.00" routeLength="134.91" waitingTime="0.00" waitingCount="0" stopTime="0.00" timeLoss="7.05" rerouteNo="1" devices="tripinfo_randUni23028:1 routing_randUni23028:1" vType="random_016" speedFactor="0.96" vaporized=""/>
    <tripinfo id="carIn13353:1" depart="57838.00" departLane="-447569998#1_1" departPos="5.10" departSpeed="0.00" departDelay="0.30" arrival="57909.00" arrivalLane="-315358244_1" arrivalPos="33.95" arrivalSpeed="12.91" duration="71.00" routeLength="706.49" waitingTime="0.00" waitingCount="0" stopTime="0.00" timeLoss="7.01" rerouteNo="1" devices="tripinfo_carIn13353:1 routing_carIn13353:1" vType="default_016" speedFactor="0.95" vaporized=""/>
    <tripinfo id="carIn63848:1" depart="57841.00" departLane="-447569998#1_1" departPos="5.10" departSpeed="0.00" departDelay="0.80" arrival="57913.00" arrivalLane="-315358244_1" arrivalPos="33.95" arrivalSpeed="12.96" duration="72.00" routeLength="706.49" waitingTime="0.00" waitingCount="0" stopTime="0.00" timeLoss="7.45" rerouteNo="1" devices="tripinfo_carIn63848:1 routing_carIn63848:1" vType="default_016" speedFactor="0.94" vaporized=""/>
    <tripinfo id="h2859c1:1" depart="57822.00" departLane="201238726#0.117_1" departPos="5.10" departSpeed="0.00" departDelay="0.10" arrival="57947.00" arrivalLane="386687235_1" arrivalPos="80.84" arrivalSpeed="13.35" duration="125.00" routeLength="1631.78" waitingTime="0.00" waitingCount="0" stopTime="0.00" timeLoss="8.55" rerouteNo="1" devices="tripinfo_h2859c1:1 routing_h2859c1:1" vType="default_016" speedFactor="1.02" vaporized=""/>
    <tripinfo id="randUni16001:1" depart="57912.00" departLane="10425609#0_1" departPos="5.10" departSpeed="0.00" departDelay="0.30" arrival="57948.00" arrivalLane="201956810_1" arrivalPos="71.65" arrivalSpeed="11.84" duration="36.00" routeLength="255.78" waitingTime="6.00" waitingCount="1" stopTime="0.00" timeLoss="14.37" rerouteNo="1" devices="tripinfo_randUni16001:1 routing_randUni16001:1" vType="random_016" speedFactor="0.92" vaporized=""/>
    <tripinfo id="h3426c1:1" depart="57864.00" departLane="-160314345#2_1" departPos="5.10" departSpeed="0.00" departDelay="0.00" arrival="57959.00" arrivalLane="386687235_1" arrivalPos="80.84" arrivalSpeed="10.43" duration="95.00" routeLength="726.87" waitingTime="1.00" waitingCount="1" stopTime="0.00" timeLoss="13.86" rerouteNo="1" devices="tripinfo_h3426c1:1 routing_h3426c1:1" vType="default_016" speedFactor="0.84" vaporized=""/>
    <tripinfo id="h7032c2:3" depart="57863.00" departLane="315358244_1" departPos="5.10" departSpeed="0.00" departDelay="0.40" arrival="57964.00" arrivalLane="26677541_1" arrivalPos="152.31" arrivalSpeed="12.85" duration="101.00" routeLength="901.39" waitingTime="0.00" waitingCount="0" stopTime="0.00" timeLoss="13.94" rerouteNo="1" devices="tripinfo_h7032c2:3 routing_h7032c2:3" vType="default_016" speedFactor="0.96" vaporized=""/>
    <tripinfo id="carIn113750:1" depart="57961.00" departLane="24599188#0.94_1" departPos="5.10" departSpeed="0.00" departDelay="0.30" arrival="57989.00" arrivalLane="24599188#0.94_1" arrivalPos="186.59" arrivalSpeed="6.55" duration="28.00" routeLength="181.49" waitingTime="0.00" waitingCount="0" stopTime="0.00" timeLoss="3.57" rerouteNo="1" devices="tripinfo_carIn113750:1 routing_carIn113750:1" vType="default_016" speedFactor="0.91" vaporized=""/>
    <tripinfo id="h4391c1:3" depart="57997.00" departLane="-32978638#0_1" departPos="5.10" departSpeed="0.00" departDelay="0.90" arrival="58030.00" arrivalLane="-266565295#5_1" arrivalPos="172.76" arrivalSpeed="13.61" duration="33.00" routeLength="370.53" waitingTime="0.00" waitingCount="0" stopTime="0.00" timeLoss="6.16" rerouteNo="1" devices="tripinfo_h4391c1:3 routing_h4391c1:3" vType="default_016" speedFactor="1.03" vaporized=""/>
    <tripinfo id="h4574c1:3" depart="57907.00" departLane="-137454133#5_1" departPos="5.10" departSpeed="0.00" departDelay="0.00" arrival="58054.00" arrivalLane="201238729#3_1" arrivalPos="431.02" arrivalSpeed="15.82" duration="147.00" routeLength="979.11" waitingTime="67.00" waitingCount="1" stopTime="0.00" timeLoss="88.26" rerouteNo="1" devices="tripinfo_h4574c1:3 routing_h4574c1:3" vType="default_016" speedFactor="1.16" vaporized=""/>
    <tripinfo id="h7649c2:1" depart="57988.00" departLane="-447569998#1_1" departPos="5.10" departSpeed="0.00" departDelay="0.20" arrival="58057.00" arrivalLane="-315358244_1" arrivalPos="33.95" arrivalSpeed="13.09" duration="69.00" routeLength="706.49" waitingTime="0.00" waitingCount="0" stopTime="0.00" timeLoss="7.00" rerouteNo="1" devices="tripinfo_h7649c2:1 routing_h7649c2:1" vType="default_016" speedFactor="0.97" vaporized=""/>
    <tripinfo id="randUni22786:1" depart="58065.00" departLane="10425609#0_1" departPos="5.10" departSpeed="0.00" departDelay="0.00" arrival="58089.00" arrivalLane="201956810_1" arrivalPos="71.65" arrivalSpeed="13.82" duration="24.00" routeLength="255.78" waitingTime="0.00" waitingCount="0" stopTime="0.00" timeLoss="5.63" rerouteNo="1" devices="tripinfo_randUni22786:1 routing_randUni22786:1" vType="random_016" speedFactor="1.08" vaporized=""/>
    <tripinfo id="carIn99077:1" depart="58021.00" departLane="-447569998#1_1" departPos="5.10" departSpeed="0.00" departDelay="0.50" arrival="58092.00" arrivalLane="-315358244_2" arrivalPos="33.95" arrivalSpeed="12.51" duration="71.00" routeLength="706.49" waitingTime="0.00" waitingCount="0" stopTime="0.00" timeLoss="9.03" rerouteNo="1" devices="tripinfo_carIn99077:1 routing_carIn99077:1" vType="default_016" speedFactor="0.98" vaporized=""/>
    <tripinfo id="carIn130975:1" depart="58017.00" departLane="-447569998#1_1" departPos="5.10" departSpeed="0.00" departDelay="0.10" arrival="58095.00" arrivalLane="-315358244_1" arrivalPos="33.95" arrivalSpeed="11.21" duration="78.00" routeLength="706.49" waitingTime="0.00" waitingCount="0" stopTime="0.00" timeLoss="6.93" rerouteNo="1" devices="tripinfo_carIn130975:1 routing_carIn130975:1" vType="default_015" speedFactor="0.84" vaporized=""/>
    <tripinfo id="randUni1534:1" depart="57949.00" departLane="-447569998#1_1" departPos="5.10" departSpeed="0.00" departDelay="0.30" arrival="58116.00" arrivalLane="40888356#0_1" arrivalPos="103.49" arrivalSpeed="14.71" duration="167.00" routeLength="2017.53" waitingTime="0.00" waitingCount="0" stopTime="0.00" timeLoss="15.21" rerouteNo="1" devices="tripinfo_randUni1534:1 routing_randUni1534:1" vType="random_016" speedFactor="1.08" vaporized=""/>
    <tripinfo id="h1626c2:3" depart="57984.00" departLane="201201935#0_1" departPos="5.10" departSpeed="0.00" departDelay="0.50" arrival="58129.00" arrivalLane="-32395288#1_0" arrivalPos="21.79" arrivalSpeed="2.44" duration="145.00" routeLength="952.80" waitingTime="0.00" waitingCount="0" stopTime="0.00" timeLoss="21.10" rerouteNo="1" devices="tripinfo_h1626c2:3 routing_h1626c2:3" vType="default_016" speedFactor="0.92" vaporized=""/>
    <tripinfo id="h11737c1:1" depart="57665.00" departLane="272042143_1" departPos="5.10" departSpeed="0.00" departDelay="1.50" arrival="58146.00" arrivalLane="-315358254#1_1" arrivalPos="137.16" arrivalSpeed="13.81" duration="481.00" routeLength="1596.88" waitingTime="343.00" waitingCount="2" stopTime="0.00" timeLoss="371.30" rerouteNo="1" devices="tripinfo_h11737c1:1 routing_h11737c1:1" vType="default_016" speedFactor="1.06" vaporized=""/>
    <tripinfo id="carIn126288:1" depart="57674.00" departLane="272042143_1" departPos="5.10" departSpeed="0.00" departDelay="0.00" arrival="58148.00" arrivalLane="-315358254#1_1" arrivalPos="137.16" arrivalSpeed="14.68" duration="474.00" routeLength="1596.88" waitingTime="340.00" waitingCount="2" stopTime="0.00" timeLoss="366.02" rerouteNo="1" devices="tripinfo_carIn126288:1 routing_carIn126288:1" vType="default_016" speedFactor="1.08" vaporized=""/>
    <tripinfo id="h4794c2:1" depart="58074.00" departLane="-224892361#8_1" departPos="5.10" departSpeed="0.00" departDelay="0.00" arrival="58148.00" arrivalLane="306240162#0_0" arrivalPos="220.43" arrivalSpeed="13.37" duration="74.00" routeLength="979.18" waitingTime="0.00" waitingCount="0" stopTime="0.00" timeLoss="11.23" rerouteNo="1" devices="tripinfo_h4794c2:1 routing_h4794c2:1" vType="default_016" speedFactor="0.81" vaporized=""/>
    <tripinfo id="h17549c1:1" depart="57680.00" departLane="-447569998#1_1" departPos="5.10" departSpeed="0.00" departDelay="0.00" arrival="58155.00" arrivalLane="-315358254#1_1" arrivalPos="137.16" arrivalSpeed="12.12" duration="475.00" routeLength="1746.60" waitingTime="298.00" waitingCount="2" stopTime="0.00" timeLoss="325.77" rerouteNo="1" devices="tripinfo_h17549c1:1 routing_h17549c1:1" vType="default_016" speedFactor="0.92" vaporized=""/>
    <tripinfo id="randUni3548:1" depart="57726.00" departLane="-447569998#1_1" departPos="5.10" departSpeed="0.00" departDelay="0.00" arrival="58159.00" arrivalLane="-315358254#1_1" arrivalPos="137.16" arrivalSpeed="12.16" duration="433.00" routeLength="1746.60" waitingTime="252.00" waitingCount="2" stopTime="0.00" timeLoss="280.74" rerouteNo="1" devices="tripinfo_randUni3548:1 routing_randUni3548:1" vType="random_016" speedFactor="0.90" vaporized=""/>
    <tripinfo id="carIn112995:1" depart="57937.00" departLane="10425609#0_1" departPos="5.10" departSpeed="0.00" departDelay="0.70" arrival="58159.00" arrivalLane="18809673#0_1" arrivalPos="473.56" arrivalSpeed="11.73" duration="222.00" routeLength="1970.06" waitingTime="4.00" waitingCount="1" stopTime="0.00" timeLoss="28.29" rerouteNo="1" devices="tripinfo_carIn112995:1 routing_carIn112995:1" vType="default_016" speedFactor="0.85" vaporized=""/>
    <tripinfo id="h19940c1:1" depart="57945.00" departLane="10425609#0_1" departPos="5.10" departSpeed="0.00" departDelay="0.30" arrival="58161.00" arrivalLane="18809673#0_1" arrivalPos="473.56" arrivalSpeed="13.20" duration="216.00" routeLength="1970.06" waitingTime="4.00" waitingCount="1" stopTime="0.00" timeLoss="55.97" rerouteNo="1" devices="tripinfo_h19940c1:1 routing_h19940c1:1" vType="default_016" speedFactor="1.03" vaporized=""/>
    <tripinfo id="h15631c1:1" depart="57962.00" departLane="10425609#0_1" departPos="5.10" departSpeed="0.00" departDelay="0.30" arrival="58162.00" arrivalLane="18809673#0_1" arrivalPos="473.56" arrivalSpeed="12.43" duration="200.00" routeLength="1970.06" waitingTime="1.00" waitingCount="1" stopTime="0.00" timeLoss="31.93" rerouteNo="1" devices="tripinfo_h15631c1:1 routing_h15631c1:1" vType="default_016" speedFactor="0.98" vaporized=""/>
    <tripinfo id="carIn9695:1" depart="57822.00" departLane="272042143_1" departPos="5.10" departSpeed="0.00" departDelay="0.80" arrival="58165.00" arrivalLane="-315358254#1_1" arrivalPos="137.16" arrivalSpeed="14.55" duration="343.00" routeLength="1596.88" waitingTime="211.00" waitingCount="1" stopTime="0.00" timeLoss="232.96" rerouteNo="1" devices="tripinfo_carIn9695:1 routing_carIn9695:1" vType="default_016" speedFactor="1.07" vaporized=""/>
    <tripinfo id="carIn82298:1" depart="57783.00" departLane="-447569998#1_1" departPos="5.10" departSpeed="0.00" departDelay="0.60" arrival="58170.00" arrivalLane="-315358254#1_1" arrivalPos="137.16" arrivalSpeed="13.95" duration="387.00" routeLength="1746.60" waitingTime="216.00" waitingCount="3" stopTime="0.00" timeLoss="251.15" rerouteNo="1" devices="tripinfo_carIn82298:1 routing_carIn82298:1" vType="default_016" speedFactor="1.01" vaporized=""/>
    <tripinfo id="carIn13443:1" depart="57729.00" departLane="272042143_1" departPos="5.10" departSpeed="0.00" departDelay="0.80" arrival="58178.00" arrivalLane="399835085#1_1" arrivalPos="212.23" arrivalSpeed="7.37" duration="449.00" routeLength="1757.45" waitingTime="280.00" waitingCount="2" stopTime="0.00" timeLoss="308.61" rerouteNo="1" devices="tripinfo_carIn13443:1 routing_carIn13443:1" vType="default_016" speedFactor="1.01" vaporized=""/>
    <tripinfo id="h8701c1:1" depart="58062.00" departLane="24634510#1_1" departPos="5.10" departSpeed="0.00" departDelay="0.00" arrival="58178.00" arrivalLane="272042145_1" arrivalPos="234.87" arrivalSpeed="13.34" duration="116.00" routeLength="1502.87" waitingTime="0.00" waitingCount="0" stopTime="0.00" timeLoss="11.49" rerouteNo="1" devices="tripinfo_h8701c1:1 routing_h8701c1:1" vType="default_016" speedFactor="1.05" vaporized=""/>
    <tripinfo id="carIn118538:1" depart="57683.00" departLane="-447569998#1_1" departPos="5.10" departSpeed="0.00" departDelay="1.00" arrival="58180.00" arrivalLane="399835085#1_1" arrivalPos="212.23" arrivalSpeed="8.93" duration="497.00" routeLength="1907.17" waitingTime="296.00" waitingCount="2" stopTime="0.00" timeLoss="349.57" rerouteNo="1" devices="tripinfo_carIn118538:1 routing_carIn118538:1" vType="default_016" speedFactor="1.10" vaporized=""/>
    <tripinfo id="carIn90834:1" depart="57934.00" departLane="272042143_1" departPos="5.10" departSpeed="0.00" departDelay="0.30" arrival="58185.00" arrivalLane="-315358254#1_1" arrivalPos="137.16" arrivalSpeed="10.53" duration="251.00" routeLength="1596.88" waitingTime="94.00" waitingCount="1" stopTime="0.00" timeLoss="113.56" rerouteNo="1" devices="tripinfo_carIn90834:1 routing_carIn90834:1" vType="default_016" speedFactor="0.85" vaporized=""/>
    <tripinfo id="h5979c1:5" depart="57669.00" departLane="399835085#1_1" departPos="5.10" departSpeed="0.00" departDelay="0.00" arrival="58187.00" arrivalLane="-315358254#1_1" arrivalPos="137.16" arrivalSpeed="12.15" duration="518.00" routeLength="659.33" waitingTime="422.00" waitingCount="2" stopTime="0.00" timeLoss="439.53" rerouteNo="1" devices="tripinfo_h5979c1:5 routing_h5979c1:5" vType="default_016" speedFactor="0.94" vaporized=""/>
    <tripinfo id="carIn121351:1" depart="57755.00" departLane="-447569998#1_1" departPos="5.10" departSpeed="0.00" departDelay="0.30" arrival="58189.00" arrivalLane="399835085#1_1" arrivalPos="212.23" arrivalSpeed="7.09" duration="434.00" routeLength="1907.17" waitingTime="239.00" waitingCount="2" stopTime="0.00" timeLoss="266.93" rerouteNo="1" devices="tripinfo_carIn121351:1 routing_carIn121351:1" vType="default_015" speedFactor="0.97" vaporized=""/>
    <tripinfo id="carIn84735:1" depart="57969.00" departLane="10425609#0_1" departPos="5.10" departSpeed="0.00" departDelay="0.60" arrival="58193.00" arrivalLane="18809673#0_1" arrivalPos="473.56" arrivalSpeed="13.25" duration="224.00" routeLength="1970.06" waitingTime="30.00" waitingCount="1" stopTime="0.00" timeLoss="57.01" rerouteNo="1" devices="tripinfo_carIn84735:1 routing_carIn84735:1" vType="default_016" speedFactor="0.99" vaporized=""/>
    <tripinfo id="carIn72005:1" depart="57978.00" departLane="10425609#0_1" departPos="5.10" departSpeed="0.00" departDelay="0.70" arrival="58201.00" arrivalLane="18809673#0_1" arrivalPos="473.56" arrivalSpeed="11.66" duration="223.00" routeLength="1970.06" waitingTime="4.00" waitingCount="1" stopTime="0.00" timeLoss="29.12" rerouteNo="1" devices="tripinfo_carIn72005:1 routing_carIn72005:1" vType="default_016" speedFactor="0.85" vaporized=""/>
    <tripinfo id="carIn11789:1" depart="57981.00" departLane="10425609#0_1" departPos="5.10" departSpeed="0.00" departDelay="0.40" arrival="58202.00" arrivalLane="18809673#0_1" arrivalPos="473.56" arrivalSpeed="12.28" duration="221.00" routeLength="1970.06" waitingTime="4.00" waitingCount="2" stopTime="0.00" timeLoss="43.78" rerouteNo="1" devices="tripinfo_carIn11789:1 routing_carIn11789:1" vType="default_016" speedFactor="0.93" vaporized=""/>
    <tripinfo id="h5183c2:1" depart="58014.00" departLane="201238719#0_1" departPos="5.10" departSpeed="0.00" departDelay="0.00" arrival="58202.00" arrivalLane="32978638#0_1" arrivalPos="49.29" arrivalSpeed="13.82" duration="188.00" routeLength="2487.90" waitingTime="0.00" waitingCount="0" stopTime="0.00" timeLoss="23.33" rerouteNo="1" devices="tripinfo_h5183c2:1 routing_h5183c2:1" vType="default_016" speedFactor="1.08" vaporized=""/>
    <tripinfo id="carIn14532:1" depart="57743.00" departLane="272042143_1" departPos="5.10" departSpeed="0.00" departDelay="1.90" arrival="58210.00" arrivalLane="399835085#1_1" arrivalPos="212.23" arrivalSpeed="5.56" duration="467.00" routeLength="1757.45" waitingTime="232.00" waitingCount="1" stopTime="0.00" timeLoss="261.51" rerouteNo="1" devices="tripinfo_carIn14532:1 routing_carIn14532:1" vType="default_016" speedFactor="0.69" vaporized=""/>
    <tripinfo id="carIn76994:1" depart="57828.00" departLane="272042143_1" departPos="5.10" departSpeed="0.00" departDelay="2.80" arrival="58212.00" arrivalLane="399835085#1_1" arrivalPos="212.23" arrivalSpeed="9.68" duration="384.00" routeLength="1757.45" waitingTime="211.00" waitingCount="1" stopTime="0.00" timeLoss="264.37" rerouteNo="1" devices="tripinfo_carIn76994:1 routing_carIn76994:1" vType="default_016" speedFactor="1.18" vaporized=""/>
    <tripinfo id="h8449c1:3" depart="58116.00" departLane="176550249#3_1" departPos="5.10" departSpeed="0.00" departDelay="0.50" arrival="58214.00" arrivalLane="272042145_1" arrivalPos="234.87" arrivalSpeed="11.19" duration="98.00" routeLength="1113.61" waitingTime="0.00" waitingCount="0" stopTime="0.00" timeLoss="7.59" rerouteNo="1" devices="tripinfo_h8449c1:3 routing_h8449c1:3" vType="default_016" speedFactor="0.89" vaporized=""/>
    <tripinfo id="carIn42952:1" depart="57837.00" departLane="272042143_1" departPos="5.10" departSpeed="0.00" departDelay="7.00" arrival="58215.00" arrivalLane="399835085#1_1" arrivalPos="212.23" arrivalSpeed="8.19" duration="378.00" routeLength="1757.45" waitingTime="199.00" waitingCount="1" stopTime="0.00" timeLoss="238.04" rerouteNo="1" devices="tripinfo_carIn42952:1 routing_carIn42952:1" vType="default_016" speedFactor="1.02" vaporized=""/>
    <tripinfo id="h3823c2:3" depart="58116.00" departLane="-32978638#0_1" departPos="5.10" departSpeed="0.00" departDelay="0.00" arrival="58216.00" arrivalLane="24634414#2_1" arrivalPos="105.05" arrivalSpeed="6.74" duration="100.00" routeLength="833.31" waitingTime="0.00" waitingCount="0" stopTime="0.00" timeLoss="10.83" rerouteNo="1" devices="tripinfo_h3823c2:3 routing_h3823c2:3" vType="default_016" speedFactor="0.85" vaporized=""/>
    <tripinfo id="h8552c1:1" depart="58132.00" departLane="176550249#4_1" departPos="5.10" departSpeed="0.00" departDelay="0.40" arrival="58216.00" arrivalLane="272042145_1" arrivalPos="234.87" arrivalSpeed="13.01" duration="84.00" routeLength="911.47" waitingTime="0.00" waitingCount="0" stopTime="0.00" timeLoss="14.81" rerouteNo="1" devices="tripinfo_h8552c1:1 routing_h8552c1:1" vType="default_016" speedFactor="0.95" vaporized=""/>
    <tripinfo id="h13496c1:1" depart="57843.00" departLane="272042143_1" departPos="5.10" departSpeed="0.00" departDelay="9.80" arrival="58217.00" arrivalLane="399835085#1_1" arrivalPos="212.23" arrivalSpeed="7.47" duration="374.00" routeLength="1757.45" waitingTime="189.00" waitingCount="1" stopTime="0.00" timeLoss="223.55" rerouteNo="1" devices="tripinfo_h13496c1:1 routing_h13496c1:1" vType="default_016" speedFactor="0.94" vaporized=""/>
    <tripinfo id="h16288c1:3" depart="58210.00" departLane="-32978638#0_1" departPos="5.10" departSpeed="0.00" departDelay="3.20" arrival="58244.00" arrivalLane="-266565295#5_1" arrivalPos="172.76" arrivalSpeed="13.17" duration="34.00" routeLength="370.53" waitingTime="0.00" waitingCount="0" stopTime="0.00" timeLoss="5.88" rerouteNo="1" devices="tripinfo_h16288c1:3 routing_h16288c1:3" vType="default_016" speedFactor="0.98" vaporized=""/>
    <tripinfo id="h3249c2:1" depart="58018.00" departLane="24634513#0_0" departPos="5.10" departSpeed="0.00" departDelay="0.00" arrival="58262.00" arrivalLane="272042145_1" arrivalPos="234.87" arrivalSpeed="11.97" duration="244.00" routeLength="1693.33" waitingTime="0.00" waitingCount="0" stopTime="0.00" timeLoss="41.10" rerouteNo="1" devices="tripinfo_h3249c2:1 routing_h3249c2:1" vType="default_016" speedFactor="0.94" vaporized=""/>
    <tripinfo id="h8230c1:3" depart="58155.00" departLane="-24634505_1" departPos="5.10" departSpeed="0.00" departDelay="0.00" arrival="58265.00" arrivalLane="272042145_1" arrivalPos="234.87" arrivalSpeed="11.95" duration="110.00" routeLength="882.67" waitingTime="0.00" waitingCount="0" stopTime="0.00" timeLoss="13.82" rerouteNo="1" devices="tripinfo_h8230c1:3 routing_h8230c1:3" vType="default_016" speedFactor="0.94" vaporized=""/>
    <tripinfo id="randUni11417:1" depart="57989.00" departLane="10425609#0_1" departPos="5.10" departSpeed="0.00" departDelay="0.70" arrival="58268.00" arrivalLane="18809673#0_1" arrivalPos="473.56" arrivalSpeed="15.43" duration="279.00" routeLength="1970.06" waitingTime="71.00" waitingCount="2" stopTime="0.00" timeLoss="134.02" rerouteNo="1" devices="tripinfo_randUni11417:1 routing_randUni11417:1" vType="random_016" speedFactor="1.13" vaporized=""/>
    <tripinfo id="h10915c1:1" depart="58067.00" departLane="10425609#0_1" departPos="5.10" departSpeed="0.00" departDelay="0.30" arrival="58280.00" arrivalLane="18809673#0_1" arrivalPos="473.56" arrivalSpeed="11.41" duration="213.00" routeLength="1970.06" waitingTime="1.00" waitingCount="1" stopTime="0.00" timeLoss="24.62" rerouteNo="1" devices="tripinfo_h10915c1:1 routing_h10915c1:1" vType="default_016" speedFactor="0.88" vaporized=""/>
    <tripinfo id="carIn71779:1" depart="58124.00" departLane="272042143_1" departPos="5.10" departSpeed="0.00" departDelay="1.60" arrival="58293.00" arrivalLane="399835085#1_1" arrivalPos="212.23" arrivalSpeed="7.58" duration="169.00" routeLength="1757.45" waitingTime="0.00" waitingCount="0" stopTime="0.00" timeLoss="15.58" rerouteNo="1" devices="tripinfo_carIn71779:1 routing_carIn71779:1" vType="default_016" speedFactor="0.92" vaporized=""/>
    <tripinfo id="h923c1:1" depart="58051.00" departLane="10425609#0_1" departPos="5.10" departSpeed="0.00" departDelay="0.70" arrival="58303.00" arrivalLane="-218647954_1" arrivalPos="72.82" arrivalSpeed="2.33" duration="252.00" routeLength="1916.62" waitingTime="0.00" waitingCount="0" stopTime="0.00" timeLoss="40.08" rerouteNo="1" devices="tripinfo_h923c1:1 routing_h923c1:1" vType="default_016" speedFactor="0.90" vaporized=""/>
    <tripinfo id="h21566c2:1" depart="58094.00" departLane="10425609#0_1" departPos="5.10" departSpeed="0.00" departDelay="0.60" arrival="58308.00" arrivalLane="18809673#0_1" arrivalPos="473.56" arrivalSpeed="11.94" duration="214.00" routeLength="1970.06" waitingTime="1.00" waitingCount="1" stopTime="0.00" timeLoss="25.93" rerouteNo="1" devices="tripinfo_h21566c2:1 routing_h21566c2:1" vType="default_016" speedFactor="0.88" vaporized=""/>
    <tripinfo id="carIn88113:1" depart="58098.00" departLane="10425609#0_1" departPos="5.10" departSpeed="0.00" departDelay="0.20" arrival="58310.00" arrivalLane="18809673#0_1" arrivalPos="473.56" arrivalSpeed="11.44" duration="212.00" routeLength="1970.06" waitingTime="1.00" waitingCount="1" stopTime="0.00" timeLoss="28.99" rerouteNo="1" devices="tripinfo_carIn88113:1 routing_carIn88113:1" vType="default_016" speedFactor="0.90" vaporized=""/>