<?xml version="1.0" encoding="UTF-8"?>

<!-- generated on 2023-08-30 22:13:26 by Eclipse SUMO libsumo Version 1.18.0
<configuration xmlns:xsi="http://www.w3.org/2001/XMLSchema-instance" xsi:noNamespaceSchemaLocation="http://sumo.dlr.de/xsd/libsumoConfiguration.xsd">

    <input>
        <net-file value="/home/stefan/RESCO/./environments/ingolstadt21/ingolstadt21.net.xml"/>
        <route-files value="/home/stefan/RESCO/./environments/ingolstadt21/ingolstadt21.rou.xml"/>
    </input>

    <output>
        <tripinfo-output value="/home/stefan/results/RAINBOW-tr0-ingolstadt21-21-drq_norm-wait_norm/tripinfo_90.xml"/>
        <tripinfo-output.write-unfinished value="true"/>
    </output>

    <time>
        <begin value="57600"/>
        <end value="61200"/>
    </time>

    <processing>
        <time-to-teleport value="-1"/>
    </processing>

    <report>
        <no-warnings value="True"/>
        <no-step-log value="True"/>
    </report>

    <random_number>
        <random value="true"/>
    </random_number>

</configuration>
-->

<tripinfos xmlns:xsi="http://www.w3.org/2001/XMLSchema-instance" xsi:noNamespaceSchemaLocation="http://sumo.dlr.de/xsd/tripinfo_file.xsd">
    <tripinfo id="carIn53971:1" depart="57640.00" departLane="272042143_1" departPos="5.10" departSpeed="0.00" departDelay="0.80" arrival="57691.00" arrivalLane="24634414#1_1" arrivalPos="162.19" arrivalSpeed="8.57" duration="51.00" routeLength="493.04" waitingTime="0.00" waitingCount="0" stopTime="0.00" timeLoss="8.63" rerouteNo="1" devices="tripinfo_carIn53971:1 routing_carIn53971:1" vType="default_016" speedFactor="1.07" vaporized=""/>
    <tripinfo id="h7800c1:5" depart="57696.00" departLane="-447569998#1_1" departPos="5.10" departSpeed="0.00" departDelay="0.00" arrival="57722.00" arrivalLane="-447569998#1_1" arrivalPos="180.76" arrivalSpeed="7.72" duration="26.00" routeLength="175.66" waitingTime="0.00" waitingCount="0" stopTime="0.00" timeLoss="3.55" rerouteNo="1" devices="tripinfo_h7800c1:5 routing_h7800c1:5" vType="default_016" speedFactor="0.95" vaporized=""/>
    <tripinfo id="h317c2:1" depart="57707.00" departLane="-32978638#0_1" departPos="5.10" departSpeed="0.00" departDelay="0.10" arrival="57742.00" arrivalLane="-266565295#5_1" arrivalPos="172.76" arrivalSpeed="13.53" duration="35.00" routeLength="370.53" waitingTime="0.00" waitingCount="0" stopTime="0.00" timeLoss="6.34" rerouteNo="1" devices="tripinfo_h317c2:1 routing_h317c2:1" vType="default_016" speedFactor="0.98" vaporized=""/>
    <tripinfo id="h3326c1:2" depart="57656.00" departLane="22716069#0_1" departPos="5.10" departSpeed="0.00" departDelay="0.00" arrival="57754.00" arrivalLane="24634517#13_1" arrivalPos="111.62" arrivalSpeed="15.53" duration="98.00" routeLength="1312.81" waitingTime="0.00" waitingCount="0" stopTime="0.00" timeLoss="16.58" rerouteNo="1" devices="tripinfo_h3326c1:2 routing_h3326c1:2" vType="default_016" speedFactor="1.21" vaporized=""/>
    <tripinfo id="h330c1:1" depart="57736.00" departLane="-32978638#0_1" departPos="5.10" departSpeed="0.00" departDelay="0.20" arrival="57770.00" arrivalLane="-266565295#5_1" arrivalPos="172.76" arrivalSpeed="13.21" duration="34.00" routeLength="370.53" waitingTime="0.00" waitingCount="0" stopTime="0.00" timeLoss="6.62" rerouteNo="1" devices="tripinfo_h330c1:1 routing_h330c1:1" vType="default_016" speedFactor="0.99" vaporized=""/>
    <tripinfo id="carIn107282:1" depart="57749.00" departLane="-447569998#1_1" departPos="5.10" departSpeed="0.00" departDelay="0.00" arrival="57804.00" arrivalLane="315358242#0_1" arrivalPos="165.37" arrivalSpeed="12.15" duration="55.00" routeLength="448.50" waitingTime="0.00" waitingCount="0" stopTime="0.00" timeLoss="8.59" rerouteNo="1" devices="tripinfo_carIn107282:1 routing_carIn107282:1" vType="default_016" speedFactor="0.91" vaporized=""/>
    <tripinfo id="carIn27009:1" depart="57673.00" departLane="-447569998#1_1" departPos="5.10" departSpeed="0.00" departDelay="0.50" arrival="57809.00" arrivalLane="-26677539_1" arrivalPos="152.75" arrivalSpeed="4.83" duration="136.00" routeLength="699.63" waitingTime="0.00" waitingCount="0" stopTime="0.00" timeLoss="19.00" rerouteNo="1" devices="tripinfo_carIn27009:1 routing_carIn27009:1" vType="default_015" speedFactor="0.71" vaporized=""/>
    <tripinfo id="randUni31145:1" depart="57814.00" departLane="10425609#0_1" departPos="5.10" departSpeed="0.00" departDelay="0.30" arrival="57852.00" arrivalLane="201956810_1" arrivalPos="71.65" arrivalSpeed="12.34" duration="38.00" routeLength="255.78" waitingTime="6.00" waitingCount="1" stopTime="0.00" timeLoss="15.86" rerouteNo="1" devices="tripinfo_randUni31145:1 routing_randUni31145:1" vType="random_016" speedFactor="0.91" vaporized=""/>
    <tripinfo id="randUni2407:1" depart="57820.00" departLane="10425609#0_1" departPos="5.10" departSpeed="0.00" departDelay="0.80" arrival="57860.00" arrivalLane="201956810_1" arrivalPos="71.65" arrivalSpeed="13.52" duration="40.00" routeLength="255.78" waitingTime="5.00" waitingCount="2" stopTime="0.00" timeLoss="21.28" rerouteNo="1" devices="tripinfo_randUni2407:1 routing_randUni2407:1" vType="random_016" speedFactor="1.04" vaporized=""/>
    <tripinfo id="randUni23028:1" depart="57884.00" departLane="124812856#0_1" departPos="5.10" departSpeed="0.00" departDelay="0.10" arrival="57899.00" arrivalLane="201956810_1" arrivalPos="71.65" arrivalSpeed="13.23" duration="15.00" routeLength="134.91" waitingTime="0.00" waitingCount="0" stopTime="0.00" timeLoss="4.05" rerouteNo="1" devices="tripinfo_randUni23028:1 routing_randUni23028:1" vType="random_016" speedFactor="0.95" vaporized=""/>
    <tripinfo id="carIn12775:1" depart="57676.00" departLane="10425609#0_1" departPos="5.10" departSpeed="0.00" departDelay="0.60" arrival="57906.00" arrivalLane="18809673#0_1" arrivalPos="473.56" arrivalSpeed="12.29" duration="230.00" routeLength="1959.45" waitingTime="44.00" waitingCount="2" stopTime="0.00" timeLoss="68.83" rerouteNo="1" devices="tripinfo_carIn12775:1 routing_carIn12775:1" vType="default_016" speedFactor="0.90" vaporized=""/>
    <tripinfo id="carIn29676:1" depart="57789.00" departLane="-160314345#5_1" departPos="5.10" departSpeed="0.00" departDelay="0.00" arrival="57921.00" arrivalLane="-24634505_1" arrivalPos="48.18" arrivalSpeed="9.81" duration="132.00" routeLength="1162.34" waitingTime="1.00" waitingCount="1" stopTime="0.00" timeLoss="18.08" rerouteNo="1" devices="tripinfo_carIn29676:1 routing_carIn29676:1" vType="default_016" speedFactor="0.79" vaporized=""/>
    <tripinfo id="h6846c2:1" depart="57741.00" departLane="26677213#0_1" departPos="5.10" departSpeed="0.00" departDelay="0.00" arrival="57938.00" arrivalLane="386687235_1" arrivalPos="80.84" arrivalSpeed="10.71" duration="197.00" routeLength="1412.24" waitingTime="1.00" waitingCount="1" stopTime="0.00" timeLoss="29.12" rerouteNo="1" devices="tripinfo_h6846c2:1 routing_h6846c2:1" vType="default_016" speedFactor="0.82" vaporized=""/>
    <tripinfo id="randUni16001:1" depart="57912.00" departLane="10425609#0_1" departPos="5.10" departSpeed="0.00" departDelay="0.30" arrival="57939.00" arrivalLane="201956810_1" arrivalPos="71.65" arrivalSpeed="12.39" duration="27.00" routeLength="255.78" waitingTime="0.00" waitingCount="0" stopTime="0.00" timeLoss="5.80" rerouteNo="1" devices="tripinfo_randUni16001:1 routing_randUni16001:1" vType="random_016" speedFactor="0.94" vaporized=""/>
    <tripinfo id="randUni11215:1" depart="57953.00" departLane="124812856#0_1" departPos="5.10" departSpeed="0.00" departDelay="0.30" arrival="57968.00" arrivalLane="201956810_1" arrivalPos="71.65" arrivalSpeed="12.76" duration="15.00" routeLength="134.91" waitingTime="0.00" waitingCount="0" stopTime="0.00" timeLoss="4.26" rerouteNo="1" devices="tripinfo_randUni11215:1 routing_randUni11215:1" vType="random_016" speedFactor="0.97" vaporized=""/>
    <tripinfo id="h21699c2:1" depart="57890.00" departLane="-32978638#0_1" departPos="5.10" departSpeed="0.00" departDelay="1.90" arrival="57979.00" arrivalLane="-315358242#1_1" arrivalPos="93.35" arrivalSpeed="12.44" duration="89.00" routeLength="1000.41" waitingTime="0.00" waitingCount="0" stopTime="0.00" timeLoss="8.59" rerouteNo="1" devices="tripinfo_h21699c2:1 routing_h21699c2:1" vType="default_016" speedFactor="0.92" vaporized=""/>
    <tripinfo id="carIn113750:1" depart="57961.00" departLane="24599188#0.94_1" departPos="5.10" departSpeed="0.00" departDelay="0.30" arrival="57992.00" arrivalLane="24599188#0.94_1" arrivalPos="186.59" arrivalSpeed="7.65" duration="31.00" routeLength="181.49" waitingTime="0.00" waitingCount="0" stopTime="0.00" timeLoss="8.99" rerouteNo="1" devices="tripinfo_carIn113750:1 routing_carIn113750:1" vType="default_016" speedFactor="1.01" vaporized=""/>
    <tripinfo id="carIn16842:1" depart="57744.00" departLane="10425609#0_1" departPos="5.10" departSpeed="0.00" departDelay="0.40" arrival="57993.00" arrivalLane="18809673#0_1" arrivalPos="473.56" arrivalSpeed="13.22" duration="249.00" routeLength="1959.45" waitingTime="67.00" waitingCount="4" stopTime="0.00" timeLoss="100.96" rerouteNo="1" devices="tripinfo_carIn16842:1 routing_carIn16842:1" vType="default_016" speedFactor="0.98" vaporized=""/>
    <tripinfo id="carIn129809:1" depart="57729.00" departLane="-447569998#1_1" departPos="5.10" departSpeed="0.00" departDelay="1.00" arrival="58003.00" arrivalLane="-315358244_1" arrivalPos="33.95" arrivalSpeed="13.47" duration="274.00" routeLength="706.49" waitingTime="195.00" waitingCount="3" stopTime="0.00" timeLoss="215.92" rerouteNo="1" devices="tripinfo_carIn129809:1 routing_carIn129809:1" vType="default_015" speedFactor="1.04" vaporized=""/>
    <tripinfo id="carIn8642:1" depart="57774.00" departLane="-447569998#1_1" departPos="5.10" departSpeed="0.00" departDelay="0.90" arrival="58004.00" arrivalLane="-315358244_2" arrivalPos="33.95" arrivalSpeed="13.64" duration="230.00" routeLength="706.49" waitingTime="155.00" waitingCount="1" stopTime="0.00" timeLoss="168.66" rerouteNo="1" devices="tripinfo_carIn8642:1 routing_carIn8642:1" vType="default_016" speedFactor="1.00" vaporized=""/>
    <tripinfo id="carIn99509:1" depart="57720.00" departLane="-32978638#0_1" departPos="5.10" departSpeed="0.00" departDelay="0.20" arrival="58005.00" arrivalLane="-315358244_1" arrivalPos="33.95" arrivalSpeed="13.75" duration="285.00" routeLength="1785.24" waitingTime="139.00" waitingCount="2" stopTime="0.00" timeLoss="161.03" rerouteNo="1" devices="tripinfo_carIn99509:1 routing_carIn99509:1" vType="default_015" speedFactor="1.05" vaporized=""/>
    <tripinfo id="carIn70533:1" depart="57812.00" departLane="-447569998#1_1" departPos="5.10" departSpeed="0.00" departDelay="0.10" arrival="58005.00" arrivalLane="-315358244_2" arrivalPos="33.95" arrivalSpeed="13.49" duration="193.00" routeLength="706.49" waitingTime="117.00" waitingCount="1" stopTime="0.00" timeLoss="131.70" rerouteNo="1" devices="tripinfo_carIn70533:1 routing_carIn70533:1" vType="default_016" speedFactor="0.99" vaporized=""/>
    <tripinfo id="carIn63848:1" depart="57841.00" departLane="-447569998#1_1" departPos="5.10" departSpeed="0.00" departDelay="0.80" arrival="58007.00" arrivalLane="-315358244_2" arrivalPos="33.95" arrivalSpeed="12.65" duration="166.00" routeLength="706.49" waitingTime="84.00" waitingCount="2" stopTime="0.00" timeLoss="104.74" rerouteNo="1" devices="tripinfo_carIn63848:1 routing_carIn63848:1" vType="default_016" speedFactor="0.99" vaporized=""/>
    <tripinfo id="carIn13353:1" depart="57838.00" departLane="-447569998#1_1" departPos="5.10" departSpeed="0.00" departDelay="0.30" arrival="58008.00" arrivalLane="-315358244_1" arrivalPos="33.95" arrivalSpeed="11.41" duration="170.00" routeLength="706.49" waitingTime="85.00" waitingCount="1" stopTime="0.00" timeLoss="101.20" rerouteNo="1" devices="tripinfo_carIn13353:1 routing_carIn13353:1" vType="default_016" speedFactor="0.88" vaporized=""/>
    <tripinfo id="h4391c1:3" depart="57997.00" departLane="-32978638#0_1" departPos="5.10" departSpeed="0.00" departDelay="0.90" arrival="58033.00" arrivalLane="-266565295#5_1" arrivalPos="172.76" arrivalSpeed="11.76" duration="36.00" routeLength="370.53" waitingTime="0.00" waitingCount="0" stopTime="0.00" timeLoss="5.01" rerouteNo="1" devices="tripinfo_h4391c1:3 routing_h4391c1:3" vType="default_016" speedFactor="0.88" vaporized=""/>
    <tripinfo id="carIn72316:1" depart="57826.00" departLane="10425609#0_1" departPos="5.10" departSpeed="0.00" departDelay="0.50" arrival="58045.00" arrivalLane="18809673#0_1" arrivalPos="473.56" arrivalSpeed="12.14" duration="219.00" routeLength="1959.45" waitingTime="37.00" waitingCount="3" stopTime="0.00" timeLoss="64.93" rerouteNo="1" devices="tripinfo_carIn72316:1 routing_carIn72316:1" vType="default_016" speedFactor="0.94" vaporized=""/>
    <tripinfo id="carIn64958:1" depart="57857.00" departLane="10425609#0_1" departPos="5.10" departSpeed="0.00" departDelay="0.60" arrival="58050.00" arrivalLane="18809673#0_1" arrivalPos="473.56" arrivalSpeed="11.60" duration="193.00" routeLength="1959.45" waitingTime="2.00" waitingCount="1" stopTime="0.00" timeLoss="25.89" rerouteNo="1" devices="tripinfo_carIn64958:1 routing_carIn64958:1" vType="default_016" speedFactor="0.87" vaporized=""/>
    <tripinfo id="carIn133015:1" depart="57864.00" departLane="10425609#0_1" departPos="5.10" departSpeed="0.00" departDelay="0.00" arrival="58051.00" arrivalLane="18809673#0_1" arrivalPos="473.56" arrivalSpeed="13.98" duration="187.00" routeLength="1959.45" waitingTime="4.00" waitingCount="1" stopTime="0.00" timeLoss="49.41" rerouteNo="1" devices="tripinfo_carIn133015:1 routing_carIn133015:1" vType="default_016" speedFactor="1.05" vaporized=""/>
    <tripinfo id="h7649c2:1" depart="57988.00" departLane="-447569998#1_1" departPos="5.10" departSpeed="0.00" departDelay="0.20" arrival="58062.00" arrivalLane="-315358244_1" arrivalPos="33.95" arrivalSpeed="12.52" duration="74.00" routeLength="706.49" waitingTime="0.00" waitingCount="0" stopTime="0.00" timeLoss="6.86" rerouteNo="1" devices="tripinfo_h7649c2:1 routing_h7649c2:1" vType="default_016" speedFactor="0.90" vaporized=""/>
    <tripinfo id="carIn130975:1" depart="58017.00" departLane="-447569998#1_1" departPos="5.10" departSpeed="0.00" departDelay="0.10" arrival="58085.00" arrivalLane="-315358244_1" arrivalPos="33.95" arrivalSpeed="13.03" duration="68.00" routeLength="706.49" waitingTime="0.00" waitingCount="0" stopTime="0.00" timeLoss="6.13" rerouteNo="1" devices="tripinfo_carIn130975:1 routing_carIn130975:1" vType="default_015" speedFactor="0.97" vaporized=""/>
    <tripinfo id="randUni22786:1" depart="58065.00" departLane="10425609#0_1" departPos="5.10" departSpeed="0.00" departDelay="0.00" arrival="58093.00" arrivalLane="201956810_1" arrivalPos="71.65" arrivalSpeed="12.11" duration="28.00" routeLength="255.78" waitingTime="0.00" waitingCount="0" stopTime="0.00" timeLoss="6.41" rerouteNo="1" devices="tripinfo_randUni22786:1 routing_randUni22786:1" vType="random_016" speedFactor="0.93" vaporized=""/>
    <tripinfo id="h7032c2:3" depart="57863.00" departLane="315358244_1" departPos="5.10" departSpeed="0.00" departDelay="0.40" arrival="58101.00" arrivalLane="26677541_1" arrivalPos="152.31" arrivalSpeed="12.78" duration="238.00" routeLength="901.39" waitingTime="133.00" waitingCount="1" stopTime="0.00" timeLoss="155.00" rerouteNo="1" devices="tripinfo_h7032c2:3 routing_h7032c2:3" vType="default_016" speedFactor="1.00" vaporized=""/>
    <tripinfo id="h5801c1:1" depart="57970.00" departLane="-26677216#0_1" departPos="5.10" departSpeed="0.00" departDelay="0.00" arrival="58104.00" arrivalLane="386687235_1" arrivalPos="80.84" arrivalSpeed="15.66" duration="134.00" routeLength="1335.31" waitingTime="0.00" waitingCount="0" stopTime="0.00" timeLoss="15.84" rerouteNo="1" devices="tripinfo_h5801c1:1 routing_h5801c1:1" vType="default_016" speedFactor="1.13" vaporized=""/>
    <tripinfo id="carIn99077:1" depart="58021.00" departLane="-447569998#1_1" departPos="5.10" departSpeed="0.00" departDelay="0.50" arrival="58104.00" arrivalLane="-315358244_1" arrivalPos="33.95" arrivalSpeed="10.95" duration="83.00" routeLength="706.49" waitingTime="0.00" waitingCount="0" stopTime="0.00" timeLoss="7.97" rerouteNo="1" devices="tripinfo_carIn99077:1 routing_carIn99077:1" vType="default_016" speedFactor="0.80" vaporized=""/>
    <tripinfo id="h1626c2:3" depart="57984.00" departLane="201201935#0_1" departPos="5.10" departSpeed="0.00" departDelay="0.50" arrival="58111.00" arrivalLane="-32395288#1_0" arrivalPos="21.79" arrivalSpeed="2.22" duration="127.00" routeLength="952.80" waitingTime="0.00" waitingCount="0" stopTime="0.00" timeLoss="18.29" rerouteNo="1" devices="tripinfo_h1626c2:3 routing_h1626c2:3" vType="default_016" speedFactor="1.04" vaporized=""/>
    <tripinfo id="h4574c1:3" depart="57907.00" departLane="-137454133#5_1" departPos="5.10" departSpeed="0.00" departDelay="0.00" arrival="58116.00" arrivalLane="201238729#3_1" arrivalPos="431.02" arrivalSpeed="11.81" duration="209.00" routeLength="979.11" waitingTime="120.00" waitingCount="1" stopTime="0.00" timeLoss="136.61" rerouteNo="1" devices="tripinfo_h4574c1:3 routing_h4574c1:3" vType="default_016" speedFactor="0.94" vaporized=""/>
    <tripinfo id="h17593c1:1" depart="57907.00" departLane="10425609#0_1" departPos="5.10" departSpeed="0.00" departDelay="0.90" arrival="58120.00" arrivalLane="18809673#0_1" arrivalPos="473.56" arrivalSpeed="14.16" duration="213.00" routeLength="1959.45" waitingTime="58.00" waitingCount="1" stopTime="0.00" timeLoss="76.93" rerouteNo="1" devices="tripinfo_h17593c1:1 routing_h17593c1:1" vType="default_016" speedFactor="1.07" vaporized=""/>
    <tripinfo id="carIn112995:1" depart="57937.00" departLane="10425609#0_1" departPos="5.10" departSpeed="0.00" departDelay="0.70" arrival="58122.00" arrivalLane="18809673#0_1" arrivalPos="473.56" arrivalSpeed="14.66" duration="185.00" routeLength="1959.45" waitingTime="28.00" waitingCount="2" stopTime="0.00" timeLoss="52.73" rerouteNo="1" devices="tripinfo_carIn112995:1 routing_carIn112995:1" vType="default_016" speedFactor="1.10" vaporized=""/>
    <tripinfo id="h19940c1:1" depart="57947.00" departLane="10425609#0_1" departPos="5.10" departSpeed="0.00" departDelay="2.30" arrival="58124.00" arrivalLane="18809673#0_1" arrivalPos="473.56" arrivalSpeed="15.32" duration="177.00" routeLength="1959.45" waitingTime="18.00" waitingCount="2" stopTime="0.00" timeLoss="48.87" rerouteNo="1" devices="tripinfo_h19940c1:1 routing_h19940c1:1" vType="default_016" speedFactor="1.14" vaporized=""/>
    <tripinfo id="h4794c2:1" depart="58074.00" departLane="-224892361#8_1" departPos="5.10" departSpeed="0.00" departDelay="0.00" arrival="58133.00" arrivalLane="306240162#0_0" arrivalPos="220.43" arrivalSpeed="17.87" duration="59.00" routeLength="979.18" waitingTime="0.00" waitingCount="0" stopTime="0.00" timeLoss="12.60" rerouteNo="1" devices="tripinfo_h4794c2:1 routing_h4794c2:1" vType="default_016" speedFactor="1.09" vaporized=""/>
    <tripinfo id="h7415c1:1" depart="58104.00" departLane="53396619#4_1" departPos="5.10" departSpeed="0.00" departDelay="0.00" arrival="58172.00" arrivalLane="386687235_1" arrivalPos="80.84" arrivalSpeed="14.06" duration="68.00" routeLength="614.45" waitingTime="0.00" waitingCount="0" stopTime="0.00" timeLoss="10.83" rerouteNo="1" devices="tripinfo_h7415c1:1 routing_h7415c1:1" vType="default_016" speedFactor="1.08" vaporized=""/>
    <tripinfo id="h15631c1:1" depart="57962.00" departLane="10425609#0_1" departPos="5.10" departSpeed="0.00" departDelay="0.30" arrival="58183.00" arrivalLane="18809673#0_1" arrivalPos="473.56" arrivalSpeed="10.82" duration="221.00" routeLength="1959.45" waitingTime="6.00" waitingCount="2" stopTime="0.00" timeLoss="34.73" rerouteNo="1" devices="tripinfo_h15631c1:1 routing_h15631c1:1" vType="default_016" speedFactor="0.78" vaporized=""/>
    <tripinfo id="carIn84735:1" depart="57969.00" departLane="10425609#0_1" departPos="5.10" departSpeed="0.00" departDelay="0.60" arrival="58185.00" arrivalLane="18809673#0_1" arrivalPos="473.56" arrivalSpeed="13.17" duration="216.00" routeLength="1959.45" waitingTime="6.00" waitingCount="3" stopTime="0.00" timeLoss="64.43" rerouteNo="1" devices="tripinfo_carIn84735:1 routing_carIn84735:1" vType="default_016" speedFactor="0.96" vaporized=""/>
    <tripinfo id="carIn72005:1" depart="57978.00" departLane="10425609#0_1" departPos="5.10" departSpeed="0.00" departDelay="0.70" arrival="58186.00" arrivalLane="18809673#0_1" arrivalPos="473.56" arrivalSpeed="14.21" duration="208.00" routeLength="1959.45" waitingTime="1.00" waitingCount="1" stopTime="0.00" timeLoss="77.31" rerouteNo="1" devices="tripinfo_carIn72005:1 routing_carIn72005:1" vType="default_016" speedFactor="1.11" vaporized=""/>
    <tripinfo id="carIn11789:1" depart="57984.00" departLane="10425609#0_1" departPos="5.10" departSpeed="0.00" departDelay="3.40" arrival="58188.00" arrivalLane="18809673#0_1" arrivalPos="473.56" arrivalSpeed="12.85" duration="204.00" routeLength="1959.45" waitingTime="10.00" waitingCount="1" stopTime="0.00" timeLoss="55.01" rerouteNo="1" devices="tripinfo_carIn11789:1 routing_carIn11789:1" vType="default_016" speedFactor="0.97" vaporized=""/>
    <tripinfo id="h2859c1:1" depart="57822.00" departLane="201238726#0.117_1" departPos="5.10" departSpeed="0.00" departDelay="0.10" arrival="58189.00" arrivalLane="386687235_2" arrivalPos="80.84" arrivalSpeed="12.93" duration="367.00" routeLength="1631.78" waitingTime="228.00" waitingCount="2" stopTime="0.00" timeLoss="244.64" rerouteNo="1" devices="tripinfo_h2859c1:1 routing_h2859c1:1" vType="default_016" speedFactor="0.97" vaporized=""/>
    <tripinfo id="h3426c1:1" depart="57864.00" departLane="-160314345#2_1" departPos="5.10" departSpeed="0.00" departDelay="0.00" arrival="58189.00" arrivalLane="386687235_1" arrivalPos="80.84" arrivalSpeed="15.51" duration="325.00" routeLength="726.87" waitingTime="252.00" waitingCount="1" stopTime="0.00" timeLoss="266.42" rerouteNo="1" devices="tripinfo_h3426c1:1 routing_h3426c1:1" vType="default_016" speedFactor="1.16" vaporized=""/>
    <tripinfo id="h8701c1:1" depart="58062.00" departLane="24634510#1_1" departPos="5.10" departSpeed="0.00" departDelay="0.00" arrival="58196.00" arrivalLane="272042145_1" arrivalPos="234.87" arrivalSpeed="11.66" duration="134.00" routeLength="1502.87" waitingTime="0.00" waitingCount="0" stopTime="0.00" timeLoss="11.80" rerouteNo="1" devices="tripinfo_h8701c1:1 routing_h8701c1:1" vType="default_016" speedFactor="0.90" vaporized=""/>
    <tripinfo id="h7445c2:1" depart="58087.00" departLane="54169231#1_1" departPos="5.10" departSpeed="0.00" departDelay="0.00" arrival="58196.00" arrivalLane="386687235_1" arrivalPos="80.84" arrivalSpeed="12.52" duration="109.00" routeLength="887.16" waitingTime="0.00" waitingCount="0" stopTime="0.00" timeLoss="14.73" rerouteNo="1" devices="tripinfo_h7445c2:1 routing_h7445c2:1" vType="default_016" speedFactor="0.95" vaporized=""/>
    <tripinfo id="h8449c1:3" depart="58116.00" departLane="176550249#3_1" departPos="5.10" departSpeed="0.00" departDelay="0.50" arrival="58197.00" arrivalLane="272042145_1" arrivalPos="234.87" arrivalSpeed="13.92" duration="81.00" routeLength="1113.61" waitingTime="0.00" waitingCount="0" stopTime="0.00" timeLoss="6.08" rerouteNo="1" devices="tripinfo_h8449c1:3 routing_h8449c1:3" vType="default_016" speedFactor="1.07" vaporized=""/>
    <tripinfo id="h3823c2:3" depart="58116.00" departLane="-32978638#0_1" departPos="5.10" departSpeed="0.00" departDelay="0.00" arrival="58200.00" arrivalLane="24634414#2_1" arrivalPos="105.05" arrivalSpeed="8.42" duration="84.00" routeLength="833.31" waitingTime="0.00" waitingCount="0" stopTime="0.00" timeLoss="12.42" rerouteNo="1" devices="tripinfo_h3823c2:3 routing_h3823c2:3" vType="default_016" speedFactor="1.06" vaporized=""/>
    <tripinfo id="h5559c1:1" depart="58108.00" departLane="-201950247#0_1" departPos="5.10" departSpeed="0.00" departDelay="0.10" arrival="58203.00" arrivalLane="386687235_1" arrivalPos="80.84" arrivalSpeed="13.40" duration="95.00" routeLength="904.10" waitingTime="2.00" waitingCount="1" stopTime="0.00" timeLoss="15.51" rerouteNo="1" devices="tripinfo_h5559c1:1 routing_h5559c1:1" vType="default_016" speedFactor="1.01" vaporized=""/>
    <tripinfo id="h7618c2:1" depart="58128.00" departLane="-25117417#1_1" departPos="5.10" departSpeed="0.00" departDelay="0.00" arrival="58205.00" arrivalLane="-315358244_1" arrivalPos="33.95" arrivalSpeed="10.36" duration="77.00" routeLength="415.59" waitingTime="20.00" waitingCount="1" stopTime="0.00" timeLoss="30.73" rerouteNo="1" devices="tripinfo_h7618c2:1 routing_h7618c2:1" vType="default_016" speedFactor="0.82" vaporized=""/>
    <tripinfo id="h8552c1:1" depart="58134.00" departLane="176550249#4_1" departPos="5.10" departSpeed="0.00" departDelay="2.40" arrival="58205.00" arrivalLane="272042145_1" arrivalPos="234.87" arrivalSpeed="13.70" duration="71.00" routeLength="911.47" waitingTime="0.00" waitingCount="0" stopTime="0.00" timeLoss="5.81" rerouteNo="1" devices="tripinfo_h8552c1:1 routing_h8552c1:1" vType="default_016" speedFactor="1.01" vaporized=""/>
    <tripinfo id="h5183c2:1" depart="58014.00" departLane="201238719#0_1" departPos="5.10" departSpeed="0.00" departDelay="0.00" arrival="58212.00" arrivalLane="32978638#0_1" arrivalPos="49.29" arrivalSpeed="14.12" duration="198.00" routeLength="2487.90" waitingTime="0.00" waitingCount="0" stopTime="0.00" timeLoss="24.35" rerouteNo="1" devices="tripinfo_h5183c2:1 routing_h5183c2:1" vType="default_016" speedFactor="1.03" vaporized=""/>
    <tripinfo id="h16288c1:3" depart="58210.00" departLane="-32978638#0_1" departPos="5.10" departSpeed="0.00" departDelay="3.20" arrival="58244.00" arrivalLane="-266565295#5_1" arrivalPos="172.76" arrivalSpeed="13.45" duration="34.00" routeLength="370.53" waitingTime="0.00" waitingCount="0" stopTime="0.00" timeLoss="5.48" rerouteNo="1" devices="tripinfo_h16288c1:3 routing_h16288c1:3" vType="default_016" speedFactor="0.99" vaporized=""/>
    <tripinfo id="h8230c1:3" depart="58155.00" departLane="-24634505_1" departPos="5.10" departSpeed="0.00" departDelay="0.00" arrival="58248.00" arrivalLane="272042145_1" arrivalPos="234.87" arrivalSpeed="14.60" duration="93.00" routeLength="882.67" waitingTime="0.00" waitingCount="0" stopTime="0.00" timeLoss="13.20" rerouteNo="1" devices="tripinfo_h8230c1:3 routing_h8230c1:3" vType="default_016" speedFactor="1.14" vaporized=""/>
    <tripinfo id="randUni1534:1" depart="57949.00" departLane="-447569998#1_1" departPos="5.10" departSpeed="0.00" departDelay="0.30" arrival="58257.00" arrivalLane="40888356#0_1" arrivalPos="103.49" arrivalSpeed="15.07" duration="308.00" routeLength="2017.53" waitingTime="141.00" waitingCount="2" stopTime="0.00" timeLoss="163.40" rerouteNo="1" devices="tripinfo_randUni1534:1 routing_randUni1534:1" vType="random_016" speedFactor="1.14" vaporized=""/>
    <tripinfo id="50R_frequency3.17" depart="57674.00" departLane="-18809673#6_1" departPos="12.10" departSpeed="0.00" departDelay="0.70" arrival="58275.00" arrivalLane="201956811#0_1" arrivalPos="40.40" arrivalSpeed="10.88" duration="601.00" routeLength="1954.47" waitingTime="421.00" waitingCount="2" stopTime="0.00" timeLoss="456.29" rerouteNo="1" devices="tripinfo_50R_frequency3.17 routing_50R_frequency3.17" vType="bus" speedFactor="1.00" vaporized=""/>
    <tripinfo id="h655c1:3" depart="58085.00" departLane="-32978638#0_1" departPos="5.10" departSpeed="0.00" departDelay="1.90" arrival="58285.00" arrivalLane="26677214#3_1" arrivalPos="51.63" arrivalSpeed="7.50" duration="200.00" routeLength="1884.99" waitingTime="14.00" waitingCount="2" stopTime="0.00" timeLoss="49.89" rerouteNo="1" devices="tripinfo_h655c1:3 routing_h655c1:3" vType="default_016" speedFactor="1.01" vaporized=""/>
    <tripinfo id="h3249c2:1" depart="58018.00" departLane="24634513#0_0" departPos="5.10" departSpeed="0.00" departDelay="0.00" arrival="58286.00" arrivalLane="272042145_1" arrivalPos="234.87" arrivalSpeed="10.35" duration="268.00" routeLength="1693.33" waitingTime="0.00" waitingCount="0" stopTime="0.00" timeLoss="41.15" rerouteNo="1" devices="tripinfo_h3249c2:1 routing_h3249c2:1" vType="default_016" speedFactor="0.84" vaporized=""/>
    <tripinfo id="h5350c1:3" depart="58199.00" departLane="315358254#0_1" departPos="5.10" departSpeed="0.00" departDelay="2.20" arrival="58298.00" arrivalLane="28319300#3_1" arrivalPos="85.93" arrivalSpeed="7.52" duration="99.00" routeLength="738.32" waitingTime="4.00" waitingCount="1" stopTime="0.00" timeLoss="18.52" rerouteNo="1" devices="tripinfo_h5350c1:3 routing_h5350c1:3" vType="default_016" speedFactor="0.92" vaporized=""/>
    <tripinfo id="carIn104860:1" depart="58195.00" departLane="-30482615#4_0" departPos="5.10" departSpeed="0.00" departDelay="0.60" arrival="58323.00" arrivalLane="18809673#0_1" arrivalPos="473.56" arrivalSpeed="13.46" duration="128.00" routeLength="958.56" waitingTime="0.00" waitingCount="0" stopTime="0.00" timeLoss="14.97" rerouteNo="1" devices="tripinfo_carIn104860:1 routing_carIn104860:1" vType="default_016" speedFactor="1.03" vaporized=""/>
    <tripinfo id="h9536c2:3" depart="58328.00" departLane="10425609#0_1" departPos="5.10" departSpeed="0.00" departDelay="0.70" arrival="58356.00" arrivalLane="201956820_2" arrivalPos="48.33" arrivalSpeed="13.31" duration="28.00" routeLength="237.90" waitingTime="1.00" waitingCount="1" stopTime="0.00" timeLoss="10.19" rerouteNo="1" devices="tripinfo_h9536c2:3 routing_h9536c2:3" vType="default_016" speedFactor="1.01" vaporized=""/>