<?xml version="1.0" encoding="UTF-8"?>

<!-- generated on 2023-08-30 22:02:14 by Eclipse SUMO libsumo Version 1.18.0
<configuration xmlns:xsi="http://www.w3.org/2001/XMLSchema-instance" xsi:noNamespaceSchemaLocation="http://sumo.dlr.de/xsd/libsumoConfiguration.xsd">

    <input>
        <net-file value="/home/stefan/RESCO/./environments/ingolstadt21/ingolstadt21.net.xml"/>
        <route-files value="/home/stefan/RESCO/./environments/ingolstadt21/ingolstadt21.rou.xml"/>
    </input>

    <output>
        <tripinfo-output value="/home/stefan/results/RAINBOW-tr0-ingolstadt21-21-drq_norm-wait_norm/tripinfo_81.xml"/>
        <tripinfo-output.write-unfinished value="true"/>
    </output>

    <time>
        <begin value="57600"/>
        <end value="61200"/>
    </time>

    <processing>
        <time-to-teleport value="-1"/>
    </processing>

    <report>
        <no-warnings value="True"/>
        <no-step-log value="True"/>
    </report>

    <random_number>
        <random value="true"/>
    </random_number>

</configuration>
-->

<tripinfos xmlns:xsi="http://www.w3.org/2001/XMLSchema-instance" xsi:noNamespaceSchemaLocation="http://sumo.dlr.de/xsd/tripinfo_file.xsd">
    <tripinfo id="carIn53971:1" depart="57640.00" departLane="272042143_1" departPos="5.10" departSpeed="0.00" departDelay="0.80" arrival="57686.00" arrivalLane="24634414#1_1" arrivalPos="162.19" arrivalSpeed="9.51" duration="46.00" routeLength="493.04" waitingTime="0.00" waitingCount="0" stopTime="0.00" timeLoss="7.99" rerouteNo="1" devices="tripinfo_carIn53971:1 routing_carIn53971:1" vType="default_016" speedFactor="1.20" vaporized=""/>
    <tripinfo id="h7800c1:5" depart="57696.00" departLane="-447569998#1_1" departPos="5.10" departSpeed="0.00" departDelay="0.00" arrival="57725.00" arrivalLane="-447569998#1_1" arrivalPos="180.76" arrivalSpeed="6.10" duration="29.00" routeLength="175.66" waitingTime="0.00" waitingCount="0" stopTime="0.00" timeLoss="3.71" rerouteNo="1" devices="tripinfo_h7800c1:5 routing_h7800c1:5" vType="default_016" speedFactor="0.84" vaporized=""/>
    <tripinfo id="h317c2:1" depart="57707.00" departLane="-32978638#0_1" departPos="5.10" departSpeed="0.00" departDelay="0.10" arrival="57742.00" arrivalLane="-266565295#5_1" arrivalPos="172.76" arrivalSpeed="13.09" duration="35.00" routeLength="370.53" waitingTime="0.00" waitingCount="0" stopTime="0.00" timeLoss="6.12" rerouteNo="1" devices="tripinfo_h317c2:1 routing_h317c2:1" vType="default_016" speedFactor="0.97" vaporized=""/>
    <tripinfo id="h3326c1:2" depart="57656.00" departLane="22716069#0_1" departPos="5.10" departSpeed="0.00" departDelay="0.00" arrival="57769.00" arrivalLane="24634517#13_1" arrivalPos="111.62" arrivalSpeed="12.82" duration="113.00" routeLength="1312.81" waitingTime="0.00" waitingCount="0" stopTime="0.00" timeLoss="15.01" rerouteNo="1" devices="tripinfo_h3326c1:2 routing_h3326c1:2" vType="default_016" speedFactor="0.99" vaporized=""/>
    <tripinfo id="h330c1:1" depart="57736.00" departLane="-32978638#0_1" departPos="5.10" departSpeed="0.00" departDelay="0.20" arrival="57770.00" arrivalLane="-266565295#5_1" arrivalPos="172.76" arrivalSpeed="12.77" duration="34.00" routeLength="370.53" waitingTime="0.00" waitingCount="0" stopTime="0.00" timeLoss="6.13" rerouteNo="1" devices="tripinfo_h330c1:1 routing_h330c1:1" vType="default_016" speedFactor="0.99" vaporized=""/>
    <tripinfo id="carIn27009:1" depart="57673.00" departLane="-447569998#1_1" departPos="5.10" departSpeed="0.00" departDelay="0.50" arrival="57773.00" arrivalLane="-26677539_1" arrivalPos="152.75" arrivalSpeed="7.54" duration="100.00" routeLength="699.63" waitingTime="0.00" waitingCount="0" stopTime="0.00" timeLoss="11.33" rerouteNo="1" devices="tripinfo_carIn27009:1 routing_carIn27009:1" vType="default_015" speedFactor="0.95" vaporized=""/>
    <tripinfo id="carIn107282:1" depart="57749.00" departLane="-447569998#1_1" departPos="5.10" departSpeed="0.00" departDelay="0.00" arrival="57794.00" arrivalLane="315358242#0_1" arrivalPos="165.37" arrivalSpeed="13.53" duration="45.00" routeLength="448.50" waitingTime="0.00" waitingCount="0" stopTime="0.00" timeLoss="4.73" rerouteNo="1" devices="tripinfo_carIn107282:1 routing_carIn107282:1" vType="default_016" speedFactor="1.03" vaporized=""/>
    <tripinfo id="carIn129809:1" depart="57729.00" departLane="-447569998#1_1" departPos="5.10" departSpeed="0.00" departDelay="1.00" arrival="57795.00" arrivalLane="-315358244_1" arrivalPos="33.95" arrivalSpeed="13.62" duration="66.00" routeLength="706.49" waitingTime="0.00" waitingCount="0" stopTime="0.00" timeLoss="8.82" rerouteNo="1" devices="tripinfo_carIn129809:1 routing_carIn129809:1" vType="default_015" speedFactor="1.06" vaporized=""/>
    <tripinfo id="carIn12775:1" depart="57676.00" departLane="10425609#0_1" departPos="5.10" departSpeed="0.00" departDelay="0.60" arrival="57830.00" arrivalLane="18809673#0_1" arrivalPos="473.56" arrivalSpeed="13.89" duration="154.00" routeLength="1959.45" waitingTime="0.00" waitingCount="0" stopTime="0.00" timeLoss="15.77" rerouteNo="1" devices="tripinfo_carIn12775:1 routing_carIn12775:1" vType="default_016" speedFactor="1.06" vaporized=""/>
    <tripinfo id="carIn8642:1" depart="57774.00" departLane="-447569998#1_1" departPos="5.10" departSpeed="0.00" departDelay="0.90" arrival="57836.00" arrivalLane="-315358244_1" arrivalPos="33.95" arrivalSpeed="14.21" duration="62.00" routeLength="706.49" waitingTime="0.00" waitingCount="0" stopTime="0.00" timeLoss="6.29" rerouteNo="1" devices="tripinfo_carIn8642:1 routing_carIn8642:1" vType="default_016" speedFactor="1.08" vaporized=""/>
    <tripinfo id="randUni31145:1" depart="57814.00" departLane="10425609#0_1" departPos="5.10" departSpeed="0.00" departDelay="0.30" arrival="57842.00" arrivalLane="201956810_1" arrivalPos="71.65" arrivalSpeed="11.54" duration="28.00" routeLength="255.78" waitingTime="0.00" waitingCount="0" stopTime="0.00" timeLoss="6.15" rerouteNo="1" devices="tripinfo_randUni31145:1 routing_randUni31145:1" vType="random_016" speedFactor="0.91" vaporized=""/>
    <tripinfo id="randUni2407:1" depart="57820.00" departLane="10425609#0_1" departPos="5.10" departSpeed="0.00" departDelay="0.80" arrival="57844.00" arrivalLane="201956810_1" arrivalPos="71.65" arrivalSpeed="15.02" duration="24.00" routeLength="255.78" waitingTime="0.00" waitingCount="0" stopTime="0.00" timeLoss="6.30" rerouteNo="1" devices="tripinfo_randUni2407:1 routing_randUni2407:1" vType="random_016" speedFactor="1.14" vaporized=""/>
    <tripinfo id="carIn70533:1" depart="57812.00" departLane="-447569998#1_1" departPos="5.10" departSpeed="0.00" departDelay="0.10" arrival="57875.00" arrivalLane="-315358244_1" arrivalPos="33.95" arrivalSpeed="14.10" duration="63.00" routeLength="706.49" waitingTime="0.00" waitingCount="0" stopTime="0.00" timeLoss="7.20" rerouteNo="1" devices="tripinfo_carIn70533:1 routing_carIn70533:1" vType="default_016" speedFactor="1.10" vaporized=""/>
    <tripinfo id="h6846c2:1" depart="57741.00" departLane="26677213#0_1" departPos="5.10" departSpeed="0.00" departDelay="0.00" arrival="57891.00" arrivalLane="386687235_1" arrivalPos="80.84" arrivalSpeed="14.89" duration="150.00" routeLength="1412.24" waitingTime="0.00" waitingCount="0" stopTime="0.00" timeLoss="21.91" rerouteNo="1" devices="tripinfo_h6846c2:1 routing_h6846c2:1" vType="default_016" speedFactor="1.08" vaporized=""/>
    <tripinfo id="randUni23028:1" depart="57884.00" departLane="124812856#0_1" departPos="5.10" departSpeed="0.00" departDelay="0.10" arrival="57901.00" arrivalLane="201956810_1" arrivalPos="71.65" arrivalSpeed="12.43" duration="17.00" routeLength="134.91" waitingTime="0.00" waitingCount="0" stopTime="0.00" timeLoss="4.61" rerouteNo="1" devices="tripinfo_randUni23028:1 routing_randUni23028:1" vType="random_016" speedFactor="0.91" vaporized=""/>
    <tripinfo id="carIn29676:1" depart="57789.00" departLane="-160314345#5_1" departPos="5.10" departSpeed="0.00" departDelay="0.00" arrival="57902.00" arrivalLane="-24634505_1" arrivalPos="48.18" arrivalSpeed="13.08" duration="113.00" routeLength="1162.34" waitingTime="2.00" waitingCount="1" stopTime="0.00" timeLoss="18.20" rerouteNo="1" devices="tripinfo_carIn29676:1 routing_carIn29676:1" vType="default_016" speedFactor="0.95" vaporized=""/>
    <tripinfo id="carIn13353:1" depart="57838.00" departLane="-447569998#1_1" departPos="5.10" departSpeed="0.00" departDelay="0.30" arrival="57903.00" arrivalLane="-315358244_1" arrivalPos="33.95" arrivalSpeed="13.79" duration="65.00" routeLength="706.49" waitingTime="0.00" waitingCount="0" stopTime="0.00" timeLoss="7.75" rerouteNo="1" devices="tripinfo_carIn13353:1 routing_carIn13353:1" vType="default_016" speedFactor="1.06" vaporized=""/>
    <tripinfo id="carIn63848:1" depart="57841.00" departLane="-447569998#1_1" departPos="5.10" departSpeed="0.00" departDelay="0.80" arrival="57907.00" arrivalLane="-315358244_1" arrivalPos="33.95" arrivalSpeed="14.06" duration="66.00" routeLength="706.49" waitingTime="0.00" waitingCount="0" stopTime="0.00" timeLoss="6.25" rerouteNo="1" devices="tripinfo_carIn63848:1 routing_carIn63848:1" vType="default_016" speedFactor="1.02" vaporized=""/>
    <tripinfo id="carIn16842:1" depart="57744.00" departLane="10425609#0_1" departPos="5.10" departSpeed="0.00" departDelay="0.40" arrival="57912.00" arrivalLane="18809673#0_1" arrivalPos="473.56" arrivalSpeed="12.73" duration="168.00" routeLength="1959.45" waitingTime="0.00" waitingCount="0" stopTime="0.00" timeLoss="15.79" rerouteNo="1" devices="tripinfo_carIn16842:1 routing_carIn16842:1" vType="default_016" speedFactor="0.96" vaporized=""/>
    <tripinfo id="randUni16001:1" depart="57912.00" departLane="10425609#0_1" departPos="5.10" departSpeed="0.00" departDelay="0.30" arrival="57939.00" arrivalLane="201956810_1" arrivalPos="71.65" arrivalSpeed="13.41" duration="27.00" routeLength="255.78" waitingTime="0.00" waitingCount="0" stopTime="0.00" timeLoss="6.27" rerouteNo="1" devices="tripinfo_randUni16001:1 routing_randUni16001:1" vType="random_016" speedFactor="0.97" vaporized=""/>
    <tripinfo id="h7032c2:3" depart="57863.00" departLane="315358244_1" departPos="5.10" departSpeed="0.00" departDelay="0.40" arrival="57965.00" arrivalLane="26677541_1" arrivalPos="152.31" arrivalSpeed="14.32" duration="102.00" routeLength="901.39" waitingTime="9.00" waitingCount="1" stopTime="0.00" timeLoss="24.43" rerouteNo="1" devices="tripinfo_h7032c2:3 routing_h7032c2:3" vType="default_016" speedFactor="1.07" vaporized=""/>
    <tripinfo id="randUni11215:1" depart="57953.00" departLane="124812856#0_1" departPos="5.10" departSpeed="0.00" departDelay="0.30" arrival="57969.00" arrivalLane="201956810_1" arrivalPos="71.65" arrivalSpeed="11.27" duration="16.00" routeLength="134.91" waitingTime="0.00" waitingCount="0" stopTime="0.00" timeLoss="3.47" rerouteNo="1" devices="tripinfo_randUni11215:1 routing_randUni11215:1" vType="random_016" speedFactor="0.85" vaporized=""/>
    <tripinfo id="h4574c1:3" depart="57907.00" departLane="-137454133#5_1" departPos="5.10" departSpeed="0.00" departDelay="0.00" arrival="57984.00" arrivalLane="201238729#3_1" arrivalPos="431.02" arrivalSpeed="14.29" duration="77.00" routeLength="979.11" waitingTime="0.00" waitingCount="0" stopTime="0.00" timeLoss="15.04" rerouteNo="1" devices="tripinfo_h4574c1:3 routing_h4574c1:3" vType="default_016" speedFactor="1.11" vaporized=""/>
    <tripinfo id="carIn113750:1" depart="57961.00" departLane="24599188#0.94_1" departPos="5.10" departSpeed="0.00" departDelay="0.30" arrival="57985.00" arrivalLane="24599188#0.94_1" arrivalPos="186.59" arrivalSpeed="8.27" duration="24.00" routeLength="181.49" waitingTime="0.00" waitingCount="0" stopTime="0.00" timeLoss="3.17" rerouteNo="1" devices="tripinfo_carIn113750:1 routing_carIn113750:1" vType="default_016" speedFactor="1.05" vaporized=""/>
    <tripinfo id="h21699c2:1" depart="57890.00" departLane="-32978638#0_1" departPos="5.10" departSpeed="0.00" departDelay="1.90" arrival="57986.00" arrivalLane="-315358242#1_1" arrivalPos="93.35" arrivalSpeed="10.47" duration="96.00" routeLength="1000.41" waitingTime="0.00" waitingCount="0" stopTime="0.00" timeLoss="8.36" rerouteNo="1" devices="tripinfo_h21699c2:1 routing_h21699c2:1" vType="default_016" speedFactor="0.84" vaporized=""/>
    <tripinfo id="h4391c1:3" depart="57997.00" departLane="-32978638#0_1" departPos="5.10" departSpeed="0.00" departDelay="0.90" arrival="58027.00" arrivalLane="-266565295#5_1" arrivalPos="172.76" arrivalSpeed="15.21" duration="30.00" routeLength="370.53" waitingTime="0.00" waitingCount="0" stopTime="0.00" timeLoss="6.08" rerouteNo="1" devices="tripinfo_h4391c1:3 routing_h4391c1:3" vType="default_016" speedFactor="1.15" vaporized=""/>
    <tripinfo id="carIn72316:1" depart="57826.00" departLane="10425609#0_1" departPos="5.10" departSpeed="0.00" departDelay="0.50" arrival="58038.00" arrivalLane="18809673#0_1" arrivalPos="473.56" arrivalSpeed="11.76" duration="212.00" routeLength="1959.45" waitingTime="28.00" waitingCount="1" stopTime="0.00" timeLoss="47.45" rerouteNo="1" devices="tripinfo_carIn72316:1 routing_carIn72316:1" vType="default_016" speedFactor="0.89" vaporized=""/>
    <tripinfo id="carIn64958:1" depart="57857.00" departLane="10425609#0_1" departPos="5.10" departSpeed="0.00" departDelay="0.60" arrival="58039.00" arrivalLane="18809673#0_1" arrivalPos="473.56" arrivalSpeed="13.30" duration="182.00" routeLength="1959.45" waitingTime="13.00" waitingCount="1" stopTime="0.00" timeLoss="37.08" rerouteNo="1" devices="tripinfo_carIn64958:1 routing_carIn64958:1" vType="default_016" speedFactor="1.00" vaporized=""/>
    <tripinfo id="carIn133015:1" depart="57864.00" departLane="10425609#0_1" departPos="5.10" departSpeed="0.00" departDelay="0.00" arrival="58041.00" arrivalLane="18809673#0_1" arrivalPos="473.56" arrivalSpeed="11.82" duration="177.00" routeLength="1959.45" waitingTime="0.00" waitingCount="0" stopTime="0.00" timeLoss="22.82" rerouteNo="1" devices="tripinfo_carIn133015:1 routing_carIn133015:1" vType="default_016" speedFactor="0.94" vaporized=""/>
    <tripinfo id="h7649c2:1" depart="57988.00" departLane="-447569998#1_1" departPos="5.10" departSpeed="0.00" departDelay="0.20" arrival="58048.00" arrivalLane="-315358244_1" arrivalPos="33.95" arrivalSpeed="15.60" duration="60.00" routeLength="706.49" waitingTime="0.00" waitingCount="0" stopTime="0.00" timeLoss="6.49" rerouteNo="1" devices="tripinfo_h7649c2:1 routing_h7649c2:1" vType="default_016" speedFactor="1.14" vaporized=""/>
    <tripinfo id="carIn99077:1" depart="58021.00" departLane="-447569998#1_1" departPos="5.10" departSpeed="0.00" departDelay="0.50" arrival="58088.00" arrivalLane="-315358244_2" arrivalPos="33.95" arrivalSpeed="13.42" duration="67.00" routeLength="706.49" waitingTime="0.00" waitingCount="0" stopTime="0.00" timeLoss="8.90" rerouteNo="1" devices="tripinfo_carIn99077:1 routing_carIn99077:1" vType="default_016" speedFactor="1.04" vaporized=""/>
    <tripinfo id="randUni22786:1" depart="58065.00" departLane="10425609#0_1" departPos="5.10" departSpeed="0.00" departDelay="0.00" arrival="58089.00" arrivalLane="201956810_1" arrivalPos="71.65" arrivalSpeed="14.87" duration="24.00" routeLength="255.78" waitingTime="0.00" waitingCount="0" stopTime="0.00" timeLoss="6.03" rerouteNo="1" devices="tripinfo_randUni22786:1 routing_randUni22786:1" vType="random_016" speedFactor="1.12" vaporized=""/>
    <tripinfo id="carIn130975:1" depart="58017.00" departLane="-447569998#1_1" departPos="5.10" departSpeed="0.00" departDelay="0.10" arrival="58090.00" arrivalLane="-315358244_1" arrivalPos="33.95" arrivalSpeed="12.00" duration="73.00" routeLength="706.49" waitingTime="0.00" waitingCount="0" stopTime="0.00" timeLoss="7.76" rerouteNo="1" devices="tripinfo_carIn130975:1 routing_carIn130975:1" vType="default_015" speedFactor="0.93" vaporized=""/>
    <tripinfo id="h1626c2:3" depart="57984.00" departLane="201201935#0_1" departPos="5.10" departSpeed="0.00" departDelay="0.50" arrival="58097.00" arrivalLane="-32395288#1_0" arrivalPos="21.79" arrivalSpeed="2.03" duration="113.00" routeLength="952.80" waitingTime="0.00" waitingCount="0" stopTime="0.00" timeLoss="17.49" rerouteNo="1" devices="tripinfo_h1626c2:3 routing_h1626c2:3" vType="default_016" speedFactor="1.18" vaporized=""/>
    <tripinfo id="h17593c1:1" depart="57907.00" departLane="10425609#0_1" departPos="5.10" departSpeed="0.00" departDelay="0.90" arrival="58110.00" arrivalLane="18809673#0_1" arrivalPos="473.56" arrivalSpeed="14.49" duration="203.00" routeLength="1959.45" waitingTime="50.00" waitingCount="1" stopTime="0.00" timeLoss="67.68" rerouteNo="1" devices="tripinfo_h17593c1:1 routing_h17593c1:1" vType="default_016" speedFactor="1.08" vaporized=""/>
    <tripinfo id="randUni1534:1" depart="57949.00" departLane="-447569998#1_1" departPos="5.10" departSpeed="0.00" departDelay="0.30" arrival="58114.00" arrivalLane="40888356#0_1" arrivalPos="103.49" arrivalSpeed="14.82" duration="165.00" routeLength="2017.53" waitingTime="0.00" waitingCount="0" stopTime="0.00" timeLoss="19.33" rerouteNo="1" devices="tripinfo_randUni1534:1 routing_randUni1534:1" vType="random_016" speedFactor="1.12" vaporized=""/>
    <tripinfo id="50R_frequency3.17" depart="57674.00" departLane="-18809673#6_1" departPos="12.10" departSpeed="0.00" departDelay="0.70" arrival="58115.00" arrivalLane="201956811#0_1" arrivalPos="40.40" arrivalSpeed="11.63" duration="441.00" routeLength="1954.47" waitingTime="262.00" waitingCount="2" stopTime="0.00" timeLoss="296.32" rerouteNo="1" devices="tripinfo_50R_frequency3.17 routing_50R_frequency3.17" vType="bus" speedFactor="1.00" vaporized=""/>
    <tripinfo id="carIn112995:1" depart="57937.00" departLane="10425609#0_1" departPos="5.10" departSpeed="0.00" departDelay="0.70" arrival="58117.00" arrivalLane="18809673#0_1" arrivalPos="473.56" arrivalSpeed="11.92" duration="180.00" routeLength="1959.45" waitingTime="4.00" waitingCount="1" stopTime="0.00" timeLoss="22.52" rerouteNo="1" devices="tripinfo_carIn112995:1 routing_carIn112995:1" vType="default_016" speedFactor="0.93" vaporized=""/>
    <tripinfo id="h19940c1:1" depart="57947.00" departLane="10425609#0_1" departPos="5.10" departSpeed="0.00" departDelay="2.30" arrival="58119.00" arrivalLane="18809673#0_1" arrivalPos="473.56" arrivalSpeed="14.92" duration="172.00" routeLength="1959.45" waitingTime="1.00" waitingCount="1" stopTime="0.00" timeLoss="43.82" rerouteNo="1" devices="tripinfo_h19940c1:1 routing_h19940c1:1" vType="default_016" speedFactor="1.13" vaporized=""/>
    <tripinfo id="h5801c1:1" depart="57970.00" departLane="-26677216#0_1" departPos="5.10" departSpeed="0.00" departDelay="0.00" arrival="58120.00" arrivalLane="386687235_1" arrivalPos="80.84" arrivalSpeed="13.76" duration="150.00" routeLength="1335.31" waitingTime="0.00" waitingCount="0" stopTime="0.00" timeLoss="17.90" rerouteNo="1" devices="tripinfo_h5801c1:1 routing_h5801c1:1" vType="default_016" speedFactor="1.00" vaporized=""/>
    <tripinfo id="h4794c2:1" depart="58074.00" departLane="-224892361#8_1" departPos="5.10" departSpeed="0.00" departDelay="0.00" arrival="58144.00" arrivalLane="306240162#0_0" arrivalPos="220.43" arrivalSpeed="13.66" duration="70.00" routeLength="979.18" waitingTime="0.00" waitingCount="0" stopTime="0.00" timeLoss="12.40" rerouteNo="1" devices="tripinfo_h4794c2:1 routing_h4794c2:1" vType="default_016" speedFactor="0.89" vaporized=""/>
    <tripinfo id="h11737c1:1" depart="57665.00" departLane="272042143_1" departPos="5.10" departSpeed="0.00" departDelay="1.50" arrival="58146.00" arrivalLane="-315358254#1_1" arrivalPos="137.16" arrivalSpeed="14.53" duration="481.00" routeLength="1596.88" waitingTime="361.00" waitingCount="1" stopTime="0.00" timeLoss="377.87" rerouteNo="1" devices="tripinfo_h11737c1:1 routing_h11737c1:1" vType="default_016" speedFactor="1.13" vaporized=""/>
    <tripinfo id="carIn126288:1" depart="57674.00" departLane="272042143_1" departPos="5.10" departSpeed="0.00" departDelay="0.00" arrival="58148.00" arrivalLane="-315358254#1_1" arrivalPos="137.16" arrivalSpeed="16.12" duration="474.00" routeLength="1596.88" waitingTime="359.00" waitingCount="1" stopTime="0.00" timeLoss="376.60" rerouteNo="1" devices="tripinfo_carIn126288:1 routing_carIn126288:1" vType="default_016" speedFactor="1.20" vaporized=""/>
    <tripinfo id="h15631c1:1" depart="57962.00" departLane="10425609#0_1" departPos="5.10" departSpeed="0.00" departDelay="0.30" arrival="58153.00" arrivalLane="18809673#0_1" arrivalPos="473.56" arrivalSpeed="13.64" duration="191.00" routeLength="1959.45" waitingTime="12.00" waitingCount="1" stopTime="0.00" timeLoss="43.48" rerouteNo="1" devices="tripinfo_h15631c1:1 routing_h15631c1:1" vType="default_016" speedFactor="0.99" vaporized=""/>
    <tripinfo id="carIn84735:1" depart="57969.00" departLane="10425609#0_1" departPos="5.10" departSpeed="0.00" departDelay="0.60" arrival="58159.00" arrivalLane="18809673#0_1" arrivalPos="473.56" arrivalSpeed="11.67" duration="190.00" routeLength="1959.45" waitingTime="3.00" waitingCount="1" stopTime="0.00" timeLoss="28.45" rerouteNo="1" devices="tripinfo_carIn84735:1 routing_carIn84735:1" vType="default_016" speedFactor="0.90" vaporized=""/>
    <tripinfo id="carIn72005:1" depart="57978.00" departLane="10425609#0_1" departPos="5.10" departSpeed="0.00" departDelay="0.70" arrival="58161.00" arrivalLane="18809673#0_1" arrivalPos="473.56" arrivalSpeed="12.47" duration="183.00" routeLength="1959.45" waitingTime="7.00" waitingCount="2" stopTime="0.00" timeLoss="31.56" rerouteNo="1" devices="tripinfo_carIn72005:1 routing_carIn72005:1" vType="default_016" speedFactor="0.96" vaporized=""/>
    <tripinfo id="carIn11789:1" depart="57984.00" departLane="10425609#0_1" departPos="5.10" departSpeed="0.00" departDelay="3.40" arrival="58162.00" arrivalLane="18809673#0_1" arrivalPos="473.56" arrivalSpeed="13.83" duration="178.00" routeLength="1959.45" waitingTime="3.00" waitingCount="2" stopTime="0.00" timeLoss="35.85" rerouteNo="1" devices="tripinfo_carIn11789:1 routing_carIn11789:1" vType="default_016" speedFactor="1.02" vaporized=""/>
    <tripinfo id="h17549c1:1" depart="57680.00" departLane="-447569998#1_1" departPos="5.10" departSpeed="0.00" departDelay="0.00" arrival="58163.00" arrivalLane="-315358254#1_1" arrivalPos="137.16" arrivalSpeed="9.79" duration="483.00" routeLength="1746.60" waitingTime="274.00" waitingCount="1" stopTime="0.00" timeLoss="301.37" rerouteNo="1" devices="tripinfo_h17549c1:1 routing_h17549c1:1" vType="default_016" speedFactor="0.75" vaporized=""/>
    <tripinfo id="randUni11417:1" depart="57990.00" departLane="10425609#0_1" departPos="5.10" departSpeed="0.00" departDelay="1.70" arrival="58164.00" arrivalLane="18809673#0_1" arrivalPos="473.56" arrivalSpeed="15.53" duration="174.00" routeLength="1959.45" waitingTime="0.00" waitingCount="0" stopTime="0.00" timeLoss="45.23" rerouteNo="1" devices="tripinfo_randUni11417:1 routing_randUni11417:1" vType="random_016" speedFactor="1.13" vaporized=""/>
    <tripinfo id="randUni3548:1" depart="57726.00" departLane="-447569998#1_1" departPos="5.10" departSpeed="0.00" departDelay="0.00" arrival="58165.00" arrivalLane="-315358254#1_1" arrivalPos="137.16" arrivalSpeed="12.42" duration="439.00" routeLength="1746.60" waitingTime="263.00" waitingCount="1" stopTime="0.00" timeLoss="286.99" rerouteNo="1" devices="tripinfo_randUni3548:1 routing_randUni3548:1" vType="random_016" speedFactor="0.91" vaporized=""/>
    <tripinfo id="carIn82298:1" depart="57783.00" departLane="-447569998#1_1" departPos="5.10" departSpeed="0.00" departDelay="0.60" arrival="58166.00" arrivalLane="-315358254#1_1" arrivalPos="137.16" arrivalSpeed="14.28" duration="383.00" routeLength="1746.60" waitingTime="230.00" waitingCount="1" stopTime="0.00" timeLoss="254.49" rerouteNo="1" devices="tripinfo_carIn82298:1 routing_carIn82298:1" vType="default_016" speedFactor="1.06" vaporized=""/>
    <tripinfo id="carIn76675:1" depart="57795.00" departLane="-160314345#5_1" departPos="5.10" departSpeed="0.00" departDelay="0.60" arrival="58169.00" arrivalLane="-315358254#1_1" arrivalPos="137.16" arrivalSpeed="13.16" duration="374.00" routeLength="1744.90" waitingTime="218.00" waitingCount="1" stopTime="0.00" timeLoss="244.87" rerouteNo="1" devices="tripinfo_carIn76675:1 routing_carIn76675:1" vType="default_016" speedFactor="1.02" vaporized=""/>
    <tripinfo id="h7618c2:1" depart="58128.00" departLane="-25117417#1_1" departPos="5.10" departSpeed="0.00" departDelay="0.00" arrival="58170.00" arrivalLane="-315358244_1" arrivalPos="33.95" arrivalSpeed="14.13" duration="42.00" routeLength="415.59" waitingTime="0.00" waitingCount="0" stopTime="0.00" timeLoss="4.75" rerouteNo="1" devices="tripinfo_h7618c2:1 routing_h7618c2:1" vType="default_016" speedFactor="1.02" vaporized=""/>
    <tripinfo id="carIn9695:1" depart="57822.00" departLane="272042143_1" departPos="5.10" departSpeed="0.00" departDelay="0.80" arrival="58171.00" arrivalLane="-315358254#1_1" arrivalPos="137.16" arrivalSpeed="12.34" duration="349.00" routeLength="1596.88" waitingTime="205.00" waitingCount="1" stopTime="0.00" timeLoss="229.44" rerouteNo="1" devices="tripinfo_carIn9695:1 routing_carIn9695:1" vType="default_016" speedFactor="0.97" vaporized=""/>
    <tripinfo id="carIn118538:1" depart="57683.00" departLane="-447569998#1_1" departPos="5.10" departSpeed="0.00" departDelay="1.00" arrival="58175.00" arrivalLane="399835085#1_1" arrivalPos="212.23" arrivalSpeed="7.94" duration="492.00" routeLength="1907.17" waitingTime="312.00" waitingCount="1" stopTime="0.00" timeLoss="343.16" rerouteNo="1" devices="tripinfo_carIn118538:1 routing_carIn118538:1" vType="default_016" speedFactor="1.09" vaporized=""/>
    <tripinfo id="carIn13443:1" depart="57729.00" departLane="272042143_1" departPos="5.10" departSpeed="0.00" departDelay="0.80" arrival="58177.00" arrivalLane="399835085#1_1" arrivalPos="212.23" arrivalSpeed="8.68" duration="448.00" routeLength="1757.45" waitingTime="289.00" waitingCount="1" stopTime="0.00" timeLoss="325.86" rerouteNo="1" devices="tripinfo_carIn13443:1 routing_carIn13443:1" vType="default_016" speedFactor="1.16" vaporized=""/>
    <tripinfo id="carIn14532:1" depart="57743.00" departLane="272042143_1" departPos="5.10" departSpeed="0.00" departDelay="1.90" arrival="58181.00" arrivalLane="399835085#1_1" arrivalPos="212.23" arrivalSpeed="7.79" duration="438.00" routeLength="1757.45" waitingTime="280.00" waitingCount="1" stopTime="0.00" timeLoss="302.09" rerouteNo="1" devices="tripinfo_carIn14532:1 routing_carIn14532:1" vType="default_016" speedFactor="1.05" vaporized=""/>
    <tripinfo id="carIn90834:1" depart="57934.00" departLane="272042143_1" departPos="5.10" departSpeed="0.00" departDelay="0.30" arrival="58184.00" arrivalLane="-315358254#1_1" arrivalPos="137.16" arrivalSpeed="12.79" duration="250.00" routeLength="1596.88" waitingTime="112.00" waitingCount="1" stopTime="0.00" timeLoss="134.64" rerouteNo="1" devices="tripinfo_carIn90834:1 routing_carIn90834:1" vType="default_016" speedFactor="1.00" vaporized=""/>
    <tripinfo id="h8701c1:1" depart="58062.00" departLane="24634510#1_1" departPos="5.10" departSpeed="0.00" departDelay="0.00" arrival="58184.00" arrivalLane="272042145_1" arrivalPos="234.87" arrivalSpeed="13.58" duration="122.00" routeLength="1502.87" waitingTime="0.00" waitingCount="0" stopTime="0.00" timeLoss="11.16" rerouteNo="1" devices="tripinfo_h8701c1:1 routing_h8701c1:1" vType="default_016" speedFactor="0.99" vaporized=""/>
    <tripinfo id="h7415c1:1" depart="58104.00" departLane="53396619#4_1" departPos="5.10" departSpeed="0.00" departDelay="0.00" arrival="58184.00" arrivalLane="386687235_1" arrivalPos="80.84" arrivalSpeed="11.99" duration="80.00" routeLength="614.45" waitingTime="1.00" waitingCount="1" stopTime="0.00" timeLoss="14.86" rerouteNo="1" devices="tripinfo_h7415c1:1 routing_h7415c1:1" vType="default_016" speedFactor="0.95" vaporized=""/>
    <tripinfo id="h5979c1:5" depart="57669.00" departLane="399835085#1_1" departPos="5.10" departSpeed="0.00" departDelay="0.00" arrival="58189.00" arrivalLane="-315358254#1_1" arrivalPos="137.16" arrivalSpeed="11.51" duration="520.00" routeLength="659.33" waitingTime="418.00" waitingCount="2" stopTime="0.00" timeLoss="436.60" rerouteNo="1" devices="tripinfo_h5979c1:5 routing_h5979c1:5" vType="default_016" speedFactor="0.88" vaporized=""/>
    <tripinfo id="carIn121351:1" depart="57755.00" departLane="-447569998#1_1" departPos="5.10" departSpeed="0.00" departDelay="0.30" arrival="58191.00" arrivalLane="399835085#1_1" arrivalPos="212.23" arrivalSpeed="8.43" duration="436.00" routeLength="1907.17" waitingTime="248.00" waitingCount="2" stopTime="0.00" timeLoss="275.91" rerouteNo="1" devices="tripinfo_carIn121351:1 routing_carIn121351:1" vType="default_015" speedFactor="1.01" vaporized=""/>
    <tripinfo id="h7445c2:1" depart="58087.00" departLane="54169231#1_1" departPos="5.10" departSpeed="0.00" departDelay="0.00" arrival="58196.00" arrivalLane="386687235_1" arrivalPos="80.84" arrivalSpeed="12.30" duration="109.00" routeLength="887.16" waitingTime="0.00" waitingCount="0" stopTime="0.00" timeLoss="16.88" rerouteNo="1" devices="tripinfo_h7445c2:1 routing_h7445c2:1" vType="default_016" speedFactor="0.97" vaporized=""/>
    <tripinfo id="h8449c1:3" depart="58116.00" departLane="176550249#3_1" departPos="5.10" departSpeed="0.00" departDelay="0.50" arrival="58197.00" arrivalLane="272042145_1" arrivalPos="234.87" arrivalSpeed="14.92" duration="81.00" routeLength="1113.61" waitingTime="0.00" waitingCount="0" stopTime="0.00" timeLoss="6.39" rerouteNo="1" devices="tripinfo_h8449c1:3 routing_h8449c1:3" vType="default_016" speedFactor="1.08" vaporized=""/>