<?xml version="1.0" encoding="UTF-8"?>

<!-- generated on 2023-08-30 22:20:56 by Eclipse SUMO libsumo Version 1.18.0
<configuration xmlns:xsi="http://www.w3.org/2001/XMLSchema-instance" xsi:noNamespaceSchemaLocation="http://sumo.dlr.de/xsd/libsumoConfiguration.xsd">

    <input>
        <net-file value="/home/stefan/RESCO/./environments/ingolstadt21/ingolstadt21.net.xml"/>
        <route-files value="/home/stefan/RESCO/./environments/ingolstadt21/ingolstadt21.rou.xml"/>
    </input>

    <output>
        <tripinfo-output value="/home/stefan/results/RAINBOW-tr0-ingolstadt21-21-drq_norm-wait_norm/tripinfo_96.xml"/>
        <tripinfo-output.write-unfinished value="true"/>
    </output>

    <time>
        <begin value="57600"/>
        <end value="61200"/>
    </time>

    <processing>
        <time-to-teleport value="-1"/>
    </processing>

    <report>
        <no-warnings value="True"/>
        <no-step-log value="True"/>
    </report>

    <random_number>
        <random value="true"/>
    </random_number>

</configuration>
-->

<tripinfos xmlns:xsi="http://www.w3.org/2001/XMLSchema-instance" xsi:noNamespaceSchemaLocation="http://sumo.dlr.de/xsd/tripinfo_file.xsd">
    <tripinfo id="carIn53971:1" depart="57640.00" departLane="272042143_1" departPos="5.10" departSpeed="0.00" departDelay="0.80" arrival="57693.00" arrivalLane="24634414#1_1" arrivalPos="162.19" arrivalSpeed="7.52" duration="53.00" routeLength="493.04" waitingTime="0.00" waitingCount="0" stopTime="0.00" timeLoss="7.21" rerouteNo="1" devices="tripinfo_carIn53971:1 routing_carIn53971:1" vType="default_016" speedFactor="0.99" vaporized=""/>
    <tripinfo id="h7800c1:5" depart="57696.00" departLane="-447569998#1_1" departPos="5.10" departSpeed="0.00" departDelay="0.00" arrival="57721.00" arrivalLane="-447569998#1_1" arrivalPos="180.76" arrivalSpeed="7.95" duration="25.00" routeLength="175.66" waitingTime="0.00" waitingCount="0" stopTime="0.00" timeLoss="3.14" rerouteNo="1" devices="tripinfo_h7800c1:5 routing_h7800c1:5" vType="default_016" speedFactor="0.97" vaporized=""/>
    <tripinfo id="h317c2:1" depart="57707.00" departLane="-32978638#0_1" departPos="5.10" departSpeed="0.00" departDelay="0.10" arrival="57745.00" arrivalLane="-266565295#5_1" arrivalPos="172.76" arrivalSpeed="10.98" duration="38.00" routeLength="370.53" waitingTime="0.00" waitingCount="0" stopTime="0.00" timeLoss="5.48" rerouteNo="1" devices="tripinfo_h317c2:1 routing_h317c2:1" vType="default_016" speedFactor="0.86" vaporized=""/>
    <tripinfo id="h5979c1:5" depart="57669.00" departLane="399835085#1_1" departPos="5.10" departSpeed="0.00" departDelay="0.00" arrival="57755.00" arrivalLane="-315358254#1_1" arrivalPos="137.16" arrivalSpeed="13.09" duration="86.00" routeLength="659.33" waitingTime="0.00" waitingCount="0" stopTime="0.00" timeLoss="10.52" rerouteNo="1" devices="tripinfo_h5979c1:5 routing_h5979c1:5" vType="default_016" speedFactor="0.96" vaporized=""/>
    <tripinfo id="h330c1:1" depart="57736.00" departLane="-32978638#0_1" departPos="5.10" departSpeed="0.00" departDelay="0.20" arrival="57767.00" arrivalLane="-266565295#5_1" arrivalPos="172.76" arrivalSpeed="14.88" duration="31.00" routeLength="370.53" waitingTime="0.00" waitingCount="0" stopTime="0.00" timeLoss="5.91" rerouteNo="1" devices="tripinfo_h330c1:1 routing_h330c1:1" vType="default_016" speedFactor="1.09" vaporized=""/>
    <tripinfo id="carIn27009:1" depart="57673.00" departLane="-447569998#1_1" departPos="5.10" departSpeed="0.00" departDelay="0.50" arrival="57768.00" arrivalLane="-26677539_1" arrivalPos="152.75" arrivalSpeed="7.92" duration="95.00" routeLength="699.63" waitingTime="0.00" waitingCount="0" stopTime="0.00" timeLoss="10.75" rerouteNo="1" devices="tripinfo_carIn27009:1 routing_carIn27009:1" vType="default_015" speedFactor="0.99" vaporized=""/>
    <tripinfo id="h3326c1:2" depart="57656.00" departLane="22716069#0_1" departPos="5.10" departSpeed="0.00" departDelay="0.00" arrival="57769.00" arrivalLane="24634517#13_1" arrivalPos="111.62" arrivalSpeed="12.61" duration="113.00" routeLength="1312.81" waitingTime="0.00" waitingCount="0" stopTime="0.00" timeLoss="13.56" rerouteNo="1" devices="tripinfo_h3326c1:2 routing_h3326c1:2" vType="default_016" speedFactor="0.98" vaporized=""/>
    <tripinfo id="carIn129809:1" depart="57729.00" departLane="-447569998#1_1" departPos="5.10" departSpeed="0.00" departDelay="1.00" arrival="57798.00" arrivalLane="-315358244_1" arrivalPos="33.95" arrivalSpeed="12.23" duration="69.00" routeLength="706.49" waitingTime="0.00" waitingCount="0" stopTime="0.00" timeLoss="6.03" rerouteNo="1" devices="tripinfo_carIn129809:1 routing_carIn129809:1" vType="default_015" speedFactor="0.96" vaporized=""/>
    <tripinfo id="carIn107282:1" depart="57749.00" departLane="-447569998#1_1" departPos="5.10" departSpeed="0.00" departDelay="0.00" arrival="57799.00" arrivalLane="315358242#0_1" arrivalPos="165.37" arrivalSpeed="11.94" duration="50.00" routeLength="448.50" waitingTime="0.00" waitingCount="0" stopTime="0.00" timeLoss="5.73" rerouteNo="1" devices="tripinfo_carIn107282:1 routing_carIn107282:1" vType="default_016" speedFactor="0.94" vaporized=""/>
    <tripinfo id="h17549c1:1" depart="57680.00" departLane="-447569998#1_1" departPos="5.10" departSpeed="0.00" departDelay="0.00" arrival="57833.00" arrivalLane="-315358254#1_1" arrivalPos="137.16" arrivalSpeed="13.01" duration="153.00" routeLength="1746.60" waitingTime="0.00" waitingCount="0" stopTime="0.00" timeLoss="14.85" rerouteNo="1" devices="tripinfo_h17549c1:1 routing_h17549c1:1" vType="default_016" speedFactor="0.99" vaporized=""/>
    <tripinfo id="randUni31145:1" depart="57814.00" departLane="10425609#0_1" departPos="5.10" departSpeed="0.00" departDelay="0.30" arrival="57848.00" arrivalLane="201956810_1" arrivalPos="71.65" arrivalSpeed="15.03" duration="34.00" routeLength="255.78" waitingTime="5.00" waitingCount="1" stopTime="0.00" timeLoss="16.03" rerouteNo="1" devices="tripinfo_randUni31145:1 routing_randUni31145:1" vType="random_016" speedFactor="1.12" vaporized=""/>
    <tripinfo id="carIn8642:1" depart="57774.00" departLane="-447569998#1_1" departPos="5.10" departSpeed="0.00" departDelay="0.90" arrival="57854.00" arrivalLane="-315358244_1" arrivalPos="33.95" arrivalSpeed="10.72" duration="80.00" routeLength="706.49" waitingTime="0.00" waitingCount="0" stopTime="0.00" timeLoss="7.34" rerouteNo="1" devices="tripinfo_carIn8642:1 routing_carIn8642:1" vType="default_016" speedFactor="0.83" vaporized=""/>
    <tripinfo id="carIn118538:1" depart="57683.00" departLane="-447569998#1_1" departPos="5.10" departSpeed="0.00" departDelay="1.00" arrival="57859.00" arrivalLane="399835085#1_1" arrivalPos="212.23" arrivalSpeed="7.97" duration="176.00" routeLength="1907.17" waitingTime="0.00" waitingCount="0" stopTime="0.00" timeLoss="23.29" rerouteNo="1" devices="tripinfo_carIn118538:1 routing_carIn118538:1" vType="default_016" speedFactor="1.06" vaporized=""/>
    <tripinfo id="randUni2407:1" depart="57820.00" departLane="10425609#0_1" departPos="5.10" departSpeed="0.00" departDelay="0.80" arrival="57864.00" arrivalLane="201956810_1" arrivalPos="71.65" arrivalSpeed="10.85" duration="44.00" routeLength="255.78" waitingTime="6.00" waitingCount="2" stopTime="0.00" timeLoss="19.48" rerouteNo="1" devices="tripinfo_randUni2407:1 routing_randUni2407:1" vType="random_016" speedFactor="0.82" vaporized=""/>
    <tripinfo id="randUni3548:1" depart="57726.00" departLane="-447569998#1_1" departPos="5.10" departSpeed="0.00" departDelay="0.00" arrival="57871.00" arrivalLane="-315358254#1_1" arrivalPos="137.16" arrivalSpeed="14.02" duration="145.00" routeLength="1746.60" waitingTime="0.00" waitingCount="0" stopTime="0.00" timeLoss="14.02" rerouteNo="1" devices="tripinfo_randUni3548:1 routing_randUni3548:1" vType="random_016" speedFactor="1.05" vaporized=""/>
    <tripinfo id="carIn70533:1" depart="57812.00" departLane="-447569998#1_1" departPos="5.10" departSpeed="0.00" departDelay="0.10" arrival="57875.00" arrivalLane="-315358244_1" arrivalPos="33.95" arrivalSpeed="14.06" duration="63.00" routeLength="706.49" waitingTime="0.00" waitingCount="0" stopTime="0.00" timeLoss="6.12" rerouteNo="1" devices="tripinfo_carIn70533:1 routing_carIn70533:1" vType="default_016" speedFactor="1.07" vaporized=""/>
    <tripinfo id="randUni23028:1" depart="57884.00" departLane="124812856#0_1" departPos="5.10" departSpeed="0.00" departDelay="0.10" arrival="57900.00" arrivalLane="201956810_1" arrivalPos="71.65" arrivalSpeed="13.61" duration="16.00" routeLength="134.91" waitingTime="0.00" waitingCount="0" stopTime="0.00" timeLoss="4.86" rerouteNo="1" devices="tripinfo_randUni23028:1 routing_randUni23028:1" vType="random_016" speedFactor="1.00" vaporized=""/>
    <tripinfo id="carIn13353:1" depart="57838.00" departLane="-447569998#1_1" departPos="5.10" departSpeed="0.00" departDelay="0.30" arrival="57903.00" arrivalLane="-315358244_1" arrivalPos="33.95" arrivalSpeed="13.36" duration="65.00" routeLength="706.49" waitingTime="0.00" waitingCount="0" stopTime="0.00" timeLoss="6.72" rerouteNo="1" devices="tripinfo_carIn13353:1 routing_carIn13353:1" vType="default_016" speedFactor="1.05" vaporized=""/>
    <tripinfo id="carIn63848:1" depart="57841.00" departLane="-447569998#1_1" departPos="5.10" departSpeed="0.00" departDelay="0.80" arrival="57918.00" arrivalLane="-315358244_1" arrivalPos="33.95" arrivalSpeed="11.12" duration="77.00" routeLength="706.49" waitingTime="0.00" waitingCount="0" stopTime="0.00" timeLoss="7.36" rerouteNo="1" devices="tripinfo_carIn63848:1 routing_carIn63848:1" vType="default_016" speedFactor="0.87" vaporized=""/>
    <tripinfo id="h6846c2:1" depart="57741.00" departLane="26677213#0_1" departPos="5.10" departSpeed="0.00" departDelay="0.00" arrival="57920.00" arrivalLane="386687235_1" arrivalPos="80.84" arrivalSpeed="11.28" duration="179.00" routeLength="1412.24" waitingTime="0.00" waitingCount="0" stopTime="0.00" timeLoss="22.67" rerouteNo="1" devices="tripinfo_h6846c2:1 routing_h6846c2:1" vType="default_016" speedFactor="0.89" vaporized=""/>
    <tripinfo id="carIn82298:1" depart="57783.00" departLane="-447569998#1_1" departPos="5.10" departSpeed="0.00" departDelay="0.60" arrival="57922.00" arrivalLane="-315358254#1_1" arrivalPos="137.16" arrivalSpeed="14.07" duration="139.00" routeLength="1746.60" waitingTime="0.00" waitingCount="0" stopTime="0.00" timeLoss="14.16" rerouteNo="1" devices="tripinfo_carIn82298:1 routing_carIn82298:1" vType="default_016" speedFactor="1.09" vaporized=""/>
    <tripinfo id="carIn121351:1" depart="57755.00" departLane="-447569998#1_1" departPos="5.10" departSpeed="0.00" departDelay="0.30" arrival="57927.00" arrivalLane="399835085#1_1" arrivalPos="212.23" arrivalSpeed="9.10" duration="172.00" routeLength="1907.17" waitingTime="4.00" waitingCount="1" stopTime="0.00" timeLoss="24.58" rerouteNo="1" devices="tripinfo_carIn121351:1 routing_carIn121351:1" vType="default_015" speedFactor="1.10" vaporized=""/>
    <tripinfo id="randUni16001:1" depart="57912.00" departLane="10425609#0_1" departPos="5.10" departSpeed="0.00" departDelay="0.30" arrival="57938.00" arrivalLane="201956810_1" arrivalPos="71.65" arrivalSpeed="14.16" duration="26.00" routeLength="255.78" waitingTime="0.00" waitingCount="0" stopTime="0.00" timeLoss="7.23" rerouteNo="1" devices="tripinfo_randUni16001:1 routing_randUni16001:1" vType="random_016" speedFactor="1.04" vaporized=""/>
    <tripinfo id="h21699c2:1" depart="57890.00" departLane="-32978638#0_1" departPos="5.10" departSpeed="0.00" departDelay="1.90" arrival="57973.00" arrivalLane="-315358242#1_2" arrivalPos="93.35" arrivalSpeed="12.78" duration="83.00" routeLength="1000.41" waitingTime="0.00" waitingCount="0" stopTime="0.00" timeLoss="8.77" rerouteNo="1" devices="tripinfo_h21699c2:1 routing_h21699c2:1" vType="default_016" speedFactor="0.99" vaporized=""/>
    <tripinfo id="h7032c2:3" depart="57863.00" departLane="315358244_1" departPos="5.10" departSpeed="0.00" departDelay="0.40" arrival="57974.00" arrivalLane="26677541_1" arrivalPos="152.31" arrivalSpeed="11.75" duration="111.00" routeLength="901.39" waitingTime="0.00" waitingCount="0" stopTime="0.00" timeLoss="13.23" rerouteNo="1" devices="tripinfo_h7032c2:3 routing_h7032c2:3" vType="default_016" speedFactor="0.85" vaporized=""/>
    <tripinfo id="carIn113750:1" depart="57961.00" departLane="24599188#0.94_1" departPos="5.10" departSpeed="0.00" departDelay="0.30" arrival="57992.00" arrivalLane="24599188#0.94_1" arrivalPos="186.59" arrivalSpeed="6.55" duration="31.00" routeLength="181.49" waitingTime="0.00" waitingCount="0" stopTime="0.00" timeLoss="4.46" rerouteNo="1" devices="tripinfo_carIn113750:1 routing_carIn113750:1" vType="default_016" speedFactor="0.85" vaporized=""/>
    <tripinfo id="h4574c1:3" depart="57907.00" departLane="-137454133#5_1" departPos="5.10" departSpeed="0.00" departDelay="0.00" arrival="57995.00" arrivalLane="201238729#3_1" arrivalPos="431.02" arrivalSpeed="11.67" duration="88.00" routeLength="979.11" waitingTime="0.00" waitingCount="0" stopTime="0.00" timeLoss="13.25" rerouteNo="1" devices="tripinfo_h4574c1:3 routing_h4574c1:3" vType="default_016" speedFactor="0.91" vaporized=""/>
    <tripinfo id="h4391c1:3" depart="57997.00" departLane="-32978638#0_1" departPos="5.10" departSpeed="0.00" departDelay="0.90" arrival="58032.00" arrivalLane="-266565295#5_1" arrivalPos="172.76" arrivalSpeed="12.96" duration="35.00" routeLength="370.53" waitingTime="0.00" waitingCount="0" stopTime="0.00" timeLoss="6.53" rerouteNo="1" devices="tripinfo_h4391c1:3 routing_h4391c1:3" vType="default_016" speedFactor="0.96" vaporized=""/>
    <tripinfo id="h7649c2:1" depart="57988.00" departLane="-447569998#1_1" departPos="5.10" departSpeed="0.00" departDelay="0.20" arrival="58066.00" arrivalLane="-315358244_1" arrivalPos="33.95" arrivalSpeed="11.63" duration="78.00" routeLength="706.49" waitingTime="0.00" waitingCount="0" stopTime="0.00" timeLoss="6.84" rerouteNo="1" devices="tripinfo_h7649c2:1 routing_h7649c2:1" vType="default_016" speedFactor="0.85" vaporized=""/>
    <tripinfo id="carIn130975:1" depart="58017.00" departLane="-447569998#1_1" departPos="5.10" departSpeed="0.00" departDelay="0.10" arrival="58083.00" arrivalLane="-315358244_1" arrivalPos="33.95" arrivalSpeed="12.95" duration="66.00" routeLength="706.49" waitingTime="0.00" waitingCount="0" stopTime="0.00" timeLoss="6.27" rerouteNo="1" devices="tripinfo_carIn130975:1 routing_carIn130975:1" vType="default_015" speedFactor="1.02" vaporized=""/>
    <tripinfo id="carIn99077:1" depart="58021.00" departLane="-447569998#1_1" departPos="5.10" departSpeed="0.00" departDelay="0.50" arrival="58088.00" arrivalLane="-315358244_1" arrivalPos="33.95" arrivalSpeed="14.04" duration="67.00" routeLength="706.49" waitingTime="0.00" waitingCount="0" stopTime="0.00" timeLoss="6.36" rerouteNo="1" devices="tripinfo_carIn99077:1 routing_carIn99077:1" vType="default_016" speedFactor="1.01" vaporized=""/>
    <tripinfo id="h1626c2:3" depart="57984.00" departLane="201201935#0_1" departPos="5.10" departSpeed="0.00" departDelay="0.50" arrival="58103.00" arrivalLane="-32395288#1_0" arrivalPos="21.79" arrivalSpeed="1.93" duration="119.00" routeLength="952.80" waitingTime="0.00" waitingCount="0" stopTime="0.00" timeLoss="16.97" rerouteNo="1" devices="tripinfo_h1626c2:3 routing_h1626c2:3" vType="default_016" speedFactor="1.11" vaporized=""/>
    <tripinfo id="randUni22786:1" depart="58065.00" departLane="10425609#0_1" departPos="5.10" departSpeed="0.00" departDelay="0.00" arrival="58107.00" arrivalLane="201956810_1" arrivalPos="71.65" arrivalSpeed="14.07" duration="42.00" routeLength="255.78" waitingTime="9.00" waitingCount="2" stopTime="0.00" timeLoss="22.46" rerouteNo="1" devices="tripinfo_randUni22786:1 routing_randUni22786:1" vType="random_016" speedFactor="1.01" vaporized=""/>
    <tripinfo id="h4794c2:1" depart="58074.00" departLane="-224892361#8_1" departPos="5.10" departSpeed="0.00" departDelay="0.00" arrival="58138.00" arrivalLane="306240162#0_0" arrivalPos="220.43" arrivalSpeed="16.09" duration="64.00" routeLength="979.18" waitingTime="0.00" waitingCount="0" stopTime="0.00" timeLoss="12.62" rerouteNo="1" devices="tripinfo_h4794c2:1 routing_h4794c2:1" vType="default_016" speedFactor="0.99" vaporized=""/>
    <tripinfo id="h5801c1:1" depart="57970.00" departLane="-26677216#0_1" departPos="5.10" departSpeed="0.00" departDelay="0.00" arrival="58155.00" arrivalLane="386687235_1" arrivalPos="80.84" arrivalSpeed="10.99" duration="185.00" routeLength="1335.31" waitingTime="10.00" waitingCount="1" stopTime="0.00" timeLoss="32.99" rerouteNo="1" devices="tripinfo_h5801c1:1 routing_h5801c1:1" vType="default_016" speedFactor="0.87" vaporized=""/>
    <tripinfo id="h7618c2:1" depart="58128.00" departLane="-25117417#1_1" departPos="5.10" departSpeed="0.00" departDelay="0.00" arrival="58166.00" arrivalLane="-315358244_1" arrivalPos="33.95" arrivalSpeed="16.17" duration="38.00" routeLength="415.59" waitingTime="0.00" waitingCount="0" stopTime="0.00" timeLoss="5.45" rerouteNo="1" devices="tripinfo_h7618c2:1 routing_h7618c2:1" vType="default_016" speedFactor="1.18" vaporized=""/>
    <tripinfo id="h7415c1:1" depart="58104.00" departLane="53396619#4_1" departPos="5.10" departSpeed="0.00" departDelay="0.00" arrival="58175.00" arrivalLane="386687235_1" arrivalPos="80.84" arrivalSpeed="14.10" duration="71.00" routeLength="614.45" waitingTime="0.00" waitingCount="0" stopTime="0.00" timeLoss="10.01" rerouteNo="1" devices="tripinfo_h7415c1:1 routing_h7415c1:1" vType="default_016" speedFactor="1.02" vaporized=""/>
    <tripinfo id="h8701c1:1" depart="58062.00" departLane="24634510#1_1" departPos="5.10" departSpeed="0.00" departDelay="0.00" arrival="58177.00" arrivalLane="272042145_1" arrivalPos="234.87" arrivalSpeed="13.48" duration="115.00" routeLength="1502.87" waitingTime="0.00" waitingCount="0" stopTime="0.00" timeLoss="11.74" rerouteNo="1" devices="tripinfo_h8701c1:1 routing_h8701c1:1" vType="default_016" speedFactor="1.06" vaporized=""/>
    <tripinfo id="randUni1534:1" depart="57949.00" departLane="-447569998#1_1" departPos="5.10" departSpeed="0.00" departDelay="0.30" arrival="58185.00" arrivalLane="40888356#0_1" arrivalPos="103.49" arrivalSpeed="14.84" duration="236.00" routeLength="2342.30" waitingTime="35.00" waitingCount="1" stopTime="0.00" timeLoss="61.80" rerouteNo="1" devices="tripinfo_randUni1534:1 routing_randUni1534:1" vType="random_016" speedFactor="1.12" vaporized=""/>
    <tripinfo id="h5559c1:1" depart="58108.00" departLane="-201950247#0_1" departPos="5.10" departSpeed="0.00" departDelay="0.10" arrival="58191.00" arrivalLane="386687235_1" arrivalPos="80.84" arrivalSpeed="14.17" duration="83.00" routeLength="904.10" waitingTime="0.00" waitingCount="0" stopTime="0.00" timeLoss="11.34" rerouteNo="1" devices="tripinfo_h5559c1:1 routing_h5559c1:1" vType="default_016" speedFactor="1.11" vaporized=""/>
    <tripinfo id="h3823c2:3" depart="58116.00" departLane="-32978638#0_1" departPos="5.10" departSpeed="0.00" departDelay="0.00" arrival="58191.00" arrivalLane="24634414#2_1" arrivalPos="105.05" arrivalSpeed="10.17" duration="75.00" routeLength="833.31" waitingTime="0.00" waitingCount="0" stopTime="0.00" timeLoss="13.01" rerouteNo="1" devices="tripinfo_h3823c2:3 routing_h3823c2:3" vType="default_016" speedFactor="1.23" vaporized=""/>
    <tripinfo id="h7445c2:1" depart="58087.00" departLane="54169231#1_1" departPos="5.10" departSpeed="0.00" departDelay="0.00" arrival="58198.00" arrivalLane="386687235_1" arrivalPos="80.84" arrivalSpeed="12.51" duration="111.00" routeLength="887.16" waitingTime="0.00" waitingCount="0" stopTime="0.00" timeLoss="19.52" rerouteNo="1" devices="tripinfo_h7445c2:1 routing_h7445c2:1" vType="default_016" speedFactor="0.98" vaporized=""/>
    <tripinfo id="h7072c2:1" depart="58036.00" departLane="315358244_1" departPos="5.10" departSpeed="0.00" departDelay="0.40" arrival="58199.00" arrivalLane="386687235_1" arrivalPos="80.84" arrivalSpeed="15.18" duration="163.00" routeLength="1701.77" waitingTime="0.00" waitingCount="0" stopTime="0.00" timeLoss="23.39" rerouteNo="1" devices="tripinfo_h7072c2:1 routing_h7072c2:1" vType="default_016" speedFactor="1.13" vaporized=""/>
    <tripinfo id="h8552c1:1" depart="58132.00" departLane="176550249#4_1" departPos="5.10" departSpeed="0.00" departDelay="0.40" arrival="58202.00" arrivalLane="272042145_1" arrivalPos="234.87" arrivalSpeed="13.84" duration="70.00" routeLength="911.47" waitingTime="0.00" waitingCount="0" stopTime="0.00" timeLoss="6.23" rerouteNo="1" devices="tripinfo_h8552c1:1 routing_h8552c1:1" vType="default_016" speedFactor="1.04" vaporized=""/>
    <tripinfo id="h8449c1:3" depart="58116.00" departLane="176550249#3_1" departPos="5.10" departSpeed="0.00" departDelay="0.50" arrival="58213.00" arrivalLane="272042145_1" arrivalPos="234.87" arrivalSpeed="11.30" duration="97.00" routeLength="1113.61" waitingTime="0.00" waitingCount="0" stopTime="0.00" timeLoss="7.73" rerouteNo="1" devices="tripinfo_h8449c1:3 routing_h8449c1:3" vType="default_016" speedFactor="0.91" vaporized=""/>
    <tripinfo id="h5183c2:1" depart="58014.00" departLane="201238719#0_1" departPos="5.10" departSpeed="0.00" departDelay="0.00" arrival="58222.00" arrivalLane="32978638#0_1" arrivalPos="49.29" arrivalSpeed="12.86" duration="208.00" routeLength="2487.90" waitingTime="0.00" waitingCount="0" stopTime="0.00" timeLoss="22.89" rerouteNo="1" devices="tripinfo_h5183c2:1 routing_h5183c2:1" vType="default_016" speedFactor="0.97" vaporized=""/>
    <tripinfo id="h16288c1:3" depart="58210.00" departLane="-32978638#0_1" departPos="5.10" departSpeed="0.00" departDelay="3.20" arrival="58243.00" arrivalLane="-266565295#5_1" arrivalPos="172.76" arrivalSpeed="13.95" duration="33.00" routeLength="370.53" waitingTime="0.00" waitingCount="0" stopTime="0.00" timeLoss="6.61" rerouteNo="1" devices="tripinfo_h16288c1:3 routing_h16288c1:3" vType="default_016" speedFactor="1.03" vaporized=""/>
    <tripinfo id="h8230c1:3" depart="58155.00" departLane="-24634505_1" departPos="5.10" departSpeed="0.00" departDelay="0.00" arrival="58252.00" arrivalLane="272042145_1" arrivalPos="234.87" arrivalSpeed="14.91" duration="97.00" routeLength="882.67" waitingTime="0.00" waitingCount="0" stopTime="0.00" timeLoss="13.75" rerouteNo="1" devices="tripinfo_h8230c1:3 routing_h8230c1:3" vType="default_016" speedFactor="1.09" vaporized=""/>
    <tripinfo id="h11064c2:3" depart="58065.00" departLane="315358244_1" departPos="5.10" departSpeed="0.00" departDelay="0.80" arrival="58255.00" arrivalLane="386687235_1" arrivalPos="80.84" arrivalSpeed="12.87" duration="190.00" routeLength="1701.77" waitingTime="1.00" waitingCount="1" stopTime="0.00" timeLoss="24.14" rerouteNo="1" devices="tripinfo_h11064c2:3 routing_h11064c2:3" vType="default_016" speedFactor="0.96" vaporized=""/>
    <tripinfo id="carIn41543:1" depart="58207.00" departLane="-447569998#1_1" departPos="5.10" departSpeed="0.00" departDelay="0.70" arrival="58272.00" arrivalLane="-315358244_1" arrivalPos="33.95" arrivalSpeed="13.41" duration="65.00" routeLength="706.49" waitingTime="0.00" waitingCount="0" stopTime="0.00" timeLoss="6.46" rerouteNo="1" devices="tripinfo_carIn41543:1 routing_carIn41543:1" vType="default_015" speedFactor="1.03" vaporized=""/>
    <tripinfo id="h5350c1:3" depart="58199.00" departLane="315358254#0_1" departPos="5.10" departSpeed="0.00" departDelay="2.20" arrival="58291.00" arrivalLane="28319300#3_1" arrivalPos="85.93" arrivalSpeed="7.63" duration="92.00" routeLength="738.32" waitingTime="5.00" waitingCount="1" stopTime="0.00" timeLoss="18.17" rerouteNo="1" devices="tripinfo_h5350c1:3 routing_h5350c1:3" vType="default_016" speedFactor="1.01" vaporized=""/>
    <tripinfo id="carIn66973:1" depart="58231.00" departLane="-447569998#1_1" departPos="5.10" departSpeed="0.00" departDelay="0.10" arrival="58299.00" arrivalLane="-315358244_1" arrivalPos="33.95" arrivalSpeed="13.36" duration="68.00" routeLength="706.49" waitingTime="0.00" waitingCount="0" stopTime="0.00" timeLoss="6.34" rerouteNo="1" devices="tripinfo_carIn66973:1 routing_carIn66973:1" vType="default_016" speedFactor="0.98" vaporized=""/>
    <tripinfo id="h923c1:1" depart="58053.00" departLane="10425609#0_1" departPos="5.10" departSpeed="0.00" departDelay="2.70" arrival="58302.00" arrivalLane="-218647954_1" arrivalPos="72.82" arrivalSpeed="2.17" duration="249.00" routeLength="1924.04" waitingTime="8.00" waitingCount="2" stopTime="0.00" timeLoss="53.61" rerouteNo="1" devices="tripinfo_h923c1:1 routing_h923c1:1" vType="default_016" speedFactor="0.89" vaporized=""/>
    <tripinfo id="h3249c2:1" depart="58018.00" departLane="24634513#0_0" departPos="5.10" departSpeed="0.00" departDelay="0.00" arrival="58314.00" arrivalLane="272042145_1" arrivalPos="234.87" arrivalSpeed="10.66" duration="296.00" routeLength="1693.33" waitingTime="0.00" waitingCount="0" stopTime="0.00" timeLoss="50.15" rerouteNo="1" devices="tripinfo_h3249c2:1 routing_h3249c2:1" vType="default_016" speedFactor="0.77" vaporized=""/>
    <tripinfo id="h9695c1:3" depart="58259.00" departLane="-447569998#1_1" departPos="5.10" departSpeed="0.00" departDelay="0.10" arrival="58320.00" arrivalLane="-315358244_1" arrivalPos="33.95" arrivalSpeed="15.37" duration="61.00" routeLength="706.49" waitingTime="0.00" waitingCount="0" stopTime="0.00" timeLoss="6.69" rerouteNo="1" devices="tripinfo_h9695c1:3 routing_h9695c1:3" vType="default_016" speedFactor="1.11" vaporized=""/>
    <tripinfo id="carIn44560:1" depart="58262.00" departLane="-447569998#1_1" departPos="5.10" departSpeed="0.00" departDelay="1.00" arrival="58327.00" arrivalLane="-315358244_1" arrivalPos="33.95" arrivalSpeed="13.25" duration="65.00" routeLength="706.49" waitingTime="0.00" waitingCount="0" stopTime="0.00" timeLoss="6.80" rerouteNo="1" devices="tripinfo_carIn44560:1 routing_carIn44560:1" vType="default_016" speedFactor="1.04" vaporized=""/>
    <tripinfo id="h6365c2:1" depart="58274.00" departLane="129379925_1" departPos="5.10" departSpeed="0.00" departDelay="0.00" arrival="58337.00" arrivalLane="386687235_1" arrivalPos="80.84" arrivalSpeed="10.04" duration="63.00" routeLength="617.50" waitingTime="0.00" waitingCount="0" stopTime="0.00" timeLoss="6.90" rerouteNo="1" devices="tripinfo_h6365c2:1 routing_h6365c2:1" vType="default_016" speedFactor="0.81" vaporized=""/>
    <tripinfo id="carIn104860:1" depart="58195.00" departLane="-30482615#4_0" departPos="5.10" departSpeed="0.00" departDelay="0.60" arrival="58355.00" arrivalLane="18809673#0_1" arrivalPos="473.56" arrivalSpeed="11.21" duration="160.00" routeLength="958.56" waitingTime="4.00" waitingCount="1" stopTime="0.00" timeLoss="25.85" rerouteNo="1" devices="tripinfo_carIn104860:1 routing_carIn104860:1" vType="default_016" speedFactor="0.87" vaporized=""/>
    <tripinfo id="carIn36101:1" depart="58284.00" departLane="-447569998#1_1" departPos="5.10" departSpeed="0.00" departDelay="1.70" arrival="58355.00" arrivalLane="-315358244_1" arrivalPos="33.95" arrivalSpeed="12.91" duration="71.00" routeLength="706.49" waitingTime="0.00" waitingCount="0" stopTime="0.00" timeLoss="7.25" rerouteNo="1" devices="tripinfo_carIn36101:1 routing_carIn36101:1" vType="default_016" speedFactor="0.94" vaporized=""/>
    <tripinfo id="randUni32801:1" depart="58337.00" departLane="447569997#1_1" departPos="5.10" departSpeed="0.00" departDelay="0.00" arrival="58361.00" arrivalLane="447569997#1_1" arrivalPos="180.93" arrivalSpeed="8.46" duration="24.00" routeLength="175.83" waitingTime="0.00" waitingCount="0" stopTime="0.00" timeLoss="3.06" rerouteNo="1" devices="tripinfo_randUni32801:1 routing_randUni32801:1" vType="random_016" speedFactor="1.02" vaporized=""/>
    <tripinfo id="h2859c1:1" depart="57822.00" departLane="201238726#0.117_1" departPos="5.10" departSpeed="0.00" departDelay="0.10" arrival="58373.00" arrivalLane="386687235_1" arrivalPos="80.84" arrivalSpeed="15.16" duration="551.00" routeLength="1631.78" waitingTime="432.00" waitingCount="1" stopTime="0.00" timeLoss="446.34" rerouteNo="1" devices="tripinfo_h2859c1:1 routing_h2859c1:1" vType="default_016" speedFactor="1.14" vaporized=""/>
    <tripinfo id="h3426c1:1" depart="57864.00" departLane="-160314345#2_1" departPos="5.10" departSpeed="0.00" departDelay="0.00" arrival="58373.00" arrivalLane="386687235_2" arrivalPos="80.84" arrivalSpeed="13.73" duration="509.00" routeLength="726.87" waitingTime="425.00" waitingCount="1" stopTime="0.00" timeLoss="443.83" rerouteNo="1" devices="tripinfo_h3426c1:1 routing_h3426c1:1" vType="default_016" speedFactor="1.04" vaporized=""/>
    <tripinfo id="h2796c2:1" depart="58253.00" departLane="176550249#0_1" departPos="5.10" departSpeed="0.00" departDelay="0.00" arrival="58373.00" arrivalLane="-24634506#2_1" arrivalPos="71.32" arrivalSpeed="12.52" duration="120.00" routeLength="1306.77" waitingTime="0.00" waitingCount="0" stopTime="0.00" timeLoss="15.99" rerouteNo="1" devices="tripinfo_h2796c2:1 routing_h2796c2:1" vType="default_016" speedFactor="0.98" vaporized=""/>
    <tripinfo id="h4804c2:3" depart="58258.00" departLane="315358254#0_1" departPos="5.10" departSpeed="0.00" departDelay="0.90" arrival="58381.00" arrivalLane="-22724699#1_1" arrivalPos="53.01" arrivalSpeed="10.69" duration="123.00" routeLength="1224.37" waitingTime="0.00" waitingCount="0" stopTime="0.00" timeLoss="19.45" rerouteNo="1" devices="tripinfo_h4804c2:3 routing_h4804c2:3" vType="default_016" speedFactor="1.29" vaporized=""/>
    <tripinfo id="h4013c1:3" depart="58353.00" departLane="-32978638#0_1" departPos="5.10" departSpeed="0.00" departDelay="0.40" arrival="58387.00" arrivalLane="-266565295#5_1" arrivalPos="172.76" arrivalSpeed="13.35" duration="34.00" routeLength="370.53" waitingTime="0.00" waitingCount="0" stopTime="0.00" timeLoss="6.53" rerouteNo="1" devices="tripinfo_h4013c1:3 routing_h4013c1:3" vType="default_016" speedFactor="1.00" vaporized=""/>