<?xml version="1.0" encoding="UTF-8"?>

<!-- generated on 2023-08-30 22:10:58 by Eclipse SUMO libsumo Version 1.18.0
<configuration xmlns:xsi="http://www.w3.org/2001/XMLSchema-instance" xsi:noNamespaceSchemaLocation="http://sumo.dlr.de/xsd/libsumoConfiguration.xsd">

    <input>
        <net-file value="/home/stefan/RESCO/./environments/ingolstadt21/ingolstadt21.net.xml"/>
        <route-files value="/home/stefan/RESCO/./environments/ingolstadt21/ingolstadt21.rou.xml"/>
    </input>

    <output>
        <tripinfo-output value="/home/stefan/results/RAINBOW-tr0-ingolstadt21-21-drq_norm-wait_norm/tripinfo_88.xml"/>
        <tripinfo-output.write-unfinished value="true"/>
    </output>

    <time>
        <begin value="57600"/>
        <end value="61200"/>
    </time>

    <processing>
        <time-to-teleport value="-1"/>
    </processing>

    <report>
        <no-warnings value="True"/>
        <no-step-log value="True"/>
    </report>

    <random_number>
        <random value="true"/>
    </random_number>

</configuration>
-->

<tripinfos xmlns:xsi="http://www.w3.org/2001/XMLSchema-instance" xsi:noNamespaceSchemaLocation="http://sumo.dlr.de/xsd/tripinfo_file.xsd">
    <tripinfo id="carIn53971:1" depart="57640.00" departLane="272042143_1" departPos="5.10" departSpeed="0.00" departDelay="0.80" arrival="57703.00" arrivalLane="24634414#1_1" arrivalPos="162.19" arrivalSpeed="6.57" duration="63.00" routeLength="493.04" waitingTime="0.00" waitingCount="0" stopTime="0.00" timeLoss="9.16" rerouteNo="1" devices="tripinfo_carIn53971:1 routing_carIn53971:1" vType="default_016" speedFactor="0.86" vaporized=""/>
    <tripinfo id="h3688c1:1" depart="57625.00" departLane="201201950#1_1" departPos="5.10" departSpeed="0.00" departDelay="0.00" arrival="57714.00" arrivalLane="32978638#0_1" arrivalPos="49.29" arrivalSpeed="12.91" duration="89.00" routeLength="1089.75" waitingTime="0.00" waitingCount="0" stopTime="0.00" timeLoss="10.89" rerouteNo="1" devices="tripinfo_h3688c1:1 routing_h3688c1:1" vType="default_016" speedFactor="1.02" vaporized=""/>
    <tripinfo id="h7800c1:5" depart="57696.00" departLane="-447569998#1_1" departPos="5.10" departSpeed="0.00" departDelay="0.00" arrival="57718.00" arrivalLane="-447569998#1_1" arrivalPos="180.76" arrivalSpeed="8.82" duration="22.00" routeLength="175.66" waitingTime="0.00" waitingCount="0" stopTime="0.00" timeLoss="2.61" rerouteNo="1" devices="tripinfo_h7800c1:5 routing_h7800c1:5" vType="default_016" speedFactor="1.11" vaporized=""/>
    <tripinfo id="h317c2:1" depart="57707.00" departLane="-32978638#0_1" departPos="5.10" departSpeed="0.00" departDelay="0.10" arrival="57740.00" arrivalLane="-266565295#5_1" arrivalPos="172.76" arrivalSpeed="13.09" duration="33.00" routeLength="370.53" waitingTime="0.00" waitingCount="0" stopTime="0.00" timeLoss="5.61" rerouteNo="1" devices="tripinfo_h317c2:1 routing_h317c2:1" vType="default_016" speedFactor="1.02" vaporized=""/>
    <tripinfo id="h330c1:1" depart="57736.00" departLane="-32978638#0_1" departPos="5.10" departSpeed="0.00" departDelay="0.20" arrival="57769.00" arrivalLane="-266565295#5_1" arrivalPos="172.76" arrivalSpeed="14.29" duration="33.00" routeLength="370.53" waitingTime="0.00" waitingCount="0" stopTime="0.00" timeLoss="6.47" rerouteNo="1" devices="tripinfo_h330c1:1 routing_h330c1:1" vType="default_016" speedFactor="1.06" vaporized=""/>
    <tripinfo id="h3326c1:2" depart="57656.00" departLane="22716069#0_1" departPos="5.10" departSpeed="0.00" departDelay="0.00" arrival="57770.00" arrivalLane="24634517#13_1" arrivalPos="111.62" arrivalSpeed="12.62" duration="114.00" routeLength="1312.81" waitingTime="0.00" waitingCount="0" stopTime="0.00" timeLoss="15.97" rerouteNo="1" devices="tripinfo_h3326c1:2 routing_h3326c1:2" vType="default_016" speedFactor="1.00" vaporized=""/>
    <tripinfo id="carIn27009:1" depart="57673.00" departLane="-447569998#1_1" departPos="5.10" departSpeed="0.00" departDelay="0.50" arrival="57774.00" arrivalLane="-26677539_1" arrivalPos="152.75" arrivalSpeed="7.60" duration="101.00" routeLength="699.63" waitingTime="0.00" waitingCount="0" stopTime="0.00" timeLoss="12.81" rerouteNo="1" devices="tripinfo_carIn27009:1 routing_carIn27009:1" vType="default_015" speedFactor="0.95" vaporized=""/>
    <tripinfo id="carIn107282:1" depart="57749.00" departLane="-447569998#1_1" departPos="5.10" departSpeed="0.00" departDelay="0.00" arrival="57792.00" arrivalLane="315358242#0_1" arrivalPos="165.37" arrivalSpeed="14.21" duration="43.00" routeLength="448.50" waitingTime="0.00" waitingCount="0" stopTime="0.00" timeLoss="5.22" rerouteNo="1" devices="tripinfo_carIn107282:1 routing_carIn107282:1" vType="default_016" speedFactor="1.10" vaporized=""/>
    <tripinfo id="carIn129809:1" depart="57729.00" departLane="-447569998#1_1" departPos="5.10" departSpeed="0.00" departDelay="1.00" arrival="57793.00" arrivalLane="-315358244_1" arrivalPos="33.95" arrivalSpeed="14.00" duration="64.00" routeLength="706.49" waitingTime="0.00" waitingCount="0" stopTime="0.00" timeLoss="6.05" rerouteNo="1" devices="tripinfo_carIn129809:1 routing_carIn129809:1" vType="default_015" speedFactor="1.05" vaporized=""/>
    <tripinfo id="randUni31145:1" depart="57814.00" departLane="10425609#0_1" departPos="5.10" departSpeed="0.00" departDelay="0.30" arrival="57848.00" arrivalLane="201956810_1" arrivalPos="71.65" arrivalSpeed="12.43" duration="34.00" routeLength="255.78" waitingTime="4.00" waitingCount="1" stopTime="0.00" timeLoss="13.26" rerouteNo="1" devices="tripinfo_randUni31145:1 routing_randUni31145:1" vType="random_016" speedFactor="0.95" vaporized=""/>
    <tripinfo id="carIn8642:1" depart="57774.00" departLane="-447569998#1_1" departPos="5.10" departSpeed="0.00" departDelay="0.90" arrival="57854.00" arrivalLane="-315358244_1" arrivalPos="33.95" arrivalSpeed="10.89" duration="80.00" routeLength="706.49" waitingTime="0.00" waitingCount="0" stopTime="0.00" timeLoss="7.40" rerouteNo="1" devices="tripinfo_carIn8642:1 routing_carIn8642:1" vType="default_016" speedFactor="0.83" vaporized=""/>
    <tripinfo id="randUni2407:1" depart="57820.00" departLane="10425609#0_1" departPos="5.10" departSpeed="0.00" departDelay="0.80" arrival="57858.00" arrivalLane="201956810_1" arrivalPos="71.65" arrivalSpeed="12.35" duration="38.00" routeLength="255.78" waitingTime="6.00" waitingCount="1" stopTime="0.00" timeLoss="17.62" rerouteNo="1" devices="tripinfo_randUni2407:1 routing_randUni2407:1" vType="random_016" speedFactor="0.97" vaporized=""/>
    <tripinfo id="h6541c1:3" depart="57727.00" departLane="201950247#3_1" departPos="5.10" departSpeed="0.00" departDelay="0.00" arrival="57859.00" arrivalLane="32978638#0_1" arrivalPos="49.29" arrivalSpeed="13.76" duration="132.00" routeLength="1176.17" waitingTime="22.00" waitingCount="1" stopTime="0.00" timeLoss="36.20" rerouteNo="1" devices="tripinfo_h6541c1:3 routing_h6541c1:3" vType="default_016" speedFactor="1.07" vaporized=""/>
    <tripinfo id="h3536c1:1" depart="57767.00" departLane="-24634413#2_1" departPos="5.10" departSpeed="0.00" departDelay="0.00" arrival="57868.00" arrivalLane="32978638#0_1" arrivalPos="49.29" arrivalSpeed="14.30" duration="101.00" routeLength="953.61" waitingTime="0.00" waitingCount="0" stopTime="0.00" timeLoss="14.42" rerouteNo="1" devices="tripinfo_h3536c1:1 routing_h3536c1:1" vType="default_016" speedFactor="1.04" vaporized=""/>
    <tripinfo id="carIn70533:1" depart="57812.00" departLane="-447569998#1_1" departPos="5.10" departSpeed="0.00" departDelay="0.10" arrival="57881.00" arrivalLane="-315358244_1" arrivalPos="33.95" arrivalSpeed="12.86" duration="69.00" routeLength="706.49" waitingTime="0.00" waitingCount="0" stopTime="0.00" timeLoss="6.95" rerouteNo="1" devices="tripinfo_carIn70533:1 routing_carIn70533:1" vType="default_016" speedFactor="0.98" vaporized=""/>
    <tripinfo id="carIn29676:1" depart="57789.00" departLane="-160314345#5_1" departPos="5.10" departSpeed="0.00" departDelay="0.00" arrival="57884.00" arrivalLane="-24634505_1" arrivalPos="48.18" arrivalSpeed="14.22" duration="95.00" routeLength="1162.34" waitingTime="0.00" waitingCount="0" stopTime="0.00" timeLoss="13.61" rerouteNo="1" devices="tripinfo_carIn29676:1 routing_carIn29676:1" vType="default_016" speedFactor="1.11" vaporized=""/>
    <tripinfo id="carIn63848:1" depart="57841.00" departLane="-447569998#1_1" departPos="5.10" departSpeed="0.00" departDelay="0.80" arrival="57907.00" arrivalLane="-315358244_2" arrivalPos="33.95" arrivalSpeed="13.81" duration="66.00" routeLength="706.49" waitingTime="0.00" waitingCount="0" stopTime="0.00" timeLoss="9.02" rerouteNo="1" devices="tripinfo_carIn63848:1 routing_carIn63848:1" vType="default_016" speedFactor="1.07" vaporized=""/>
    <tripinfo id="carIn13353:1" depart="57838.00" departLane="-447569998#1_1" departPos="5.10" departSpeed="0.00" departDelay="0.30" arrival="57909.00" arrivalLane="-315358244_1" arrivalPos="33.95" arrivalSpeed="12.52" duration="71.00" routeLength="706.49" waitingTime="0.00" waitingCount="0" stopTime="0.00" timeLoss="6.71" rerouteNo="1" devices="tripinfo_carIn13353:1 routing_carIn13353:1" vType="default_016" speedFactor="0.94" vaporized=""/>
    <tripinfo id="carIn115169:1" depart="57759.00" departLane="24599188#0.94_1" departPos="5.10" departSpeed="0.00" departDelay="0.50" arrival="57937.00" arrivalLane="-10427692#3_1" arrivalPos="28.64" arrivalSpeed="22.44" duration="178.00" routeLength="2183.23" waitingTime="0.00" waitingCount="0" stopTime="0.00" timeLoss="26.43" rerouteNo="1" devices="tripinfo_carIn115169:1 routing_carIn115169:1" vType="default_016" speedFactor="1.12" vaporized=""/>
    <tripinfo id="randUni16001:1" depart="57912.00" departLane="10425609#0_1" departPos="5.10" departSpeed="0.00" departDelay="0.30" arrival="57937.00" arrivalLane="201956810_1" arrivalPos="71.65" arrivalSpeed="14.58" duration="25.00" routeLength="255.78" waitingTime="0.00" waitingCount="0" stopTime="0.00" timeLoss="6.58" rerouteNo="1" devices="tripinfo_randUni16001:1 routing_randUni16001:1" vType="random_016" speedFactor="1.09" vaporized=""/>
    <tripinfo id="h3426c1:1" depart="57864.00" departLane="-160314345#2_1" departPos="5.10" departSpeed="0.00" departDelay="0.00" arrival="57940.00" arrivalLane="386687235_1" arrivalPos="80.84" arrivalSpeed="13.10" duration="76.00" routeLength="726.87" waitingTime="0.00" waitingCount="0" stopTime="0.00" timeLoss="8.24" rerouteNo="1" devices="tripinfo_h3426c1:1 routing_h3426c1:1" vType="default_016" speedFactor="1.01" vaporized=""/>
    <tripinfo id="randUni23028:1" depart="57884.00" departLane="124812856#0_1" departPos="5.10" departSpeed="0.00" departDelay="0.10" arrival="57942.00" arrivalLane="201956810_1" arrivalPos="71.65" arrivalSpeed="16.22" duration="58.00" routeLength="134.91" waitingTime="31.00" waitingCount="4" stopTime="0.00" timeLoss="48.67" rerouteNo="1" devices="tripinfo_randUni23028:1 routing_randUni23028:1" vType="random_016" speedFactor="1.18" vaporized=""/>
    <tripinfo id="h3847c1:3" depart="57893.00" departLane="24634416_1" departPos="5.10" departSpeed="0.00" departDelay="0.00" arrival="57944.00" arrivalLane="32978638#0_1" arrivalPos="49.29" arrivalSpeed="13.40" duration="51.00" routeLength="547.99" waitingTime="0.00" waitingCount="0" stopTime="0.00" timeLoss="9.17" rerouteNo="1" devices="tripinfo_h3847c1:3 routing_h3847c1:3" vType="default_016" speedFactor="1.00" vaporized=""/>
    <tripinfo id="h7032c2:3" depart="57863.00" departLane="315358244_1" departPos="5.10" departSpeed="0.00" departDelay="0.40" arrival="57980.00" arrivalLane="26677541_1" arrivalPos="152.31" arrivalSpeed="10.67" duration="117.00" routeLength="901.39" waitingTime="0.00" waitingCount="0" stopTime="0.00" timeLoss="14.34" rerouteNo="1" devices="tripinfo_h7032c2:3 routing_h7032c2:3" vType="default_016" speedFactor="0.81" vaporized=""/>
    <tripinfo id="carIn113750:1" depart="57961.00" departLane="24599188#0.94_1" departPos="5.10" departSpeed="0.00" departDelay="0.30" arrival="57990.00" arrivalLane="24599188#0.94_1" arrivalPos="186.59" arrivalSpeed="6.20" duration="29.00" routeLength="181.49" waitingTime="0.00" waitingCount="0" stopTime="0.00" timeLoss="3.40" rerouteNo="1" devices="tripinfo_carIn113750:1 routing_carIn113750:1" vType="default_016" speedFactor="0.86" vaporized=""/>
    <tripinfo id="h4574c1:3" depart="57907.00" departLane="-137454133#5_1" departPos="5.10" departSpeed="0.00" departDelay="0.00" arrival="58000.00" arrivalLane="201238729#3_1" arrivalPos="431.02" arrivalSpeed="11.57" duration="93.00" routeLength="979.11" waitingTime="0.00" waitingCount="0" stopTime="0.00" timeLoss="14.21" rerouteNo="1" devices="tripinfo_h4574c1:3 routing_h4574c1:3" vType="default_016" speedFactor="0.86" vaporized=""/>
    <tripinfo id="h4391c1:3" depart="57997.00" departLane="-32978638#0_1" departPos="5.10" departSpeed="0.00" departDelay="0.90" arrival="58029.00" arrivalLane="-266565295#5_1" arrivalPos="172.76" arrivalSpeed="13.63" duration="32.00" routeLength="370.53" waitingTime="0.00" waitingCount="0" stopTime="0.00" timeLoss="5.86" rerouteNo="1" devices="tripinfo_h4391c1:3 routing_h4391c1:3" vType="default_016" speedFactor="1.07" vaporized=""/>
    <tripinfo id="h7649c2:1" depart="57988.00" departLane="-447569998#1_1" departPos="5.10" departSpeed="0.00" departDelay="0.20" arrival="58060.00" arrivalLane="-315358244_1" arrivalPos="33.95" arrivalSpeed="12.49" duration="72.00" routeLength="706.49" waitingTime="0.00" waitingCount="0" stopTime="0.00" timeLoss="7.19" rerouteNo="1" devices="tripinfo_h7649c2:1 routing_h7649c2:1" vType="default_016" speedFactor="0.94" vaporized=""/>
    <tripinfo id="h17593c1:1" depart="57907.00" departLane="10425609#0_1" departPos="5.10" departSpeed="0.00" departDelay="0.90" arrival="58066.00" arrivalLane="18809673#0_1" arrivalPos="473.56" arrivalSpeed="15.31" duration="159.00" routeLength="1970.06" waitingTime="0.00" waitingCount="0" stopTime="0.00" timeLoss="14.96" rerouteNo="1" devices="tripinfo_h17593c1:1 routing_h17593c1:1" vType="default_016" speedFactor="1.15" vaporized=""/>
    <tripinfo id="carIn99077:1" depart="58021.00" departLane="-447569998#1_1" departPos="5.10" departSpeed="0.00" departDelay="0.50" arrival="58080.00" arrivalLane="-315358244_2" arrivalPos="33.95" arrivalSpeed="15.06" duration="59.00" routeLength="706.49" waitingTime="0.00" waitingCount="0" stopTime="0.00" timeLoss="7.16" rerouteNo="1" devices="tripinfo_carIn99077:1 routing_carIn99077:1" vType="default_016" speedFactor="1.16" vaporized=""/>
    <tripinfo id="carIn130975:1" depart="58017.00" departLane="-447569998#1_1" departPos="5.10" departSpeed="0.00" departDelay="0.10" arrival="58081.00" arrivalLane="-315358244_1" arrivalPos="33.95" arrivalSpeed="13.46" duration="64.00" routeLength="706.49" waitingTime="0.00" waitingCount="0" stopTime="0.00" timeLoss="6.58" rerouteNo="1" devices="tripinfo_carIn130975:1 routing_carIn130975:1" vType="default_015" speedFactor="1.06" vaporized=""/>
    <tripinfo id="h17600c1:1" depart="57662.00" departLane="272042143_1" departPos="5.10" departSpeed="0.00" departDelay="0.30" arrival="58090.00" arrivalLane="201238729#3_1" arrivalPos="431.02" arrivalSpeed="14.07" duration="428.00" routeLength="2100.26" waitingTime="260.00" waitingCount="2" stopTime="0.00" timeLoss="284.76" rerouteNo="1" devices="tripinfo_h17600c1:1 routing_h17600c1:1" vType="default_016" speedFactor="1.06" vaporized=""/>
    <tripinfo id="carIn132499:1" depart="57740.00" departLane="272042143_1" departPos="5.10" departSpeed="0.00" departDelay="0.70" arrival="58092.00" arrivalLane="201238729#3_2" arrivalPos="431.02" arrivalSpeed="13.68" duration="352.00" routeLength="2100.26" waitingTime="178.00" waitingCount="2" stopTime="0.00" timeLoss="201.97" rerouteNo="1" devices="tripinfo_carIn132499:1 routing_carIn132499:1" vType="default_016" speedFactor="1.01" vaporized=""/>
    <tripinfo id="carIn95912:1" depart="57825.00" departLane="272042143_1" departPos="5.10" departSpeed="0.00" departDelay="1.40" arrival="58092.00" arrivalLane="201238729#3_1" arrivalPos="431.02" arrivalSpeed="13.64" duration="267.00" routeLength="2100.26" waitingTime="105.00" waitingCount="1" stopTime="0.00" timeLoss="122.57" rerouteNo="1" devices="tripinfo_carIn95912:1 routing_carIn95912:1" vType="default_016" speedFactor="1.05" vaporized=""/>
    <tripinfo id="randUni20153:1" depart="57834.00" departLane="272042143_1" departPos="5.10" departSpeed="0.00" departDelay="5.60" arrival="58095.00" arrivalLane="201238729#3_1" arrivalPos="431.02" arrivalSpeed="13.24" duration="261.00" routeLength="2100.26" waitingTime="87.00" waitingCount="1" stopTime="0.00" timeLoss="105.38" rerouteNo="1" devices="tripinfo_randUni20153:1 routing_randUni20153:1" vType="random_016" speedFactor="0.98" vaporized=""/>
    <tripinfo id="randUni22786:1" depart="58065.00" departLane="10425609#0_1" departPos="5.10" departSpeed="0.00" departDelay="0.00" arrival="58097.00" arrivalLane="201956810_1" arrivalPos="71.65" arrivalSpeed="13.58" duration="32.00" routeLength="255.78" waitingTime="3.00" waitingCount="1" stopTime="0.00" timeLoss="13.34" rerouteNo="1" devices="tripinfo_randUni22786:1 routing_randUni22786:1" vType="random_016" speedFactor="1.06" vaporized=""/>
    <tripinfo id="h3849c2:3" depart="58053.00" departLane="24634416_1" departPos="5.10" departSpeed="0.00" departDelay="0.00" arrival="58098.00" arrivalLane="32978638#0_1" arrivalPos="49.29" arrivalSpeed="16.34" duration="45.00" routeLength="547.99" waitingTime="0.00" waitingCount="0" stopTime="0.00" timeLoss="10.36" rerouteNo="1" devices="tripinfo_h3849c2:3 routing_h3849c2:3" vType="default_016" speedFactor="1.20" vaporized=""/>
    <tripinfo id="carIn89697:1" depart="57852.00" departLane="272042143_1" departPos="5.10" departSpeed="0.00" departDelay="14.00" arrival="58101.00" arrivalLane="201238729#3_1" arrivalPos="431.02" arrivalSpeed="11.19" duration="249.00" routeLength="2100.26" waitingTime="58.00" waitingCount="1" stopTime="0.00" timeLoss="79.40" rerouteNo="1" devices="tripinfo_carIn89697:1 routing_carIn89697:1" vType="default_016" speedFactor="0.90" vaporized=""/>
    <tripinfo id="h1626c2:3" depart="57984.00" departLane="201201935#0_1" departPos="5.10" departSpeed="0.00" departDelay="0.50" arrival="58109.00" arrivalLane="-32395288#1_0" arrivalPos="21.79" arrivalSpeed="2.34" duration="125.00" routeLength="952.80" waitingTime="0.00" waitingCount="0" stopTime="0.00" timeLoss="18.31" rerouteNo="1" devices="tripinfo_h1626c2:3 routing_h1626c2:3" vType="default_016" speedFactor="1.06" vaporized=""/>
    <tripinfo id="carIn12775:1" depart="57676.00" departLane="10425609#0_1" departPos="5.10" departSpeed="0.00" departDelay="0.60" arrival="58114.00" arrivalLane="18809673#0_1" arrivalPos="473.56" arrivalSpeed="12.16" duration="438.00" routeLength="1959.45" waitingTime="254.00" waitingCount="2" stopTime="0.00" timeLoss="280.57" rerouteNo="1" devices="tripinfo_carIn12775:1 routing_carIn12775:1" vType="default_016" speedFactor="0.92" vaporized=""/>
    <tripinfo id="carIn112995:1" depart="57937.00" departLane="10425609#0_1" departPos="5.10" departSpeed="0.00" departDelay="0.70" arrival="58134.00" arrivalLane="18809673#0_1" arrivalPos="473.56" arrivalSpeed="12.21" duration="197.00" routeLength="1970.06" waitingTime="0.00" waitingCount="0" stopTime="0.00" timeLoss="25.60" rerouteNo="1" devices="tripinfo_carIn112995:1 routing_carIn112995:1" vType="default_016" speedFactor="0.96" vaporized=""/>
    <tripinfo id="h19940c1:1" depart="57945.00" departLane="10425609#0_1" departPos="5.10" departSpeed="0.00" departDelay="0.30" arrival="58136.00" arrivalLane="18809673#0_1" arrivalPos="473.56" arrivalSpeed="14.79" duration="191.00" routeLength="1970.06" waitingTime="1.00" waitingCount="1" stopTime="0.00" timeLoss="42.97" rerouteNo="1" devices="tripinfo_h19940c1:1 routing_h19940c1:1" vType="default_016" speedFactor="1.11" vaporized=""/>
    <tripinfo id="h4794c2:1" depart="58074.00" departLane="-224892361#8_1" departPos="5.10" departSpeed="0.00" departDelay="0.00" arrival="58137.00" arrivalLane="306240162#0_0" arrivalPos="220.43" arrivalSpeed="15.60" duration="63.00" routeLength="979.18" waitingTime="0.00" waitingCount="0" stopTime="0.00" timeLoss="11.98" rerouteNo="1" devices="tripinfo_h4794c2:1 routing_h4794c2:1" vType="default_016" speedFactor="1.00" vaporized=""/>
    <tripinfo id="h6695c1:3" depart="58013.00" departLane="23166741#2_1" departPos="5.10" departSpeed="0.00" departDelay="0.00" arrival="58160.00" arrivalLane="201238729#3_1" arrivalPos="431.02" arrivalSpeed="12.58" duration="147.00" routeLength="1786.75" waitingTime="0.00" waitingCount="0" stopTime="0.00" timeLoss="9.84" rerouteNo="1" devices="tripinfo_h6695c1:3 routing_h6695c1:3" vType="default_016" speedFactor="0.94" vaporized=""/>
    <tripinfo id="h15631c1:1" depart="57962.00" departLane="10425609#0_1" departPos="5.10" departSpeed="0.00" departDelay="0.30" arrival="58165.00" arrivalLane="18809673#0_1" arrivalPos="473.56" arrivalSpeed="12.57" duration="203.00" routeLength="1970.06" waitingTime="4.00" waitingCount="1" stopTime="0.00" timeLoss="28.63" rerouteNo="1" devices="tripinfo_h15631c1:1 routing_h15631c1:1" vType="default_016" speedFactor="0.94" vaporized=""/>
    <tripinfo id="randUni1534:1" depart="57949.00" departLane="-447569998#1_1" departPos="5.10" departSpeed="0.00" departDelay="0.30" arrival="58166.00" arrivalLane="40888356#0_1" arrivalPos="103.49" arrivalSpeed="10.85" duration="217.00" routeLength="2017.53" waitingTime="0.00" waitingCount="0" stopTime="0.00" timeLoss="19.82" rerouteNo="1" devices="tripinfo_randUni1534:1 routing_randUni1534:1" vType="random_016" speedFactor="0.83" vaporized=""/>
    <tripinfo id="carIn84735:1" depart="57969.00" departLane="10425609#0_1" departPos="5.10" departSpeed="0.00" departDelay="0.60" arrival="58167.00" arrivalLane="18809673#0_1" arrivalPos="473.56" arrivalSpeed="14.40" duration="198.00" routeLength="1970.06" waitingTime="4.00" waitingCount="1" stopTime="0.00" timeLoss="49.47" rerouteNo="1" devices="tripinfo_carIn84735:1 routing_carIn84735:1" vType="default_016" speedFactor="1.11" vaporized=""/>
    <tripinfo id="carIn72005:1" depart="57978.00" departLane="10425609#0_1" departPos="5.10" departSpeed="0.00" departDelay="0.70" arrival="58168.00" arrivalLane="18809673#0_1" arrivalPos="473.56" arrivalSpeed="14.82" duration="190.00" routeLength="1970.06" waitingTime="3.00" waitingCount="1" stopTime="0.00" timeLoss="51.18" rerouteNo="1" devices="tripinfo_carIn72005:1 routing_carIn72005:1" vType="default_016" speedFactor="1.19" vaporized=""/>
    <tripinfo id="h7618c2:1" depart="58128.00" departLane="-25117417#1_1" departPos="5.10" departSpeed="0.00" departDelay="0.00" arrival="58184.00" arrivalLane="-315358244_1" arrivalPos="33.95" arrivalSpeed="11.16" duration="56.00" routeLength="415.59" waitingTime="0.00" waitingCount="0" stopTime="0.00" timeLoss="12.20" rerouteNo="1" devices="tripinfo_h7618c2:1 routing_h7618c2:1" vType="default_016" speedFactor="0.86" vaporized=""/>
    <tripinfo id="h21699c2:1" depart="57890.00" departLane="-32978638#0_1" departPos="5.10" departSpeed="0.00" departDelay="1.90" arrival="58207.00" arrivalLane="-315358242#1_1" arrivalPos="93.35" arrivalSpeed="13.27" duration="317.00" routeLength="1000.41" waitingTime="228.00" waitingCount="1" stopTime="0.00" timeLoss="243.94" rerouteNo="1" devices="tripinfo_h21699c2:1 routing_h21699c2:1" vType="default_016" speedFactor="1.00" vaporized=""/>
    <tripinfo id="h5183c2:1" depart="58014.00" departLane="201238719#0_1" departPos="5.10" departSpeed="0.00" departDelay="0.00" arrival="58217.00" arrivalLane="32978638#0_1" arrivalPos="49.29" arrivalSpeed="14.43" duration="203.00" routeLength="2536.25" waitingTime="0.00" waitingCount="0" stopTime="0.00" timeLoss="29.74" rerouteNo="1" devices="tripinfo_h5183c2:1 routing_h5183c2:1" vType="default_016" speedFactor="1.07" vaporized=""/>
    <tripinfo id="h6846c2:1" depart="57741.00" departLane="26677213#0_1" departPos="5.10" departSpeed="0.00" departDelay="0.00" arrival="58226.00" arrivalLane="386687235_1" arrivalPos="80.84" arrivalSpeed="14.51" duration="485.00" routeLength="1412.24" waitingTime="328.00" waitingCount="2" stopTime="0.00" timeLoss="356.58" rerouteNo="1" devices="tripinfo_h6846c2:1 routing_h6846c2:1" vType="default_016" speedFactor="1.06" vaporized=""/>
    <tripinfo id="h5801c1:1" depart="57970.00" departLane="-26677216#0_1" departPos="5.10" departSpeed="0.00" departDelay="0.00" arrival="58229.00" arrivalLane="386687235_1" arrivalPos="80.84" arrivalSpeed="12.95" duration="259.00" routeLength="1335.31" waitingTime="102.00" waitingCount="2" stopTime="0.00" timeLoss="128.16" rerouteNo="1" devices="tripinfo_h5801c1:1 routing_h5801c1:1" vType="default_016" speedFactor="1.01" vaporized=""/>
    <tripinfo id="carIn11789:1" depart="57981.00" departLane="10425609#0_1" departPos="5.10" departSpeed="0.00" departDelay="0.40" arrival="58230.00" arrivalLane="18809673#0_1" arrivalPos="473.56" arrivalSpeed="14.31" duration="249.00" routeLength="1970.06" waitingTime="62.00" waitingCount="2" stopTime="0.00" timeLoss="95.96" rerouteNo="1" devices="tripinfo_carIn11789:1 routing_carIn11789:1" vType="default_016" speedFactor="1.08" vaporized=""/>
    <tripinfo id="h7415c1:1" depart="58104.00" departLane="53396619#4_1" departPos="5.10" departSpeed="0.00" departDelay="0.00" arrival="58231.00" arrivalLane="386687235_1" arrivalPos="80.84" arrivalSpeed="15.64" duration="127.00" routeLength="614.45" waitingTime="54.00" waitingCount="2" stopTime="0.00" timeLoss="73.36" rerouteNo="1" devices="tripinfo_h7415c1:1 routing_h7415c1:1" vType="default_016" speedFactor="1.17" vaporized=""/>
    <tripinfo id="randUni11417:1" depart="57989.00" departLane="10425609#0_1" departPos="5.10" departSpeed="0.00" departDelay="0.70" arrival="58233.00" arrivalLane="18809673#0_1" arrivalPos="473.56" arrivalSpeed="13.59" duration="244.00" routeLength="1970.06" waitingTime="59.00" waitingCount="1" stopTime="0.00" timeLoss="85.40" rerouteNo="1" devices="tripinfo_randUni11417:1 routing_randUni11417:1" vType="random_016" speedFactor="1.04" vaporized=""/>
    <tripinfo id="h7445c2:1" depart="58087.00" departLane="54169231#1_1" departPos="5.10" departSpeed="0.00" departDelay="0.00" arrival="58233.00" arrivalLane="386687235_1" arrivalPos="80.84" arrivalSpeed="15.52" duration="146.00" routeLength="887.16" waitingTime="47.00" waitingCount="1" stopTime="0.00" timeLoss="67.15" rerouteNo="1" devices="tripinfo_h7445c2:1 routing_h7445c2:1" vType="default_016" speedFactor="1.13" vaporized=""/>
    <tripinfo id="h5559c1:1" depart="58108.00" departLane="-201950247#0_1" departPos="5.10" departSpeed="0.00" departDelay="0.10" arrival="58238.00" arrivalLane="386687235_1" arrivalPos="80.84" arrivalSpeed="13.01" duration="130.00" routeLength="904.10" waitingTime="32.00" waitingCount="1" stopTime="0.00" timeLoss="50.99" rerouteNo="1" devices="tripinfo_h5559c1:1 routing_h5559c1:1" vType="default_016" speedFactor="1.02" vaporized=""/>
    <tripinfo id="h16288c1:3" depart="58210.00" departLane="-32978638#0_1" departPos="5.10" departSpeed="0.00" departDelay="3.20" arrival="58242.00" arrivalLane="-266565295#5_1" arrivalPos="172.76" arrivalSpeed="14.30" duration="32.00" routeLength="370.53" waitingTime="0.00" waitingCount="0" stopTime="0.00" timeLoss="7.08" rerouteNo="1" devices="tripinfo_h16288c1:3 routing_h16288c1:3" vType="default_016" speedFactor="1.11" vaporized=""/>
    <tripinfo id="h3823c2:3" depart="58116.00" departLane="-32978638#0_1" departPos="5.10" departSpeed="0.00" departDelay="0.00" arrival="58248.00" arrivalLane="24634414#2_1" arrivalPos="105.05" arrivalSpeed="7.14" duration="132.00" routeLength="818.89" waitingTime="31.00" waitingCount="1" stopTime="0.00" timeLoss="47.99" rerouteNo="1" devices="tripinfo_h3823c2:3 routing_h3823c2:3" vType="default_016" speedFactor="0.95" vaporized=""/>
    <tripinfo id="h10915c1:1" depart="58067.00" departLane="10425609#0_1" departPos="5.10" departSpeed="0.00" departDelay="0.30" arrival="58262.00" arrivalLane="18809673#0_1" arrivalPos="473.56" arrivalSpeed="12.87" duration="195.00" routeLength="1970.06" waitingTime="0.00" waitingCount="0" stopTime="0.00" timeLoss="28.27" rerouteNo="1" devices="tripinfo_h10915c1:1 routing_h10915c1:1" vType="default_016" speedFactor="0.99" vaporized=""/>
    <tripinfo id="h21566c2:1" depart="58094.00" departLane="10425609#0_1" departPos="5.10" departSpeed="0.00" departDelay="0.60" arrival="58263.00" arrivalLane="18809673#0_1" arrivalPos="473.56" arrivalSpeed="13.86" duration="169.00" routeLength="1970.06" waitingTime="0.00" waitingCount="0" stopTime="0.00" timeLoss="34.17" rerouteNo="1" devices="tripinfo_h21566c2:1 routing_h21566c2:1" vType="default_016" speedFactor="1.22" vaporized=""/>
    <tripinfo id="h8230c1:3" depart="58155.00" departLane="-24634505_1" departPos="5.10" departSpeed="0.00" departDelay="0.00" arrival="58271.00" arrivalLane="272042145_1" arrivalPos="234.87" arrivalSpeed="14.48" duration="116.00" routeLength="882.67" waitingTime="17.00" waitingCount="1" stopTime="0.00" timeLoss="33.86" rerouteNo="1" devices="tripinfo_h8230c1:3 routing_h8230c1:3" vType="default_016" speedFactor="1.11" vaporized=""/>
    <tripinfo id="h5350c1:3" depart="58199.00" departLane="315358254#0_1" departPos="5.10" departSpeed="0.00" departDelay="2.20" arrival="58276.00" arrivalLane="28319300#3_1" arrivalPos="85.93" arrivalSpeed="8.17" duration="77.00" routeLength="738.32" waitingTime="0.00" waitingCount="0" stopTime="0.00" timeLoss="9.73" rerouteNo="1" devices="tripinfo_h5350c1:3 routing_h5350c1:3" vType="default_016" speedFactor="1.11" vaporized=""/>