<?xml version="1.0" encoding="UTF-8"?>

<!-- generated on 2023-08-30 22:09:44 by Eclipse SUMO libsumo Version 1.18.0
<configuration xmlns:xsi="http://www.w3.org/2001/XMLSchema-instance" xsi:noNamespaceSchemaLocation="http://sumo.dlr.de/xsd/libsumoConfiguration.xsd">

    <input>
        <net-file value="/home/stefan/RESCO/./environments/ingolstadt21/ingolstadt21.net.xml"/>
        <route-files value="/home/stefan/RESCO/./environments/ingolstadt21/ingolstadt21.rou.xml"/>
    </input>

    <output>
        <tripinfo-output value="/home/stefan/results/RAINBOW-tr0-ingolstadt21-21-drq_norm-wait_norm/tripinfo_87.xml"/>
        <tripinfo-output.write-unfinished value="true"/>
    </output>

    <time>
        <begin value="57600"/>
        <end value="61200"/>
    </time>

    <processing>
        <time-to-teleport value="-1"/>
    </processing>

    <report>
        <no-warnings value="True"/>
        <no-step-log value="True"/>
    </report>

    <random_number>
        <random value="true"/>
    </random_number>

</configuration>
-->

<tripinfos xmlns:xsi="http://www.w3.org/2001/XMLSchema-instance" xsi:noNamespaceSchemaLocation="http://sumo.dlr.de/xsd/tripinfo_file.xsd">
    <tripinfo id="h15454c2:3" depart="57612.00" departLane="24608844_1" departPos="5.10" departSpeed="0.00" departDelay="0.50" arrival="57663.00" arrivalLane="32978638#0_1" arrivalPos="49.29" arrivalSpeed="11.19" duration="51.00" routeLength="354.79" waitingTime="2.00" waitingCount="1" stopTime="0.00" timeLoss="11.19" rerouteNo="1" devices="tripinfo_h15454c2:3 routing_h15454c2:3" vType="default_016" speedFactor="0.85" vaporized=""/>
    <tripinfo id="carIn53971:1" depart="57640.00" departLane="272042143_1" departPos="5.10" departSpeed="0.00" departDelay="0.80" arrival="57698.00" arrivalLane="24634414#1_1" arrivalPos="162.19" arrivalSpeed="7.44" duration="58.00" routeLength="493.04" waitingTime="0.00" waitingCount="0" stopTime="0.00" timeLoss="9.69" rerouteNo="1" devices="tripinfo_carIn53971:1 routing_carIn53971:1" vType="default_016" speedFactor="0.94" vaporized=""/>
    <tripinfo id="h7800c1:5" depart="57696.00" departLane="-447569998#1_1" departPos="5.10" departSpeed="0.00" departDelay="0.00" arrival="57727.00" arrivalLane="-447569998#1_1" arrivalPos="180.76" arrivalSpeed="6.14" duration="31.00" routeLength="175.66" waitingTime="0.00" waitingCount="0" stopTime="0.00" timeLoss="3.96" rerouteNo="1" devices="tripinfo_h7800c1:5 routing_h7800c1:5" vType="default_016" speedFactor="0.80" vaporized=""/>
    <tripinfo id="h3568c1:3" depart="57656.00" departLane="266565295#5_1" departPos="5.10" departSpeed="0.00" departDelay="0.80" arrival="57738.00" arrivalLane="-24634415_1" arrivalPos="62.03" arrivalSpeed="12.53" duration="82.00" routeLength="807.40" waitingTime="0.00" waitingCount="0" stopTime="0.00" timeLoss="12.44" rerouteNo="1" devices="tripinfo_h3568c1:3 routing_h3568c1:3" vType="default_016" speedFactor="0.93" vaporized=""/>
    <tripinfo id="h3154c1:1" depart="57658.00" departLane="24634507_1" departPos="5.10" departSpeed="0.00" departDelay="0.00" arrival="57754.00" arrivalLane="-266565295#5_1" arrivalPos="172.76" arrivalSpeed="13.99" duration="96.00" routeLength="1206.22" waitingTime="0.00" waitingCount="0" stopTime="0.00" timeLoss="10.98" rerouteNo="1" devices="tripinfo_h3154c1:1 routing_h3154c1:1" vType="default_016" speedFactor="1.05" vaporized=""/>
    <tripinfo id="carIn27009:1" depart="57673.00" departLane="-447569998#1_1" departPos="5.10" departSpeed="0.00" departDelay="0.50" arrival="57774.00" arrivalLane="-26677539_1" arrivalPos="152.75" arrivalSpeed="6.91" duration="101.00" routeLength="699.63" waitingTime="0.00" waitingCount="0" stopTime="0.00" timeLoss="12.72" rerouteNo="1" devices="tripinfo_carIn27009:1 routing_carIn27009:1" vType="default_015" speedFactor="0.94" vaporized=""/>
    <tripinfo id="h3326c1:2" depart="57656.00" departLane="22716069#0_1" departPos="5.10" departSpeed="0.00" departDelay="0.00" arrival="57777.00" arrivalLane="24634517#13_1" arrivalPos="111.62" arrivalSpeed="12.50" duration="121.00" routeLength="1312.81" waitingTime="0.00" waitingCount="0" stopTime="0.00" timeLoss="13.99" rerouteNo="1" devices="tripinfo_h3326c1:2 routing_h3326c1:2" vType="default_016" speedFactor="0.91" vaporized=""/>
    <tripinfo id="carIn107282:1" depart="57749.00" departLane="-447569998#1_1" departPos="5.10" departSpeed="0.00" departDelay="0.00" arrival="57797.00" arrivalLane="315358242#0_1" arrivalPos="165.37" arrivalSpeed="13.00" duration="48.00" routeLength="448.50" waitingTime="0.00" waitingCount="0" stopTime="0.00" timeLoss="5.06" rerouteNo="1" devices="tripinfo_carIn107282:1 routing_carIn107282:1" vType="default_016" speedFactor="0.97" vaporized=""/>
    <tripinfo id="carIn129809:1" depart="57729.00" departLane="-447569998#1_1" departPos="5.10" departSpeed="0.00" departDelay="1.00" arrival="57802.00" arrivalLane="-315358244_1" arrivalPos="33.95" arrivalSpeed="12.66" duration="73.00" routeLength="706.49" waitingTime="0.00" waitingCount="0" stopTime="0.00" timeLoss="7.23" rerouteNo="1" devices="tripinfo_carIn129809:1 routing_carIn129809:1" vType="default_015" speedFactor="0.92" vaporized=""/>
    <tripinfo id="carIn8642:1" depart="57774.00" departLane="-447569998#1_1" departPos="5.10" departSpeed="0.00" departDelay="0.90" arrival="57833.00" arrivalLane="-315358244_1" arrivalPos="33.95" arrivalSpeed="15.06" duration="59.00" routeLength="706.49" waitingTime="0.00" waitingCount="0" stopTime="0.00" timeLoss="6.14" rerouteNo="1" devices="tripinfo_carIn8642:1 routing_carIn8642:1" vType="default_016" speedFactor="1.16" vaporized=""/>
    <tripinfo id="randUni31145:1" depart="57814.00" departLane="10425609#0_1" departPos="5.10" departSpeed="0.00" departDelay="0.30" arrival="57847.00" arrivalLane="201956810_1" arrivalPos="71.65" arrivalSpeed="13.73" duration="33.00" routeLength="255.78" waitingTime="6.00" waitingCount="1" stopTime="0.00" timeLoss="14.50" rerouteNo="1" devices="tripinfo_randUni31145:1 routing_randUni31145:1" vType="random_016" speedFactor="1.08" vaporized=""/>
    <tripinfo id="randUni2407:1" depart="57820.00" departLane="10425609#0_1" departPos="5.10" departSpeed="0.00" departDelay="0.80" arrival="57858.00" arrivalLane="201956810_1" arrivalPos="71.65" arrivalSpeed="11.60" duration="38.00" routeLength="255.78" waitingTime="6.00" waitingCount="1" stopTime="0.00" timeLoss="15.43" rerouteNo="1" devices="tripinfo_randUni2407:1 routing_randUni2407:1" vType="random_016" speedFactor="0.86" vaporized=""/>
    <tripinfo id="carIn70533:1" depart="57812.00" departLane="-447569998#1_1" departPos="5.10" departSpeed="0.00" departDelay="0.10" arrival="57882.00" arrivalLane="-315358244_1" arrivalPos="33.95" arrivalSpeed="13.43" duration="70.00" routeLength="706.49" waitingTime="0.00" waitingCount="0" stopTime="0.00" timeLoss="9.15" rerouteNo="1" devices="tripinfo_carIn70533:1 routing_carIn70533:1" vType="default_016" speedFactor="0.99" vaporized=""/>
    <tripinfo id="randUni23028:1" depart="57884.00" departLane="124812856#0_1" departPos="5.10" departSpeed="0.00" departDelay="0.10" arrival="57900.00" arrivalLane="201956810_1" arrivalPos="71.65" arrivalSpeed="13.44" duration="16.00" routeLength="134.91" waitingTime="0.00" waitingCount="0" stopTime="0.00" timeLoss="5.37" rerouteNo="1" devices="tripinfo_randUni23028:1 routing_randUni23028:1" vType="random_016" speedFactor="1.04" vaporized=""/>
    <tripinfo id="carIn13353:1" depart="57838.00" departLane="-447569998#1_1" departPos="5.10" departSpeed="0.00" departDelay="0.30" arrival="57903.00" arrivalLane="-315358244_1" arrivalPos="33.95" arrivalSpeed="13.94" duration="65.00" routeLength="706.49" waitingTime="0.00" waitingCount="0" stopTime="0.00" timeLoss="6.64" rerouteNo="1" devices="tripinfo_carIn13353:1 routing_carIn13353:1" vType="default_016" speedFactor="1.03" vaporized=""/>
    <tripinfo id="h317c2:1" depart="57707.00" departLane="-32978638#0_1" departPos="5.10" departSpeed="0.00" departDelay="0.10" arrival="57904.00" arrivalLane="-266565295#5_1" arrivalPos="172.76" arrivalSpeed="14.52" duration="197.00" routeLength="370.53" waitingTime="162.00" waitingCount="1" stopTime="0.00" timeLoss="171.14" rerouteNo="1" devices="tripinfo_h317c2:1 routing_h317c2:1" vType="default_016" speedFactor="1.08" vaporized=""/>
    <tripinfo id="h330c1:1" depart="57736.00" departLane="-32978638#0_1" departPos="5.10" departSpeed="0.00" departDelay="0.20" arrival="57907.00" arrivalLane="-266565295#5_1" arrivalPos="172.76" arrivalSpeed="13.84" duration="171.00" routeLength="370.53" waitingTime="134.00" waitingCount="1" stopTime="0.00" timeLoss="143.87" rerouteNo="1" devices="tripinfo_h330c1:1 routing_h330c1:1" vType="default_016" speedFactor="1.03" vaporized=""/>
    <tripinfo id="carIn63848:1" depart="57841.00" departLane="-447569998#1_1" departPos="5.10" departSpeed="0.00" departDelay="0.80" arrival="57911.00" arrivalLane="-315358244_1" arrivalPos="33.95" arrivalSpeed="13.09" duration="70.00" routeLength="706.49" waitingTime="0.00" waitingCount="0" stopTime="0.00" timeLoss="7.22" rerouteNo="1" devices="tripinfo_carIn63848:1 routing_carIn63848:1" vType="default_016" speedFactor="0.96" vaporized=""/>
    <tripinfo id="randUni16001:1" depart="57912.00" departLane="10425609#0_1" departPos="5.10" departSpeed="0.00" departDelay="0.30" arrival="57940.00" arrivalLane="201956810_1" arrivalPos="71.65" arrivalSpeed="11.23" duration="28.00" routeLength="255.78" waitingTime="0.00" waitingCount="0" stopTime="0.00" timeLoss="5.91" rerouteNo="1" devices="tripinfo_randUni16001:1 routing_randUni16001:1" vType="random_016" speedFactor="0.89" vaporized=""/>
    <tripinfo id="h3426c1:1" depart="57864.00" departLane="-160314345#2_1" departPos="5.10" departSpeed="0.00" departDelay="0.00" arrival="57941.00" arrivalLane="386687235_1" arrivalPos="80.84" arrivalSpeed="13.18" duration="77.00" routeLength="726.87" waitingTime="0.00" waitingCount="0" stopTime="0.00" timeLoss="8.10" rerouteNo="1" devices="tripinfo_h3426c1:1 routing_h3426c1:1" vType="default_016" speedFactor="0.99" vaporized=""/>
    <tripinfo id="randUni11215:1" depart="57953.00" departLane="124812856#0_1" departPos="5.10" departSpeed="0.00" departDelay="0.30" arrival="57968.00" arrivalLane="201956810_1" arrivalPos="71.65" arrivalSpeed="14.05" duration="15.00" routeLength="134.91" waitingTime="0.00" waitingCount="0" stopTime="0.00" timeLoss="4.20" rerouteNo="1" devices="tripinfo_randUni11215:1 routing_randUni11215:1" vType="random_016" speedFactor="1.01" vaporized=""/>
    <tripinfo id="carIn113750:1" depart="57961.00" departLane="24599188#0.94_1" departPos="5.10" departSpeed="0.00" departDelay="0.30" arrival="57984.00" arrivalLane="24599188#0.94_1" arrivalPos="186.59" arrivalSpeed="9.46" duration="23.00" routeLength="181.49" waitingTime="0.00" waitingCount="0" stopTime="0.00" timeLoss="3.68" rerouteNo="1" devices="tripinfo_carIn113750:1 routing_carIn113750:1" vType="default_016" speedFactor="1.17" vaporized=""/>
    <tripinfo id="h2859c1:1" depart="57822.00" departLane="201238726#0.117_1" departPos="5.10" departSpeed="0.00" departDelay="0.10" arrival="58012.00" arrivalLane="386687235_1" arrivalPos="80.84" arrivalSpeed="12.29" duration="190.00" routeLength="1631.78" waitingTime="53.00" waitingCount="1" stopTime="0.00" timeLoss="67.03" rerouteNo="1" devices="tripinfo_h2859c1:1 routing_h2859c1:1" vType="default_016" speedFactor="0.96" vaporized=""/>
    <tripinfo id="randUni15030:1" depart="57735.00" departLane="386687232#0_1" departPos="5.10" departSpeed="0.00" departDelay="0.10" arrival="58022.00" arrivalLane="26677539_1" arrivalPos="151.98" arrivalSpeed="7.92" duration="287.00" routeLength="919.89" waitingTime="187.00" waitingCount="2" stopTime="0.00" timeLoss="208.74" rerouteNo="1" devices="tripinfo_randUni15030:1 routing_randUni15030:1" vType="random_016" speedFactor="1.06" vaporized=""/>
    <tripinfo id="h4391c1:3" depart="57997.00" departLane="-32978638#0_1" departPos="5.10" departSpeed="0.00" departDelay="0.90" arrival="58027.00" arrivalLane="-266565295#5_1" arrivalPos="172.76" arrivalSpeed="15.36" duration="30.00" routeLength="370.53" waitingTime="0.00" waitingCount="0" stopTime="0.00" timeLoss="5.98" rerouteNo="1" devices="tripinfo_h4391c1:3 routing_h4391c1:3" vType="default_016" speedFactor="1.15" vaporized=""/>
    <tripinfo id="h7649c2:1" depart="57988.00" departLane="-447569998#1_1" departPos="5.10" departSpeed="0.00" departDelay="0.20" arrival="58062.00" arrivalLane="-315358244_1" arrivalPos="33.95" arrivalSpeed="11.36" duration="74.00" routeLength="706.49" waitingTime="0.00" waitingCount="0" stopTime="0.00" timeLoss="6.90" rerouteNo="1" devices="tripinfo_h7649c2:1 routing_h7649c2:1" vType="default_016" speedFactor="0.90" vaporized=""/>
    <tripinfo id="carIn12775:1" depart="57676.00" departLane="10425609#0_1" departPos="5.10" departSpeed="0.00" departDelay="0.60" arrival="58065.00" arrivalLane="18809673#0_1" arrivalPos="473.56" arrivalSpeed="12.26" duration="389.00" routeLength="1959.45" waitingTime="207.00" waitingCount="1" stopTime="0.00" timeLoss="226.57" rerouteNo="1" devices="tripinfo_carIn12775:1 routing_carIn12775:1" vType="default_016" speedFactor="0.90" vaporized=""/>
    <tripinfo id="carIn130975:1" depart="58017.00" departLane="-447569998#1_1" departPos="5.10" departSpeed="0.00" departDelay="0.10" arrival="58082.00" arrivalLane="-315358244_1" arrivalPos="33.95" arrivalSpeed="13.47" duration="65.00" routeLength="706.49" waitingTime="0.00" waitingCount="0" stopTime="0.00" timeLoss="6.40" rerouteNo="1" devices="tripinfo_carIn130975:1 routing_carIn130975:1" vType="default_015" speedFactor="1.03" vaporized=""/>
    <tripinfo id="carIn99077:1" depart="58021.00" departLane="-447569998#1_1" departPos="5.10" departSpeed="0.00" departDelay="0.50" arrival="58085.00" arrivalLane="-315358244_1" arrivalPos="33.95" arrivalSpeed="13.96" duration="64.00" routeLength="706.49" waitingTime="0.00" waitingCount="0" stopTime="0.00" timeLoss="5.94" rerouteNo="1" devices="tripinfo_carIn99077:1 routing_carIn99077:1" vType="default_016" speedFactor="1.04" vaporized=""/>
    <tripinfo id="randUni22786:1" depart="58065.00" departLane="10425609#0_1" departPos="5.10" departSpeed="0.00" departDelay="0.00" arrival="58092.00" arrivalLane="201956810_1" arrivalPos="71.65" arrivalSpeed="13.22" duration="27.00" routeLength="255.78" waitingTime="0.00" waitingCount="0" stopTime="0.00" timeLoss="5.94" rerouteNo="1" devices="tripinfo_randUni22786:1 routing_randUni22786:1" vType="random_016" speedFactor="0.96" vaporized=""/>
    <tripinfo id="h1626c2:3" depart="57984.00" departLane="201201935#0_1" departPos="5.10" departSpeed="0.00" departDelay="0.50" arrival="58112.00" arrivalLane="-32395288#1_0" arrivalPos="21.79" arrivalSpeed="2.56" duration="128.00" routeLength="952.80" waitingTime="0.00" waitingCount="0" stopTime="0.00" timeLoss="16.93" rerouteNo="1" devices="tripinfo_h1626c2:3 routing_h1626c2:3" vType="default_016" speedFactor="1.02" vaporized=""/>
    <tripinfo id="randUni1534:1" depart="57949.00" departLane="-447569998#1_1" departPos="5.10" departSpeed="0.00" departDelay="0.30" arrival="58123.00" arrivalLane="40888356#0_1" arrivalPos="103.49" arrivalSpeed="13.62" duration="174.00" routeLength="2017.53" waitingTime="0.00" waitingCount="0" stopTime="0.00" timeLoss="14.87" rerouteNo="1" devices="tripinfo_randUni1534:1 routing_randUni1534:1" vType="random_016" speedFactor="1.03" vaporized=""/>
    <tripinfo id="h17593c1:1" depart="57907.00" departLane="10425609#0_1" departPos="5.10" departSpeed="0.00" departDelay="0.90" arrival="58128.00" arrivalLane="18809673#0_1" arrivalPos="473.56" arrivalSpeed="11.32" duration="221.00" routeLength="1970.06" waitingTime="11.00" waitingCount="1" stopTime="0.00" timeLoss="33.76" rerouteNo="1" devices="tripinfo_h17593c1:1 routing_h17593c1:1" vType="default_016" speedFactor="0.88" vaporized=""/>
    <tripinfo id="carIn112995:1" depart="57937.00" departLane="10425609#0_1" departPos="5.10" departSpeed="0.00" departDelay="0.70" arrival="58129.00" arrivalLane="18809673#0_1" arrivalPos="473.56" arrivalSpeed="13.16" duration="192.00" routeLength="1970.06" waitingTime="0.00" waitingCount="0" stopTime="0.00" timeLoss="26.12" rerouteNo="1" devices="tripinfo_carIn112995:1 routing_carIn112995:1" vType="default_016" speedFactor="0.99" vaporized=""/>
    <tripinfo id="h19940c1:1" depart="57945.00" departLane="10425609#0_1" departPos="5.10" departSpeed="0.00" departDelay="0.30" arrival="58131.00" arrivalLane="18809673#0_1" arrivalPos="473.56" arrivalSpeed="15.64" duration="186.00" routeLength="1970.06" waitingTime="4.00" waitingCount="2" stopTime="0.00" timeLoss="40.16" rerouteNo="1" devices="tripinfo_h19940c1:1 routing_h19940c1:1" vType="default_016" speedFactor="1.13" vaporized=""/>
    <tripinfo id="h4794c2:1" depart="58074.00" departLane="-224892361#8_1" departPos="5.10" departSpeed="0.00" departDelay="0.00" arrival="58131.00" arrivalLane="306240162#0_0" arrivalPos="220.43" arrivalSpeed="19.06" duration="57.00" routeLength="979.18" waitingTime="0.00" waitingCount="0" stopTime="0.00" timeLoss="13.74" rerouteNo="1" devices="tripinfo_h4794c2:1 routing_h4794c2:1" vType="default_016" speedFactor="1.16" vaporized=""/>
    <tripinfo id="h15631c1:1" depart="57962.00" departLane="10425609#0_1" departPos="5.10" departSpeed="0.00" departDelay="0.30" arrival="58154.00" arrivalLane="18809673#0_1" arrivalPos="473.56" arrivalSpeed="13.44" duration="192.00" routeLength="1970.06" waitingTime="1.00" waitingCount="1" stopTime="0.00" timeLoss="22.50" rerouteNo="1" devices="tripinfo_h15631c1:1 routing_h15631c1:1" vType="default_016" speedFactor="0.97" vaporized=""/>
    <tripinfo id="carIn84735:1" depart="57969.00" departLane="10425609#0_1" departPos="5.10" departSpeed="0.00" departDelay="0.60" arrival="58155.00" arrivalLane="18809673#0_1" arrivalPos="473.56" arrivalSpeed="14.45" duration="186.00" routeLength="1970.06" waitingTime="0.00" waitingCount="0" stopTime="0.00" timeLoss="43.57" rerouteNo="1" devices="tripinfo_carIn84735:1 routing_carIn84735:1" vType="default_016" speedFactor="1.15" vaporized=""/>
    <tripinfo id="h8701c1:1" depart="58062.00" departLane="24634510#1_1" departPos="5.10" departSpeed="0.00" departDelay="0.00" arrival="58168.00" arrivalLane="272042145_1" arrivalPos="234.87" arrivalSpeed="15.88" duration="106.00" routeLength="1502.87" waitingTime="0.00" waitingCount="0" stopTime="0.00" timeLoss="10.89" rerouteNo="1" devices="tripinfo_h8701c1:1 routing_h8701c1:1" vType="default_016" speedFactor="1.15" vaporized=""/>
    <tripinfo id="h7618c2:1" depart="58128.00" departLane="-25117417#1_1" departPos="5.10" departSpeed="0.00" departDelay="0.00" arrival="58171.00" arrivalLane="-315358244_1" arrivalPos="33.95" arrivalSpeed="14.33" duration="43.00" routeLength="415.59" waitingTime="0.00" waitingCount="0" stopTime="0.00" timeLoss="6.44" rerouteNo="1" devices="tripinfo_h7618c2:1 routing_h7618c2:1" vType="default_016" speedFactor="1.03" vaporized=""/>
    <tripinfo id="carIn72005:1" depart="57978.00" departLane="10425609#0_1" departPos="5.10" departSpeed="0.00" departDelay="0.70" arrival="58199.00" arrivalLane="18809673#0_1" arrivalPos="473.56" arrivalSpeed="11.30" duration="221.00" routeLength="1970.06" waitingTime="0.00" waitingCount="0" stopTime="0.00" timeLoss="21.55" rerouteNo="1" devices="tripinfo_carIn72005:1 routing_carIn72005:1" vType="default_016" speedFactor="0.83" vaporized=""/>
    <tripinfo id="carIn11789:1" depart="57981.00" departLane="10425609#0_1" departPos="5.10" departSpeed="0.00" departDelay="0.40" arrival="58200.00" arrivalLane="18809673#0_1" arrivalPos="473.56" arrivalSpeed="12.41" duration="219.00" routeLength="1970.06" waitingTime="1.00" waitingCount="1" stopTime="0.00" timeLoss="49.86" rerouteNo="1" devices="tripinfo_carIn11789:1 routing_carIn11789:1" vType="default_016" speedFactor="0.97" vaporized=""/>
    <tripinfo id="h8552c1:1" depart="58132.00" departLane="176550249#4_1" departPos="5.10" departSpeed="0.00" departDelay="0.40" arrival="58200.00" arrivalLane="272042145_1" arrivalPos="234.87" arrivalSpeed="13.68" duration="68.00" routeLength="911.47" waitingTime="0.00" waitingCount="0" stopTime="0.00" timeLoss="5.35" rerouteNo="1" devices="tripinfo_h8552c1:1 routing_h8552c1:1" vType="default_016" speedFactor="1.05" vaporized=""/>
    <tripinfo id="randUni11417:1" depart="57989.00" departLane="10425609#0_1" departPos="5.10" departSpeed="0.00" departDelay="0.70" arrival="58202.00" arrivalLane="18809673#0_1" arrivalPos="473.56" arrivalSpeed="12.81" duration="213.00" routeLength="1970.06" waitingTime="1.00" waitingCount="1" stopTime="0.00" timeLoss="34.84" rerouteNo="1" devices="tripinfo_randUni11417:1 routing_randUni11417:1" vType="random_016" speedFactor="0.92" vaporized=""/>
    <tripinfo id="h5183c2:1" depart="58014.00" departLane="201238719#0_1" departPos="5.10" departSpeed="0.00" departDelay="0.00" arrival="58207.00" arrivalLane="32978638#0_1" arrivalPos="49.29" arrivalSpeed="14.26" duration="193.00" routeLength="2487.90" waitingTime="0.00" waitingCount="0" stopTime="0.00" timeLoss="24.31" rerouteNo="1" devices="tripinfo_h5183c2:1 routing_h5183c2:1" vType="default_016" speedFactor="1.06" vaporized=""/>
    <tripinfo id="h3823c2:3" depart="58116.00" departLane="-32978638#0_1" departPos="5.10" departSpeed="0.00" departDelay="0.00" arrival="58215.00" arrivalLane="24634414#2_1" arrivalPos="105.05" arrivalSpeed="6.97" duration="99.00" routeLength="818.89" waitingTime="0.00" waitingCount="0" stopTime="0.00" timeLoss="13.28" rerouteNo="1" devices="tripinfo_h3823c2:3 routing_h3823c2:3" vType="default_016" speedFactor="0.92" vaporized=""/>
    <tripinfo id="h8449c1:3" depart="58116.00" departLane="176550249#3_1" departPos="5.10" departSpeed="0.00" departDelay="0.50" arrival="58221.00" arrivalLane="272042145_1" arrivalPos="234.87" arrivalSpeed="10.67" duration="105.00" routeLength="1113.61" waitingTime="0.00" waitingCount="0" stopTime="0.00" timeLoss="7.72" rerouteNo="1" devices="tripinfo_h8449c1:3 routing_h8449c1:3" vType="default_016" speedFactor="0.83" vaporized=""/>
    <tripinfo id="h16288c1:3" depart="58210.00" departLane="-32978638#0_1" departPos="5.10" departSpeed="0.00" departDelay="3.20" arrival="58242.00" arrivalLane="-266565295#5_1" arrivalPos="172.76" arrivalSpeed="14.63" duration="32.00" routeLength="370.53" waitingTime="0.00" waitingCount="0" stopTime="0.00" timeLoss="6.07" rerouteNo="1" devices="tripinfo_h16288c1:3 routing_h16288c1:3" vType="default_016" speedFactor="1.08" vaporized=""/>
    <tripinfo id="h8090c1:5" depart="58125.00" departLane="-32978638#0_1" departPos="5.10" departSpeed="0.00" departDelay="3.90" arrival="58243.00" arrivalLane="-160314346#0_1" arrivalPos="53.51" arrivalSpeed="7.10" duration="118.00" routeLength="1075.44" waitingTime="0.00" waitingCount="0" stopTime="0.00" timeLoss="14.25" rerouteNo="1" devices="tripinfo_h8090c1:5 routing_h8090c1:5" vType="default_016" speedFactor="1.01" vaporized=""/>
    <tripinfo id="h10915c1:1" depart="58067.00" departLane="10425609#0_1" departPos="5.10" departSpeed="0.00" departDelay="0.30" arrival="58251.00" arrivalLane="18809673#0_1" arrivalPos="473.56" arrivalSpeed="14.26" duration="184.00" routeLength="1970.06" waitingTime="0.00" waitingCount="0" stopTime="0.00" timeLoss="23.50" rerouteNo="1" devices="tripinfo_h10915c1:1 routing_h10915c1:1" vType="default_016" speedFactor="1.03" vaporized=""/>
    <tripinfo id="h3249c2:1" depart="58018.00" departLane="24634513#0_0" departPos="5.10" departSpeed="0.00" departDelay="0.00" arrival="58261.00" arrivalLane="272042145_1" arrivalPos="234.87" arrivalSpeed="12.42" duration="243.00" routeLength="1693.33" waitingTime="0.00" waitingCount="0" stopTime="0.00" timeLoss="40.45" rerouteNo="1" devices="tripinfo_h3249c2:1 routing_h3249c2:1" vType="default_016" speedFactor="0.94" vaporized=""/>
    <tripinfo id="carIn41543:1" depart="58207.00" departLane="-447569998#1_1" departPos="5.10" departSpeed="0.00" departDelay="0.70" arrival="58272.00" arrivalLane="-315358244_1" arrivalPos="33.95" arrivalSpeed="13.91" duration="65.00" routeLength="706.49" waitingTime="0.00" waitingCount="0" stopTime="0.00" timeLoss="6.49" rerouteNo="1" devices="tripinfo_carIn41543:1 routing_carIn41543:1" vType="default_015" speedFactor="1.03" vaporized=""/>
    <tripinfo id="h923c1:1" depart="58051.00" departLane="10425609#0_1" departPos="5.10" departSpeed="0.00" departDelay="0.70" arrival="58292.00" arrivalLane="-218647954_1" arrivalPos="72.82" arrivalSpeed="1.96" duration="241.00" routeLength="1916.62" waitingTime="0.00" waitingCount="0" stopTime="0.00" timeLoss="50.08" rerouteNo="1" devices="tripinfo_h923c1:1 routing_h923c1:1" vType="default_016" speedFactor="1.00" vaporized=""/>
    <tripinfo id="carIn66973:1" depart="58231.00" departLane="-447569998#1_1" departPos="5.10" departSpeed="0.00" departDelay="0.10" arrival="58303.00" arrivalLane="-315358244_1" arrivalPos="33.95" arrivalSpeed="13.42" duration="72.00" routeLength="706.49" waitingTime="0.00" waitingCount="0" stopTime="0.00" timeLoss="10.54" rerouteNo="1" devices="tripinfo_carIn66973:1 routing_carIn66973:1" vType="default_016" speedFactor="0.98" vaporized=""/>
    <tripinfo id="h5350c1:3" depart="58199.00" departLane="315358254#0_1" departPos="5.10" departSpeed="0.00" departDelay="2.20" arrival="58317.00" arrivalLane="28319300#3_1" arrivalPos="85.93" arrivalSpeed="4.99" duration="118.00" routeLength="738.32" waitingTime="2.00" waitingCount="1" stopTime="0.00" timeLoss="18.00" rerouteNo="1" devices="tripinfo_h5350c1:3 routing_h5350c1:3" vType="default_016" speedFactor="0.74" vaporized=""/>
    <tripinfo id="h576c1:1" depart="58146.00" departLane="10425609#0_1" departPos="5.10" departSpeed="0.00" departDelay="0.00" arrival="58331.00" arrivalLane="18809673#0_1" arrivalPos="473.56" arrivalSpeed="13.76" duration="185.00" routeLength="1970.06" waitingTime="6.00" waitingCount="2" stopTime="0.00" timeLoss="30.51" rerouteNo="1" devices="tripinfo_h576c1:1 routing_h576c1:1" vType="default_016" speedFactor="1.07" vaporized=""/>
    <tripinfo id="h9695c1:3" depart="58259.00" departLane="-447569998#1_1" departPos="5.10" departSpeed="0.00" departDelay="0.10" arrival="58332.00" arrivalLane="-315358244_1" arrivalPos="33.95" arrivalSpeed="11.69" duration="73.00" routeLength="706.49" waitingTime="0.00" waitingCount="0" stopTime="0.00" timeLoss="7.95" rerouteNo="1" devices="tripinfo_h9695c1:3 routing_h9695c1:3" vType="default_016" speedFactor="0.93" vaporized=""/>
    <tripinfo id="carIn44560:1" depart="58262.00" departLane="-447569998#1_1" departPos="5.10" departSpeed="0.00" departDelay="1.00" arrival="58333.00" arrivalLane="-315358244_2" arrivalPos="33.95" arrivalSpeed="13.76" duration="71.00" routeLength="706.49" waitingTime="0.00" waitingCount="0" stopTime="0.00" timeLoss="13.26" rerouteNo="1" devices="tripinfo_carIn44560:1 routing_carIn44560:1" vType="default_016" speedFactor="1.05" vaporized=""/>
    <tripinfo id="carIn104860:1" depart="58195.00" departLane="-30482615#4_0" departPos="5.10" departSpeed="0.00" departDelay="0.60" arrival="58347.00" arrivalLane="18809673#0_1" arrivalPos="473.56" arrivalSpeed="11.50" duration="152.00" routeLength="958.56" waitingTime="2.00" waitingCount="1" stopTime="0.00" timeLoss="22.05" rerouteNo="1" devices="tripinfo_carIn104860:1 routing_carIn104860:1" vType="default_016" speedFactor="0.89" vaporized=""/>
    <tripinfo id="randUni32801:1" depart="58337.00" departLane="447569997#1_1" departPos="5.10" departSpeed="0.00" departDelay="0.00" arrival="58361.00" arrivalLane="447569997#1_1" arrivalPos="180.93" arrivalSpeed="7.54" duration="24.00" routeLength="175.83" waitingTime="0.00" waitingCount="0" stopTime="0.00" timeLoss="2.98" rerouteNo="1" devices="tripinfo_randUni32801:1 routing_randUni32801:1" vType="random_016" speedFactor="1.02" vaporized=""/>
    <tripinfo id="carIn36101:1" depart="58284.00" departLane="-447569998#1_1" departPos="5.10" departSpeed="0.00" departDelay="1.70" arrival="58363.00" arrivalLane="-315358244_1" arrivalPos="33.95" arrivalSpeed="12.73" duration="79.00" routeLength="706.49" waitingTime="0.00" waitingCount="0" stopTime="0.00" timeLoss="16.48" rerouteNo="1" devices="tripinfo_carIn36101:1 routing_carIn36101:1" vType="default_016" speedFactor="0.97" vaporized=""/>
    <tripinfo id="h2825c2:1" depart="58217.00" departLane="176550249#1_1" departPos="5.10" departSpeed="0.00" departDelay="0.20" arrival="58379.00" arrivalLane="4942376_1" arrivalPos="259.23" arrivalSpeed="7.81" duration="162.00" routeLength="1837.39" waitingTime="0.00" waitingCount="0" stopTime="0.00" timeLoss="12.38" rerouteNo="1" devices="tripinfo_h2825c2:1 routing_h2825c2:1" vType="default_016" speedFactor="0.98" vaporized=""/>
    <tripinfo id="h2796c2:1" depart="58253.00" departLane="176550249#0_1" departPos="5.10" departSpeed="0.00" departDelay="0.00" arrival="58379.00" arrivalLane="-24634506#2_1" arrivalPos="71.32" arrivalSpeed="11.77" duration="126.00" routeLength="1306.77" waitingTime="0.00" waitingCount="0" stopTime="0.00" timeLoss="16.66" rerouteNo="1" devices="tripinfo_h2796c2:1 routing_h2796c2:1" vType="default_016" speedFactor="0.93" vaporized=""/>
    <tripinfo id="h4013c1:3" depart="58353.00" departLane="-32978638#0_1" departPos="5.10" departSpeed="0.00" departDelay="0.40" arrival="58386.00" arrivalLane="-266565295#5_1" arrivalPos="172.76" arrivalSpeed="13.59" duration="33.00" routeLength="370.53" waitingTime="0.00" waitingCount="0" stopTime="0.00" timeLoss="4.95" rerouteNo="1" devices="tripinfo_h4013c1:3 routing_h4013c1:3" vType="default_016" speedFactor="0.98" vaporized=""/>