<?xml version="1.0" encoding="UTF-8"?>

<!-- generated on 2023-08-30 21:49:34 by Eclipse SUMO libsumo Version 1.18.0
<configuration xmlns:xsi="http://www.w3.org/2001/XMLSchema-instance" xsi:noNamespaceSchemaLocation="http://sumo.dlr.de/xsd/libsumoConfiguration.xsd">

    <input>
        <net-file value="/home/stefan/RESCO/./environments/ingolstadt21/ingolstadt21.net.xml"/>
        <route-files value="/home/stefan/RESCO/./environments/ingolstadt21/ingolstadt21.rou.xml"/>
    </input>

    <output>
        <tripinfo-output value="/home/stefan/results/RAINBOW-tr0-ingolstadt21-21-drq_norm-wait_norm/tripinfo_71.xml"/>
        <tripinfo-output.write-unfinished value="true"/>
    </output>

    <time>
        <begin value="57600"/>
        <end value="61200"/>
    </time>

    <processing>
        <time-to-teleport value="-1"/>
    </processing>

    <report>
        <no-warnings value="True"/>
        <no-step-log value="True"/>
    </report>

    <random_number>
        <random value="true"/>
    </random_number>

</configuration>
-->

<tripinfos xmlns:xsi="http://www.w3.org/2001/XMLSchema-instance" xsi:noNamespaceSchemaLocation="http://sumo.dlr.de/xsd/tripinfo_file.xsd">
    <tripinfo id="h15454c2:3" depart="57612.00" departLane="24608844_1" departPos="5.10" departSpeed="0.00" departDelay="0.50" arrival="57654.00" arrivalLane="32978638#0_1" arrivalPos="49.29" arrivalSpeed="12.61" duration="42.00" routeLength="354.79" waitingTime="0.00" waitingCount="0" stopTime="0.00" timeLoss="5.10" rerouteNo="1" devices="tripinfo_h15454c2:3 routing_h15454c2:3" vType="default_016" speedFactor="0.94" vaporized=""/>
    <tripinfo id="carIn53971:1" depart="57640.00" departLane="272042143_1" departPos="5.10" departSpeed="0.00" departDelay="0.80" arrival="57686.00" arrivalLane="24634414#1_1" arrivalPos="162.19" arrivalSpeed="10.09" duration="46.00" routeLength="493.04" waitingTime="0.00" waitingCount="0" stopTime="0.00" timeLoss="8.49" rerouteNo="1" devices="tripinfo_carIn53971:1 routing_carIn53971:1" vType="default_016" speedFactor="1.24" vaporized=""/>
    <tripinfo id="h7800c1:5" depart="57696.00" departLane="-447569998#1_1" departPos="5.10" departSpeed="0.00" departDelay="0.00" arrival="57719.00" arrivalLane="-447569998#1_1" arrivalPos="180.76" arrivalSpeed="8.78" duration="23.00" routeLength="175.66" waitingTime="0.00" waitingCount="0" stopTime="0.00" timeLoss="2.90" rerouteNo="1" devices="tripinfo_h7800c1:5 routing_h7800c1:5" vType="default_016" speedFactor="1.09" vaporized=""/>
    <tripinfo id="h3688c1:1" depart="57625.00" departLane="201201950#1_1" departPos="5.10" departSpeed="0.00" departDelay="0.00" arrival="57723.00" arrivalLane="32978638#0_1" arrivalPos="49.29" arrivalSpeed="11.60" duration="98.00" routeLength="1089.75" waitingTime="0.00" waitingCount="0" stopTime="0.00" timeLoss="9.10" rerouteNo="1" devices="tripinfo_h3688c1:1 routing_h3688c1:1" vType="default_016" speedFactor="0.90" vaporized=""/>
    <tripinfo id="h4538c1:1" depart="57701.00" departLane="-10427692#1_1" departPos="5.10" departSpeed="0.00" departDelay="0.00" arrival="57764.00" arrivalLane="-128361102#1_1" arrivalPos="274.68" arrivalSpeed="14.71" duration="63.00" routeLength="440.74" waitingTime="21.00" waitingCount="1" stopTime="0.00" timeLoss="33.66" rerouteNo="1" devices="tripinfo_h4538c1:1 routing_h4538c1:1" vType="default_016" speedFactor="1.10" vaporized=""/>
    <tripinfo id="carIn27009:1" depart="57673.00" departLane="-447569998#1_1" departPos="5.10" departSpeed="0.00" departDelay="0.50" arrival="57766.00" arrivalLane="-26677539_1" arrivalPos="152.75" arrivalSpeed="8.07" duration="93.00" routeLength="699.63" waitingTime="0.00" waitingCount="0" stopTime="0.00" timeLoss="10.41" rerouteNo="1" devices="tripinfo_carIn27009:1 routing_carIn27009:1" vType="default_015" speedFactor="1.02" vaporized=""/>
    <tripinfo id="h3326c1:2" depart="57656.00" departLane="22716069#0_1" departPos="5.10" departSpeed="0.00" departDelay="0.00" arrival="57773.00" arrivalLane="24634517#13_1" arrivalPos="111.62" arrivalSpeed="12.56" duration="117.00" routeLength="1312.81" waitingTime="0.00" waitingCount="0" stopTime="0.00" timeLoss="14.23" rerouteNo="1" devices="tripinfo_h3326c1:2 routing_h3326c1:2" vType="default_016" speedFactor="0.95" vaporized=""/>
    <tripinfo id="carIn121703:1" depart="57647.00" departLane="386687232#0_1" departPos="5.10" departSpeed="0.00" departDelay="0.30" arrival="57783.00" arrivalLane="-315358244_1" arrivalPos="33.95" arrivalSpeed="14.48" duration="136.00" routeLength="1157.39" waitingTime="35.00" waitingCount="2" stopTime="0.00" timeLoss="58.01" rerouteNo="1" devices="tripinfo_carIn121703:1 routing_carIn121703:1" vType="default_016" speedFactor="1.09" vaporized=""/>
    <tripinfo id="h3568c1:3" depart="57656.00" departLane="266565295#5_1" departPos="5.10" departSpeed="0.00" departDelay="0.80" arrival="57814.00" arrivalLane="-24634415_1" arrivalPos="62.03" arrivalSpeed="13.22" duration="158.00" routeLength="807.40" waitingTime="78.00" waitingCount="1" stopTime="0.00" timeLoss="96.15" rerouteNo="1" devices="tripinfo_h3568c1:3 routing_h3568c1:3" vType="default_016" speedFactor="1.03" vaporized=""/>
    <tripinfo id="h3154c1:1" depart="57658.00" departLane="24634507_1" departPos="5.10" departSpeed="0.00" departDelay="0.00" arrival="57815.00" arrivalLane="-266565295#5_1" arrivalPos="172.76" arrivalSpeed="12.04" duration="157.00" routeLength="1206.22" waitingTime="39.00" waitingCount="1" stopTime="0.00" timeLoss="57.00" rerouteNo="1" devices="tripinfo_h3154c1:1 routing_h3154c1:1" vType="default_016" speedFactor="0.90" vaporized=""/>
    <tripinfo id="randUni15030:1" depart="57735.00" departLane="386687232#0_1" departPos="5.10" departSpeed="0.00" departDelay="0.10" arrival="57834.00" arrivalLane="26677539_1" arrivalPos="151.98" arrivalSpeed="8.59" duration="99.00" routeLength="919.89" waitingTime="5.00" waitingCount="1" stopTime="0.00" timeLoss="20.08" rerouteNo="1" devices="tripinfo_randUni15030:1 routing_randUni15030:1" vType="random_016" speedFactor="1.05" vaporized=""/>
    <tripinfo id="carIn12775:1" depart="57676.00" departLane="10425609#0_1" departPos="5.10" departSpeed="0.00" departDelay="0.60" arrival="57842.00" arrivalLane="18809673#0_1" arrivalPos="473.56" arrivalSpeed="14.01" duration="166.00" routeLength="1959.45" waitingTime="1.00" waitingCount="1" stopTime="0.00" timeLoss="22.83" rerouteNo="1" devices="tripinfo_carIn12775:1 routing_carIn12775:1" vType="default_016" speedFactor="1.01" vaporized=""/>
    <tripinfo id="h645c1:1" depart="57622.00" departLane="266565295#5_1" departPos="5.10" departSpeed="0.00" departDelay="0.40" arrival="57844.00" arrivalLane="-315358244_1" arrivalPos="33.95" arrivalSpeed="12.07" duration="222.00" routeLength="1910.83" waitingTime="47.00" waitingCount="2" stopTime="0.00" timeLoss="68.29" rerouteNo="1" devices="tripinfo_h645c1:1 routing_h645c1:1" vType="default_016" speedFactor="0.91" vaporized=""/>
    <tripinfo id="carIn73855:1" depart="57743.00" departLane="386687232#0_1" departPos="5.10" departSpeed="0.00" departDelay="0.50" arrival="57846.00" arrivalLane="-315358244_1" arrivalPos="33.95" arrivalSpeed="12.48" duration="103.00" routeLength="1157.39" waitingTime="0.00" waitingCount="0" stopTime="0.00" timeLoss="12.41" rerouteNo="1" devices="tripinfo_carIn73855:1 routing_carIn73855:1" vType="default_016" speedFactor="0.92" vaporized=""/>
    <tripinfo id="carIn107282:1" depart="57749.00" departLane="-447569998#1_1" departPos="5.10" departSpeed="0.00" departDelay="0.00" arrival="57847.00" arrivalLane="315358242#0_1" arrivalPos="165.37" arrivalSpeed="12.42" duration="98.00" routeLength="448.50" waitingTime="45.00" waitingCount="1" stopTime="0.00" timeLoss="54.70" rerouteNo="1" devices="tripinfo_carIn107282:1 routing_carIn107282:1" vType="default_016" speedFactor="0.97" vaporized=""/>
    <tripinfo id="randUni31145:1" depart="57814.00" departLane="10425609#0_1" departPos="5.10" departSpeed="0.00" departDelay="0.30" arrival="57848.00" arrivalLane="201956810_1" arrivalPos="71.65" arrivalSpeed="14.36" duration="34.00" routeLength="255.78" waitingTime="6.00" waitingCount="1" stopTime="0.00" timeLoss="14.79" rerouteNo="1" devices="tripinfo_randUni31145:1 routing_randUni31145:1" vType="random_016" speedFactor="1.04" vaporized=""/>
    <tripinfo id="randUni2407:1" depart="57820.00" departLane="10425609#0_1" departPos="5.10" departSpeed="0.00" departDelay="0.80" arrival="57858.00" arrivalLane="201956810_1" arrivalPos="71.65" arrivalSpeed="12.64" duration="38.00" routeLength="255.78" waitingTime="4.00" waitingCount="1" stopTime="0.00" timeLoss="16.53" rerouteNo="1" devices="tripinfo_randUni2407:1 routing_randUni2407:1" vType="random_016" speedFactor="0.93" vaporized=""/>
    <tripinfo id="h5170c2:1" depart="57631.00" departLane="201201953#4_1" departPos="5.10" departSpeed="0.00" departDelay="0.00" arrival="57867.00" arrivalLane="-266565295#5_1" arrivalPos="172.76" arrivalSpeed="14.48" duration="236.00" routeLength="3097.92" waitingTime="0.00" waitingCount="0" stopTime="0.00" timeLoss="25.74" rerouteNo="1" devices="tripinfo_h5170c2:1 routing_h5170c2:1" vType="default_016" speedFactor="1.09" vaporized=""/>
    <tripinfo id="carIn29676:1" depart="57789.00" departLane="-160314345#5_1" departPos="5.10" departSpeed="0.00" departDelay="0.00" arrival="57886.00" arrivalLane="-24634505_1" arrivalPos="48.18" arrivalSpeed="15.79" duration="97.00" routeLength="1162.34" waitingTime="2.00" waitingCount="1" stopTime="0.00" timeLoss="19.51" rerouteNo="1" devices="tripinfo_carIn29676:1 routing_carIn29676:1" vType="default_016" speedFactor="1.16" vaporized=""/>
    <tripinfo id="h317c2:1" depart="57707.00" departLane="-32978638#0_1" departPos="5.10" departSpeed="0.00" departDelay="0.10" arrival="57892.00" arrivalLane="-266565295#5_1" arrivalPos="172.76" arrivalSpeed="12.52" duration="185.00" routeLength="370.53" waitingTime="147.00" waitingCount="1" stopTime="0.00" timeLoss="156.26" rerouteNo="1" devices="tripinfo_h317c2:1 routing_h317c2:1" vType="default_016" speedFactor="0.97" vaporized=""/>
    <tripinfo id="h11737c1:1" depart="57665.00" departLane="272042143_1" departPos="5.10" departSpeed="0.00" departDelay="1.50" arrival="57897.00" arrivalLane="-315358254#1_1" arrivalPos="137.16" arrivalSpeed="11.60" duration="232.00" routeLength="1596.88" waitingTime="85.00" waitingCount="2" stopTime="0.00" timeLoss="105.42" rerouteNo="1" devices="tripinfo_h11737c1:1 routing_h11737c1:1" vType="default_016" speedFactor="0.92" vaporized=""/>
    <tripinfo id="h6846c2:1" depart="57741.00" departLane="26677213#0_1" departPos="5.10" departSpeed="0.00" departDelay="0.00" arrival="57897.00" arrivalLane="386687235_1" arrivalPos="80.84" arrivalSpeed="14.04" duration="156.00" routeLength="1412.24" waitingTime="0.00" waitingCount="0" stopTime="0.00" timeLoss="20.68" rerouteNo="1" devices="tripinfo_h6846c2:1 routing_h6846c2:1" vType="default_016" speedFactor="1.02" vaporized=""/>
    <tripinfo id="carIn126288:1" depart="57674.00" departLane="272042143_1" departPos="5.10" departSpeed="0.00" departDelay="0.00" arrival="57899.00" arrivalLane="-315358254#1_1" arrivalPos="137.16" arrivalSpeed="13.48" duration="225.00" routeLength="1596.88" waitingTime="84.00" waitingCount="2" stopTime="0.00" timeLoss="112.14" rerouteNo="1" devices="tripinfo_carIn126288:1 routing_carIn126288:1" vType="default_016" speedFactor="1.04" vaporized=""/>
    <tripinfo id="randUni23028:1" depart="57884.00" departLane="124812856#0_1" departPos="5.10" departSpeed="0.00" departDelay="0.10" arrival="57902.00" arrivalLane="201956810_1" arrivalPos="71.65" arrivalSpeed="12.69" duration="18.00" routeLength="134.91" waitingTime="0.00" waitingCount="0" stopTime="0.00" timeLoss="6.82" rerouteNo="1" devices="tripinfo_randUni23028:1 routing_randUni23028:1" vType="random_016" speedFactor="0.96" vaporized=""/>
    <tripinfo id="h5979c1:5" depart="57669.00" departLane="399835085#1_1" departPos="5.10" departSpeed="0.00" departDelay="0.00" arrival="57905.00" arrivalLane="-315358254#1_1" arrivalPos="137.16" arrivalSpeed="12.10" duration="236.00" routeLength="659.33" waitingTime="138.00" waitingCount="1" stopTime="0.00" timeLoss="155.03" rerouteNo="1" devices="tripinfo_h5979c1:5 routing_h5979c1:5" vType="default_016" speedFactor="0.91" vaporized=""/>
    <tripinfo id="carIn129809:1" depart="57729.00" departLane="-447569998#1_1" departPos="5.10" departSpeed="0.00" departDelay="1.00" arrival="57924.00" arrivalLane="-315358244_2" arrivalPos="33.95" arrivalSpeed="11.07" duration="195.00" routeLength="706.49" waitingTime="107.00" waitingCount="2" stopTime="0.00" timeLoss="126.84" rerouteNo="1" devices="tripinfo_carIn129809:1 routing_carIn129809:1" vType="default_015" speedFactor="0.89" vaporized=""/>
    <tripinfo id="carIn126378:1" depart="57746.00" departLane="386687232#0_1" departPos="5.10" departSpeed="0.00" departDelay="1.80" arrival="57924.00" arrivalLane="-315358244_1" arrivalPos="33.95" arrivalSpeed="12.26" duration="178.00" routeLength="1157.39" waitingTime="67.00" waitingCount="1" stopTime="0.00" timeLoss="84.02" rerouteNo="1" devices="tripinfo_carIn126378:1 routing_carIn126378:1" vType="default_016" speedFactor="0.90" vaporized=""/>
    <tripinfo id="carIn13443:1" depart="57729.00" departLane="272042143_1" departPos="5.10" departSpeed="0.00" departDelay="0.80" arrival="57926.00" arrivalLane="399835085#1_1" arrivalPos="212.23" arrivalSpeed="8.79" duration="197.00" routeLength="1757.45" waitingTime="33.00" waitingCount="3" stopTime="0.00" timeLoss="63.02" rerouteNo="1" devices="tripinfo_carIn13443:1 routing_carIn13443:1" vType="default_016" speedFactor="1.06" vaporized=""/>
    <tripinfo id="carIn8642:1" depart="57774.00" departLane="-447569998#1_1" departPos="5.10" departSpeed="0.00" departDelay="0.90" arrival="57926.00" arrivalLane="-315358244_2" arrivalPos="33.95" arrivalSpeed="12.34" duration="152.00" routeLength="706.49" waitingTime="68.00" waitingCount="2" stopTime="0.00" timeLoss="88.11" rerouteNo="1" devices="tripinfo_carIn8642:1 routing_carIn8642:1" vType="default_016" speedFactor="0.95" vaporized=""/>
    <tripinfo id="carIn70533:1" depart="57812.00" departLane="-447569998#1_1" departPos="5.10" departSpeed="0.00" departDelay="0.10" arrival="57926.00" arrivalLane="-315358244_1" arrivalPos="33.95" arrivalSpeed="12.44" duration="114.00" routeLength="706.49" waitingTime="41.00" waitingCount="1" stopTime="0.00" timeLoss="52.66" rerouteNo="1" devices="tripinfo_carIn70533:1 routing_carIn70533:1" vType="default_016" speedFactor="0.99" vaporized=""/>
    <tripinfo id="carIn13353:1" depart="57838.00" departLane="-447569998#1_1" departPos="5.10" departSpeed="0.00" departDelay="0.30" arrival="57928.00" arrivalLane="-315358244_1" arrivalPos="33.95" arrivalSpeed="12.35" duration="90.00" routeLength="706.49" waitingTime="14.00" waitingCount="1" stopTime="0.00" timeLoss="26.40" rerouteNo="1" devices="tripinfo_carIn13353:1 routing_carIn13353:1" vType="default_016" speedFactor="0.96" vaporized=""/>
    <tripinfo id="carIn63848:1" depart="57841.00" departLane="-447569998#1_1" departPos="5.10" departSpeed="0.00" departDelay="0.80" arrival="57928.00" arrivalLane="-315358244_2" arrivalPos="33.95" arrivalSpeed="11.82" duration="87.00" routeLength="706.49" waitingTime="5.00" waitingCount="1" stopTime="0.00" timeLoss="17.57" rerouteNo="1" devices="tripinfo_carIn63848:1 routing_carIn63848:1" vType="default_016" speedFactor="0.88" vaporized=""/>
    <tripinfo id="h6541c1:3" depart="57727.00" departLane="201950247#3_1" departPos="5.10" departSpeed="0.00" departDelay="0.00" arrival="57941.00" arrivalLane="32978638#0_1" arrivalPos="49.29" arrivalSpeed="14.20" duration="214.00" routeLength="1176.17" waitingTime="89.00" waitingCount="2" stopTime="0.00" timeLoss="116.00" rerouteNo="1" devices="tripinfo_h6541c1:3 routing_h6541c1:3" vType="default_016" speedFactor="1.04" vaporized=""/>
    <tripinfo id="h3536c1:1" depart="57767.00" departLane="-24634413#2_1" departPos="5.10" departSpeed="0.00" departDelay="0.00" arrival="57943.00" arrivalLane="32978638#0_1" arrivalPos="49.29" arrivalSpeed="14.68" duration="176.00" routeLength="953.61" waitingTime="71.00" waitingCount="1" stopTime="0.00" timeLoss="92.39" rerouteNo="1" devices="tripinfo_h3536c1:1 routing_h3536c1:1" vType="default_016" speedFactor="1.08" vaporized=""/>
    <tripinfo id="h17890c1:3" depart="57792.00" departLane="386687232#0_1" departPos="5.10" departSpeed="0.00" departDelay="0.00" arrival="57948.00" arrivalLane="32978638#0_1" arrivalPos="49.29" arrivalSpeed="11.52" duration="156.00" routeLength="792.72" waitingTime="72.00" waitingCount="2" stopTime="0.00" timeLoss="91.25" rerouteNo="1" devices="tripinfo_h17890c1:3 routing_h17890c1:3" vType="default_016" speedFactor="0.91" vaporized=""/>
    <tripinfo id="randUni16001:1" depart="57912.00" departLane="10425609#0_1" departPos="5.10" departSpeed="0.00" departDelay="0.30" arrival="57949.00" arrivalLane="201956810_1" arrivalPos="71.65" arrivalSpeed="11.67" duration="37.00" routeLength="255.78" waitingTime="6.00" waitingCount="1" stopTime="0.00" timeLoss="14.92" rerouteNo="1" devices="tripinfo_randUni16001:1 routing_randUni16001:1" vType="random_016" speedFactor="0.93" vaporized=""/>
    <tripinfo id="h330c1:1" depart="57736.00" departLane="-32978638#0_1" departPos="5.10" departSpeed="0.00" departDelay="0.20" arrival="57955.00" arrivalLane="-266565295#5_1" arrivalPos="172.76" arrivalSpeed="12.99" duration="219.00" routeLength="370.53" waitingTime="180.00" waitingCount="2" stopTime="0.00" timeLoss="191.92" rerouteNo="1" devices="tripinfo_h330c1:1 routing_h330c1:1" vType="default_016" speedFactor="1.02" vaporized=""/>
    <tripinfo id="h3847c1:3" depart="57893.00" departLane="24634416_1" departPos="5.10" departSpeed="0.00" departDelay="0.00" arrival="57959.00" arrivalLane="32978638#0_1" arrivalPos="49.29" arrivalSpeed="11.76" duration="66.00" routeLength="547.99" waitingTime="4.00" waitingCount="1" stopTime="0.00" timeLoss="21.42" rerouteNo="1" devices="tripinfo_h3847c1:3 routing_h3847c1:3" vType="default_016" speedFactor="0.93" vaporized=""/>
    <tripinfo id="carIn80064:1" depart="57603.00" departLane="128361109#1_1" departPos="5.10" departSpeed="0.00" departDelay="0.40" arrival="57960.00" arrivalLane="-315358254#1_1" arrivalPos="137.16" arrivalSpeed="15.07" duration="357.00" routeLength="1587.97" waitingTime="250.00" waitingCount="1" stopTime="0.00" timeLoss="276.69" rerouteNo="1" devices="tripinfo_carIn80064:1 routing_carIn80064:1" vType="default_016" speedFactor="1.11" vaporized=""/>
    <tripinfo id="carIn16842:1" depart="57744.00" departLane="10425609#0_1" departPos="5.10" departSpeed="0.00" departDelay="0.40" arrival="57972.00" arrivalLane="18809673#0_1" arrivalPos="473.56" arrivalSpeed="13.19" duration="228.00" routeLength="1959.45" waitingTime="61.00" waitingCount="1" stopTime="0.00" timeLoss="83.21" rerouteNo="1" devices="tripinfo_carIn16842:1 routing_carIn16842:1" vType="default_016" speedFactor="1.01" vaporized=""/>
    <tripinfo id="carIn30817:1" depart="57681.00" departLane="315358244_1" departPos="5.10" departSpeed="0.00" departDelay="0.20" arrival="57973.00" arrivalLane="447569997#1_1" arrivalPos="180.93" arrivalSpeed="6.98" duration="292.00" routeLength="718.04" waitingTime="208.00" waitingCount="2" stopTime="0.00" timeLoss="223.70" rerouteNo="1" devices="tripinfo_carIn30817:1 routing_carIn30817:1" vType="default_016" speedFactor="0.90" vaporized=""/>
    <tripinfo id="randUni11215:1" depart="57953.00" departLane="124812856#0_1" departPos="5.10" departSpeed="0.00" departDelay="0.30" arrival="57973.00" arrivalLane="201956810_1" arrivalPos="71.65" arrivalSpeed="12.39" duration="20.00" routeLength="134.91" waitingTime="0.00" waitingCount="0" stopTime="0.00" timeLoss="8.52" rerouteNo="1" devices="tripinfo_randUni11215:1 routing_randUni11215:1" vType="random_016" speedFactor="0.93" vaporized=""/>
    <tripinfo id="carIn28951:1" depart="57606.00" departLane="10425609#0_1" departPos="5.10" departSpeed="0.00" departDelay="0.20" arrival="57984.00" arrivalLane="-128361102#1_1" arrivalPos="274.68" arrivalSpeed="14.73" duration="378.00" routeLength="2113.04" waitingTime="207.00" waitingCount="2" stopTime="0.00" timeLoss="233.44" rerouteNo="1" devices="tripinfo_carIn28951:1 routing_carIn28951:1" vType="default_016" speedFactor="1.07" vaporized=""/>
    <tripinfo id="h20540c1:1" depart="57634.00" departLane="10425609#0_1" departPos="5.10" departSpeed="0.00" departDelay="0.50" arrival="57986.00" arrivalLane="-128361102#1_1" arrivalPos="274.68" arrivalSpeed="13.81" duration="352.00" routeLength="2113.04" waitingTime="174.00" waitingCount="3" stopTime="0.00" timeLoss="207.77" rerouteNo="1" devices="tripinfo_h20540c1:1 routing_h20540c1:1" vType="default_016" speedFactor="1.07" vaporized=""/>
    <tripinfo id="carIn113750:1" depart="57961.00" departLane="24599188#0.94_1" departPos="5.10" departSpeed="0.00" departDelay="0.30" arrival="57986.00" arrivalLane="24599188#0.94_1" arrivalPos="186.59" arrivalSpeed="7.13" duration="25.00" routeLength="181.49" waitingTime="0.00" waitingCount="0" stopTime="0.00" timeLoss="3.08" rerouteNo="1" devices="tripinfo_carIn113750:1 routing_carIn113750:1" vType="default_016" speedFactor="1.00" vaporized=""/>
    <tripinfo id="carIn60260:1" depart="57606.00" departLane="315358254#0_1" departPos="5.10" departSpeed="0.00" departDelay="0.90" arrival="57987.00" arrivalLane="399835085#1_1" arrivalPos="212.23" arrivalSpeed="6.23" duration="381.00" routeLength="430.98" waitingTime="321.00" waitingCount="1" stopTime="0.00" timeLoss="330.32" rerouteNo="1" devices="tripinfo_carIn60260:1 routing_carIn60260:1" vType="default_016" speedFactor="0.90" vaporized=""/>
    <tripinfo id="carIn106665:1" depart="57659.00" departLane="266565295#5_1" departPos="5.10" departSpeed="0.00" departDelay="1.80" arrival="57990.00" arrivalLane="201238729#3_1" arrivalPos="431.02" arrivalSpeed="14.49" duration="331.00" routeLength="2840.38" waitingTime="113.00" waitingCount="2" stopTime="0.00" timeLoss="140.97" rerouteNo="1" devices="tripinfo_carIn106665:1 routing_carIn106665:1" vType="default_016" speedFactor="1.09" vaporized=""/>
    <tripinfo id="h17600c1:1" depart="57662.00" departLane="272042143_1" departPos="5.10" departSpeed="0.00" departDelay="0.30" arrival="57990.00" arrivalLane="201238729#3_2" arrivalPos="431.02" arrivalSpeed="14.45" duration="328.00" routeLength="2100.26" waitingTime="161.00" waitingCount="2" stopTime="0.00" timeLoss="184.26" rerouteNo="1" devices="tripinfo_h17600c1:1 routing_h17600c1:1" vType="default_016" speedFactor="1.06" vaporized=""/>
    <tripinfo id="h12244c1:3" depart="57612.00" departLane="315358244_1" departPos="5.10" departSpeed="0.00" departDelay="0.40" arrival="57992.00" arrivalLane="386687235_1" arrivalPos="80.84" arrivalSpeed="16.02" duration="380.00" routeLength="1186.14" waitingTime="285.00" waitingCount="2" stopTime="0.00" timeLoss="305.82" rerouteNo="1" devices="tripinfo_h12244c1:3 routing_h12244c1:3" vType="default_016" speedFactor="1.16" vaporized=""/>
    <tripinfo id="carIn92858:1" depart="57733.00" departLane="10425609#0_1" departPos="5.10" departSpeed="0.00" departDelay="0.80" arrival="57992.00" arrivalLane="-128361102#1_1" arrivalPos="274.68" arrivalSpeed="12.28" duration="259.00" routeLength="2095.01" waitingTime="68.00" waitingCount="1" stopTime="0.00" timeLoss="95.57" rerouteNo="1" devices="tripinfo_carIn92858:1 routing_carIn92858:1" vType="default_016" speedFactor="0.94" vaporized=""/>
    <tripinfo id="h13760c1:1" depart="57746.00" departLane="266565295#5_1" departPos="5.10" departSpeed="0.00" departDelay="3.10" arrival="57994.00" arrivalLane="201238729#3_1" arrivalPos="431.02" arrivalSpeed="12.95" duration="248.00" routeLength="2840.38" waitingTime="18.00" waitingCount="1" stopTime="0.00" timeLoss="39.93" rerouteNo="1" devices="tripinfo_h13760c1:1 routing_h13760c1:1" vType="default_016" speedFactor="0.99" vaporized=""/>
    <tripinfo id="carIn95912:1" depart="57825.00" departLane="272042143_1" departPos="5.10" departSpeed="0.00" departDelay="1.40" arrival="57996.00" arrivalLane="201238729#3_2" arrivalPos="431.02" arrivalSpeed="13.40" duration="171.00" routeLength="2100.26" waitingTime="0.00" waitingCount="0" stopTime="0.00" timeLoss="18.29" rerouteNo="1" devices="tripinfo_carIn95912:1 routing_carIn95912:1" vType="default_016" speedFactor="0.99" vaporized=""/>
    <tripinfo id="carIn132499:1" depart="57740.00" departLane="272042143_1" departPos="5.10" departSpeed="0.00" departDelay="0.70" arrival="57997.00" arrivalLane="201238729#3_1" arrivalPos="431.02" arrivalSpeed="11.98" duration="257.00" routeLength="2100.26" waitingTime="70.00" waitingCount="2" stopTime="0.00" timeLoss="93.50" rerouteNo="1" devices="tripinfo_carIn132499:1 routing_carIn132499:1" vType="default_016" speedFactor="0.93" vaporized=""/>
    <tripinfo id="randUni20153:1" depart="57834.00" departLane="272042143_1" departPos="5.10" departSpeed="0.00" departDelay="5.60" arrival="57998.00" arrivalLane="201238729#3_2" arrivalPos="431.02" arrivalSpeed="16.61" duration="164.00" routeLength="2100.26" waitingTime="6.00" waitingCount="1" stopTime="0.00" timeLoss="37.99" rerouteNo="1" devices="tripinfo_randUni20153:1 routing_randUni20153:1" vType="random_016" speedFactor="1.21" vaporized=""/>
    <tripinfo id="h9563c2:5" depart="57631.00" departLane="315358244_1" departPos="5.10" departSpeed="0.00" departDelay="0.70" arrival="58005.00" arrivalLane="386687235_1" arrivalPos="80.84" arrivalSpeed="12.35" duration="374.00" routeLength="1186.14" waitingTime="257.00" waitingCount="2" stopTime="0.00" timeLoss="279.45" rerouteNo="1" devices="tripinfo_h9563c2:5 routing_h9563c2:5" vType="default_016" speedFactor="0.91" vaporized=""/>
    <tripinfo id="h4574c1:3" depart="57907.00" departLane="-137454133#5_1" departPos="5.10" departSpeed="0.00" departDelay="0.00" arrival="58005.00" arrivalLane="201238729#3_1" arrivalPos="431.02" arrivalSpeed="11.23" duration="98.00" routeLength="979.11" waitingTime="3.00" waitingCount="1" stopTime="0.00" timeLoss="21.59" rerouteNo="1" devices="tripinfo_h4574c1:3 routing_h4574c1:3" vType="default_016" speedFactor="0.89" vaporized=""/>
    <tripinfo id="carIn48137:1" depart="57682.00" departLane="128361109#1_1" departPos="5.10" departSpeed="0.00" departDelay="4.60" arrival="58006.00" arrivalLane="32978638#0_1" arrivalPos="49.29" arrivalSpeed="14.71" duration="324.00" routeLength="2641.59" waitingTime="112.00" waitingCount="2" stopTime="0.00" timeLoss="147.47" rerouteNo="1" devices="tripinfo_carIn48137:1 routing_carIn48137:1" vType="default_016" speedFactor="1.09" vaporized=""/>
    <tripinfo id="h3426c1:1" depart="57864.00" departLane="-160314345#2_1" departPos="5.10" departSpeed="0.00" departDelay="0.00" arrival="58043.00" arrivalLane="386687235_1" arrivalPos="80.84" arrivalSpeed="12.66" duration="179.00" routeLength="726.87" waitingTime="97.00" waitingCount="1" stopTime="0.00" timeLoss="111.08" rerouteNo="1" devices="tripinfo_h3426c1:1 routing_h3426c1:1" vType="default_016" speedFactor="1.00" vaporized=""/>
    <tripinfo id="carIn7949:1" depart="57676.00" departLane="128361109#1_1" departPos="5.10" departSpeed="0.00" departDelay="2.10" arrival="58044.00" arrivalLane="386687235_2" arrivalPos="80.84" arrivalSpeed="13.71" duration="368.00" routeLength="2088.57" waitingTime="198.00" waitingCount="3" stopTime="0.00" timeLoss="227.00" rerouteNo="1" devices="tripinfo_carIn7949:1 routing_carIn7949:1" vType="default_016" speedFactor="1.07" vaporized=""/>
    <tripinfo id="carIn85747:1" depart="57673.00" departLane="128361109#1_1" departPos="5.10" departSpeed="0.00" departDelay="0.70" arrival="58045.00" arrivalLane="386687235_1" arrivalPos="80.84" arrivalSpeed="14.89" duration="372.00" routeLength="2088.57" waitingTime="206.00" waitingCount="3" stopTime="0.00" timeLoss="235.53" rerouteNo="1" devices="tripinfo_carIn85747:1 routing_carIn85747:1" vType="default_016" speedFactor="1.11" vaporized=""/>
    <tripinfo id="h2859c1:1" depart="57822.00" departLane="201238726#0.117_1" departPos="5.10" departSpeed="0.00" departDelay="0.10" arrival="58045.00" arrivalLane="386687235_2" arrivalPos="80.84" arrivalSpeed="15.29" duration="223.00" routeLength="1631.78" waitingTime="91.00" waitingCount="3" stopTime="0.00" timeLoss="117.16" rerouteNo="1" devices="tripinfo_h2859c1:1 routing_h2859c1:1" vType="default_016" speedFactor="1.12" vaporized=""/>
    <tripinfo id="carIn46110:1" depart="57684.00" departLane="315358244_1" departPos="5.10" departSpeed="0.00" departDelay="1.20" arrival="58046.00" arrivalLane="32978638#0_1" arrivalPos="49.29" arrivalSpeed="12.30" duration="362.00" routeLength="1764.04" waitingTime="207.00" waitingCount="2" stopTime="0.00" timeLoss="229.82" rerouteNo="1" devices="tripinfo_carIn46110:1 routing_carIn46110:1" vType="default_016" speedFactor="0.98" vaporized=""/>
    <tripinfo id="h19413c1:1" depart="57685.00" departLane="128361109#1_1" departPos="5.10" departSpeed="0.00" departDelay="5.90" arrival="58048.00" arrivalLane="386687235_1" arrivalPos="80.84" arrivalSpeed="11.82" duration="363.00" routeLength="2088.57" waitingTime="171.00" waitingCount="3" stopTime="0.00" timeLoss="200.88" rerouteNo="1" devices="tripinfo_h19413c1:1 routing_h19413c1:1" vType="default_016" speedFactor="0.93" vaporized=""/>
    <tripinfo id="carIn88905:1" depart="57688.00" departLane="128361109#1_1" departPos="5.10" departSpeed="0.00" departDelay="5.80" arrival="58048.00" arrivalLane="386687235_2" arrivalPos="80.84" arrivalSpeed="11.76" duration="360.00" routeLength="2088.57" waitingTime="163.00" waitingCount="3" stopTime="0.00" timeLoss="194.13" rerouteNo="1" devices="tripinfo_carIn88905:1 routing_carIn88905:1" vType="default_016" speedFactor="0.91" vaporized=""/>