<?xml version="1.0" encoding="UTF-8"?>

<!-- generated on 2023-08-30 21:39:51 by Eclipse SUMO libsumo Version 1.18.0
<configuration xmlns:xsi="http://www.w3.org/2001/XMLSchema-instance" xsi:noNamespaceSchemaLocation="http://sumo.dlr.de/xsd/libsumoConfiguration.xsd">

    <input>
        <net-file value="/home/stefan/RESCO/./environments/ingolstadt21/ingolstadt21.net.xml"/>
        <route-files value="/home/stefan/RESCO/./environments/ingolstadt21/ingolstadt21.rou.xml"/>
    </input>

    <output>
        <tripinfo-output value="/home/stefan/results/RAINBOW-tr0-ingolstadt21-21-drq_norm-wait_norm/tripinfo_63.xml"/>
        <tripinfo-output.write-unfinished value="true"/>
    </output>

    <time>
        <begin value="57600"/>
        <end value="61200"/>
    </time>

    <processing>
        <time-to-teleport value="-1"/>
    </processing>

    <report>
        <no-warnings value="True"/>
        <no-step-log value="True"/>
    </report>

    <random_number>
        <random value="true"/>
    </random_number>

</configuration>
-->

<tripinfos xmlns:xsi="http://www.w3.org/2001/XMLSchema-instance" xsi:noNamespaceSchemaLocation="http://sumo.dlr.de/xsd/tripinfo_file.xsd">
    <tripinfo id="h15454c2:3" depart="57612.00" departLane="24608844_1" departPos="5.10" departSpeed="0.00" departDelay="0.50" arrival="57651.00" arrivalLane="32978638#0_1" arrivalPos="49.29" arrivalSpeed="13.31" duration="39.00" routeLength="354.79" waitingTime="0.00" waitingCount="0" stopTime="0.00" timeLoss="5.38" rerouteNo="1" devices="tripinfo_h15454c2:3 routing_h15454c2:3" vType="default_016" speedFactor="1.02" vaporized=""/>
    <tripinfo id="carIn53971:1" depart="57640.00" departLane="272042143_1" departPos="5.10" departSpeed="0.00" departDelay="0.80" arrival="57704.00" arrivalLane="24634414#1_1" arrivalPos="162.19" arrivalSpeed="6.80" duration="64.00" routeLength="493.04" waitingTime="0.00" waitingCount="0" stopTime="0.00" timeLoss="8.90" rerouteNo="1" devices="tripinfo_carIn53971:1 routing_carIn53971:1" vType="default_016" speedFactor="0.84" vaporized=""/>
    <tripinfo id="carIn60260:1" depart="57606.00" departLane="315358254#0_1" departPos="5.10" departSpeed="0.00" departDelay="0.90" arrival="57710.00" arrivalLane="399835085#1_1" arrivalPos="212.23" arrivalSpeed="8.10" duration="104.00" routeLength="430.98" waitingTime="51.00" waitingCount="1" stopTime="0.00" timeLoss="60.89" rerouteNo="1" devices="tripinfo_carIn60260:1 routing_carIn60260:1" vType="default_016" speedFactor="1.08" vaporized=""/>
    <tripinfo id="h7800c1:5" depart="57696.00" departLane="-447569998#1_1" departPos="5.10" departSpeed="0.00" departDelay="0.00" arrival="57720.00" arrivalLane="-447569998#1_1" arrivalPos="180.76" arrivalSpeed="8.04" duration="24.00" routeLength="175.66" waitingTime="0.00" waitingCount="0" stopTime="0.00" timeLoss="3.69" rerouteNo="1" devices="tripinfo_h7800c1:5 routing_h7800c1:5" vType="default_016" speedFactor="1.05" vaporized=""/>
    <tripinfo id="h3568c1:3" depart="57656.00" departLane="266565295#5_1" departPos="5.10" departSpeed="0.00" departDelay="0.80" arrival="57730.00" arrivalLane="-24634415_1" arrivalPos="62.03" arrivalSpeed="13.83" duration="74.00" routeLength="807.40" waitingTime="0.00" waitingCount="0" stopTime="0.00" timeLoss="11.29" rerouteNo="1" devices="tripinfo_h3568c1:3 routing_h3568c1:3" vType="default_016" speedFactor="1.02" vaporized=""/>
    <tripinfo id="h4538c1:1" depart="57701.00" departLane="-10427692#1_1" departPos="5.10" departSpeed="0.00" departDelay="0.00" arrival="57738.00" arrivalLane="-128361102#1_1" arrivalPos="274.68" arrivalSpeed="14.17" duration="37.00" routeLength="440.74" waitingTime="0.00" waitingCount="0" stopTime="0.00" timeLoss="6.51" rerouteNo="1" devices="tripinfo_h4538c1:1 routing_h4538c1:1" vType="default_016" speedFactor="1.03" vaporized=""/>
    <tripinfo id="h317c2:1" depart="57707.00" departLane="-32978638#0_1" departPos="5.10" departSpeed="0.00" departDelay="0.10" arrival="57743.00" arrivalLane="-266565295#5_1" arrivalPos="172.76" arrivalSpeed="15.52" duration="36.00" routeLength="370.53" waitingTime="2.00" waitingCount="1" stopTime="0.00" timeLoss="12.51" rerouteNo="1" devices="tripinfo_h317c2:1 routing_h317c2:1" vType="default_016" speedFactor="1.17" vaporized=""/>
    <tripinfo id="carIn80064:1" depart="57603.00" departLane="128361109#1_1" departPos="5.10" departSpeed="0.00" departDelay="0.40" arrival="57760.00" arrivalLane="-315358254#1_1" arrivalPos="137.16" arrivalSpeed="11.94" duration="157.00" routeLength="1587.97" waitingTime="34.00" waitingCount="1" stopTime="0.00" timeLoss="59.20" rerouteNo="1" devices="tripinfo_carIn80064:1 routing_carIn80064:1" vType="default_016" speedFactor="0.91" vaporized=""/>
    <tripinfo id="h3154c1:1" depart="57658.00" departLane="24634507_1" departPos="5.10" departSpeed="0.00" departDelay="0.00" arrival="57766.00" arrivalLane="-266565295#5_1" arrivalPos="172.76" arrivalSpeed="13.67" duration="108.00" routeLength="1206.22" waitingTime="4.00" waitingCount="1" stopTime="0.00" timeLoss="20.64" rerouteNo="1" devices="tripinfo_h3154c1:1 routing_h3154c1:1" vType="default_016" speedFactor="1.02" vaporized=""/>
    <tripinfo id="h5979c1:5" depart="57669.00" departLane="399835085#1_1" departPos="5.10" departSpeed="0.00" departDelay="0.00" arrival="57768.00" arrivalLane="-315358254#1_1" arrivalPos="137.16" arrivalSpeed="12.57" duration="99.00" routeLength="659.33" waitingTime="6.00" waitingCount="1" stopTime="0.00" timeLoss="20.43" rerouteNo="1" devices="tripinfo_h5979c1:5 routing_h5979c1:5" vType="default_016" speedFactor="0.93" vaporized=""/>
    <tripinfo id="carIn27009:1" depart="57673.00" departLane="-447569998#1_1" departPos="5.10" departSpeed="0.00" departDelay="0.50" arrival="57771.00" arrivalLane="-26677539_1" arrivalPos="152.75" arrivalSpeed="7.42" duration="98.00" routeLength="699.63" waitingTime="0.00" waitingCount="0" stopTime="0.00" timeLoss="11.68" rerouteNo="1" devices="tripinfo_carIn27009:1 routing_carIn27009:1" vType="default_015" speedFactor="0.97" vaporized=""/>
    <tripinfo id="h3326c1:2" depart="57656.00" departLane="22716069#0_1" departPos="5.10" departSpeed="0.00" departDelay="0.00" arrival="57772.00" arrivalLane="24634517#13_1" arrivalPos="111.62" arrivalSpeed="12.17" duration="116.00" routeLength="1312.81" waitingTime="0.00" waitingCount="0" stopTime="0.00" timeLoss="14.48" rerouteNo="1" devices="tripinfo_h3326c1:2 routing_h3326c1:2" vType="default_016" speedFactor="0.97" vaporized=""/>
    <tripinfo id="h330c1:1" depart="57736.00" departLane="-32978638#0_1" departPos="5.10" departSpeed="0.00" departDelay="0.20" arrival="57776.00" arrivalLane="-266565295#5_1" arrivalPos="172.76" arrivalSpeed="13.14" duration="40.00" routeLength="370.53" waitingTime="1.00" waitingCount="1" stopTime="0.00" timeLoss="12.02" rerouteNo="1" devices="tripinfo_h330c1:1 routing_h330c1:1" vType="default_016" speedFactor="0.99" vaporized=""/>
    <tripinfo id="carIn107282:1" depart="57749.00" departLane="-447569998#1_1" departPos="5.10" departSpeed="0.00" departDelay="0.00" arrival="57803.00" arrivalLane="315358242#0_1" arrivalPos="165.37" arrivalSpeed="12.80" duration="54.00" routeLength="448.50" waitingTime="2.00" waitingCount="1" stopTime="0.00" timeLoss="12.06" rerouteNo="1" devices="tripinfo_carIn107282:1 routing_carIn107282:1" vType="default_016" speedFactor="1.00" vaporized=""/>
    <tripinfo id="h3688c1:1" depart="57625.00" departLane="201201950#1_1" departPos="5.10" departSpeed="0.00" departDelay="0.00" arrival="57805.00" arrivalLane="32978638#0_1" arrivalPos="49.29" arrivalSpeed="14.87" duration="180.00" routeLength="1089.75" waitingTime="95.00" waitingCount="1" stopTime="0.00" timeLoss="110.13" rerouteNo="1" devices="tripinfo_h3688c1:1 routing_h3688c1:1" vType="default_016" speedFactor="1.15" vaporized=""/>
    <tripinfo id="h7181c1:1" depart="57660.00" departLane="315358254#0_1" departPos="5.10" departSpeed="0.00" departDelay="0.10" arrival="57821.00" arrivalLane="306240162#0_0" arrivalPos="220.43" arrivalSpeed="14.19" duration="161.00" routeLength="932.35" waitingTime="85.00" waitingCount="1" stopTime="0.00" timeLoss="105.48" rerouteNo="1" devices="tripinfo_h7181c1:1 routing_h7181c1:1" vType="default_016" speedFactor="0.93" vaporized=""/>
    <tripinfo id="50R_frequency3.17" depart="57674.00" departLane="-18809673#6_1" departPos="12.10" departSpeed="0.00" departDelay="0.70" arrival="57836.00" arrivalLane="201956811#0_1" arrivalPos="40.40" arrivalSpeed="12.64" duration="162.00" routeLength="1954.47" waitingTime="0.00" waitingCount="0" stopTime="0.00" timeLoss="16.91" rerouteNo="1" devices="tripinfo_50R_frequency3.17 routing_50R_frequency3.17" vType="bus" speedFactor="1.00" vaporized=""/>
    <tripinfo id="randUni15030:1" depart="57735.00" departLane="386687232#0_1" departPos="5.10" departSpeed="0.00" departDelay="0.10" arrival="57838.00" arrivalLane="26677539_1" arrivalPos="151.98" arrivalSpeed="7.38" duration="103.00" routeLength="919.89" waitingTime="1.00" waitingCount="1" stopTime="0.00" timeLoss="16.17" rerouteNo="1" devices="tripinfo_randUni15030:1 routing_randUni15030:1" vType="random_016" speedFactor="0.96" vaporized=""/>
    <tripinfo id="carIn75660:1" depart="57679.00" departLane="128361109#1_1" departPos="5.10" departSpeed="0.00" departDelay="3.40" arrival="57839.00" arrivalLane="386687235_1" arrivalPos="80.84" arrivalSpeed="15.30" duration="160.00" routeLength="2088.57" waitingTime="4.00" waitingCount="2" stopTime="0.00" timeLoss="30.13" rerouteNo="1" devices="tripinfo_carIn75660:1 routing_carIn75660:1" vType="default_016" speedFactor="1.16" vaporized=""/>
    <tripinfo id="carIn86816:1" depart="57617.00" departLane="128361102#0_1" departPos="5.10" departSpeed="0.00" departDelay="0.80" arrival="57840.00" arrivalLane="201956811#0_1" arrivalPos="40.40" arrivalSpeed="13.54" duration="223.00" routeLength="2067.33" waitingTime="45.00" waitingCount="2" stopTime="0.00" timeLoss="78.51" rerouteNo="1" devices="tripinfo_carIn86816:1 routing_carIn86816:1" vType="default_016" speedFactor="1.04" vaporized=""/>
    <tripinfo id="carIn102915:1" depart="57643.00" departLane="128361102#0_1" departPos="5.10" departSpeed="0.00" departDelay="0.40" arrival="57842.00" arrivalLane="201956811#0_1" arrivalPos="40.40" arrivalSpeed="13.29" duration="199.00" routeLength="2067.33" waitingTime="14.00" waitingCount="2" stopTime="0.00" timeLoss="50.88" rerouteNo="1" devices="tripinfo_carIn102915:1 routing_carIn102915:1" vType="default_016" speedFactor="1.02" vaporized=""/>
    <tripinfo id="carIn12775:1" depart="57676.00" departLane="10425609#0_1" departPos="5.10" departSpeed="0.00" departDelay="0.60" arrival="57843.00" arrivalLane="18809673#0_1" arrivalPos="473.56" arrivalSpeed="15.39" duration="167.00" routeLength="1959.45" waitingTime="23.00" waitingCount="2" stopTime="0.00" timeLoss="42.64" rerouteNo="1" devices="tripinfo_carIn12775:1 routing_carIn12775:1" vType="default_016" speedFactor="1.17" vaporized=""/>
    <tripinfo id="h5170c2:1" depart="57631.00" departLane="201201953#4_1" departPos="5.10" departSpeed="0.00" departDelay="0.00" arrival="57849.00" arrivalLane="-266565295#5_1" arrivalPos="172.76" arrivalSpeed="15.04" duration="218.00" routeLength="3097.92" waitingTime="0.00" waitingCount="0" stopTime="0.00" timeLoss="23.07" rerouteNo="1" devices="tripinfo_h5170c2:1 routing_h5170c2:1" vType="default_016" speedFactor="1.18" vaporized=""/>
    <tripinfo id="randUni33724:1" depart="57646.00" departLane="128361102#0_1" departPos="5.10" departSpeed="0.00" departDelay="1.20" arrival="57851.00" arrivalLane="201956811#0_1" arrivalPos="40.40" arrivalSpeed="11.81" duration="205.00" routeLength="2067.33" waitingTime="3.00" waitingCount="2" stopTime="0.00" timeLoss="38.50" rerouteNo="1" devices="tripinfo_randUni33724:1 routing_randUni33724:1" vType="random_016" speedFactor="0.91" vaporized=""/>
    <tripinfo id="h16072c2:3" depart="57663.00" departLane="315358254#0_1" departPos="5.10" departSpeed="0.00" departDelay="2.50" arrival="57852.00" arrivalLane="386687235_1" arrivalPos="80.84" arrivalSpeed="11.53" duration="189.00" routeLength="1611.92" waitingTime="43.00" waitingCount="1" stopTime="0.00" timeLoss="61.44" rerouteNo="1" devices="tripinfo_h16072c2:3 routing_h16072c2:3" vType="default_016" speedFactor="0.92" vaporized=""/>
    <tripinfo id="h11737c1:1" depart="57665.00" departLane="272042143_1" departPos="5.10" departSpeed="0.00" departDelay="1.50" arrival="57853.00" arrivalLane="-315358254#1_1" arrivalPos="137.16" arrivalSpeed="13.26" duration="188.00" routeLength="1596.88" waitingTime="51.00" waitingCount="1" stopTime="0.00" timeLoss="75.16" rerouteNo="1" devices="tripinfo_h11737c1:1 routing_h11737c1:1" vType="default_016" speedFactor="1.03" vaporized=""/>
    <tripinfo id="h9953c2:3" depart="57682.00" departLane="-54169231#2_1" departPos="5.10" departSpeed="0.00" departDelay="0.00" arrival="57853.00" arrivalLane="386687235_2" arrivalPos="80.84" arrivalSpeed="12.45" duration="171.00" routeLength="1535.60" waitingTime="14.00" waitingCount="1" stopTime="0.00" timeLoss="37.74" rerouteNo="1" devices="tripinfo_h9953c2:3 routing_h9953c2:3" vType="default_016" speedFactor="0.95" vaporized=""/>
    <tripinfo id="carIn126288:1" depart="57674.00" departLane="272042143_1" departPos="5.10" departSpeed="0.00" departDelay="0.00" arrival="57855.00" arrivalLane="-315358254#1_1" arrivalPos="137.16" arrivalSpeed="14.83" duration="181.00" routeLength="1596.88" waitingTime="48.00" waitingCount="1" stopTime="0.00" timeLoss="72.86" rerouteNo="1" devices="tripinfo_carIn126288:1 routing_carIn126288:1" vType="default_016" speedFactor="1.08" vaporized=""/>
    <tripinfo id="h11868c1:5" depart="57700.00" departLane="315358254#0_1" departPos="5.10" departSpeed="0.00" departDelay="0.10" arrival="57856.00" arrivalLane="386687235_1" arrivalPos="80.84" arrivalSpeed="11.99" duration="156.00" routeLength="1611.92" waitingTime="10.00" waitingCount="2" stopTime="0.00" timeLoss="31.11" rerouteNo="1" devices="tripinfo_h11868c1:5 routing_h11868c1:5" vType="default_016" speedFactor="0.95" vaporized=""/>
    <tripinfo id="randUni31145:1" depart="57814.00" departLane="10425609#0_1" departPos="5.10" departSpeed="0.00" departDelay="0.30" arrival="57858.00" arrivalLane="201956810_1" arrivalPos="71.65" arrivalSpeed="12.54" duration="44.00" routeLength="255.78" waitingTime="10.00" waitingCount="2" stopTime="0.00" timeLoss="23.34" rerouteNo="1" devices="tripinfo_randUni31145:1 routing_randUni31145:1" vType="random_016" speedFactor="0.96" vaporized=""/>
    <tripinfo id="carIn28951:1" depart="57606.00" departLane="10425609#0_1" departPos="5.10" departSpeed="0.00" departDelay="0.20" arrival="57866.00" arrivalLane="-128361102#1_1" arrivalPos="274.68" arrivalSpeed="13.60" duration="260.00" routeLength="2113.04" waitingTime="77.00" waitingCount="3" stopTime="0.00" timeLoss="107.16" rerouteNo="1" devices="tripinfo_carIn28951:1 routing_carIn28951:1" vType="default_016" speedFactor="1.01" vaporized=""/>
    <tripinfo id="randUni2407:1" depart="57820.00" departLane="10425609#0_1" departPos="5.10" departSpeed="0.00" departDelay="0.80" arrival="57867.00" arrivalLane="201956810_1" arrivalPos="71.65" arrivalSpeed="14.73" duration="47.00" routeLength="255.78" waitingTime="8.00" waitingCount="2" stopTime="0.00" timeLoss="28.43" rerouteNo="1" devices="tripinfo_randUni2407:1 routing_randUni2407:1" vType="random_016" speedFactor="1.07" vaporized=""/>
    <tripinfo id="carIn12152:1" depart="57647.00" departLane="24599188#0.94_1" departPos="5.10" departSpeed="0.00" departDelay="0.50" arrival="57870.00" arrivalLane="-315358254#1_1" arrivalPos="137.16" arrivalSpeed="13.83" duration="223.00" routeLength="2034.31" waitingTime="50.00" waitingCount="1" stopTime="0.00" timeLoss="72.00" rerouteNo="1" devices="tripinfo_carIn12152:1 routing_carIn12152:1" vType="default_016" speedFactor="1.05" vaporized=""/>
    <tripinfo id="carIn12858:1" depart="57661.00" departLane="128361109#1_1" departPos="5.10" departSpeed="0.00" departDelay="0.90" arrival="57870.00" arrivalLane="399835085#1_1" arrivalPos="212.23" arrivalSpeed="9.32" duration="209.00" routeLength="1738.12" waitingTime="74.00" waitingCount="2" stopTime="0.00" timeLoss="106.40" rerouteNo="1" devices="tripinfo_carIn12858:1 routing_carIn12858:1" vType="default_016" speedFactor="1.12" vaporized=""/>
    <tripinfo id="h20540c1:1" depart="57634.00" departLane="10425609#0_1" departPos="5.10" departSpeed="0.00" departDelay="0.50" arrival="57877.00" arrivalLane="-128361102#1_1" arrivalPos="274.68" arrivalSpeed="9.78" duration="243.00" routeLength="2095.01" waitingTime="13.00" waitingCount="3" stopTime="0.00" timeLoss="46.69" rerouteNo="1" devices="tripinfo_h20540c1:1 routing_h20540c1:1" vType="default_016" speedFactor="0.79" vaporized=""/>
    <tripinfo id="carIn22761:1" depart="57616.00" departLane="-306240162#1_0" departPos="5.10" departSpeed="0.00" departDelay="2.10" arrival="57878.00" arrivalLane="399835085#1_1" arrivalPos="212.23" arrivalSpeed="7.43" duration="262.00" routeLength="1093.26" waitingTime="152.00" waitingCount="3" stopTime="0.00" timeLoss="182.34" rerouteNo="1" devices="tripinfo_carIn22761:1 routing_carIn22761:1" vType="default_016" speedFactor="0.98" vaporized=""/>
    <tripinfo id="h13311c1:3" depart="57635.00" departLane="399835085#1_1" departPos="5.10" departSpeed="0.00" departDelay="0.00" arrival="57890.00" arrivalLane="32978638#0_1" arrivalPos="49.29" arrivalSpeed="14.38" duration="255.00" routeLength="2580.65" waitingTime="32.00" waitingCount="1" stopTime="0.00" timeLoss="55.50" rerouteNo="1" devices="tripinfo_h13311c1:3 routing_h13311c1:3" vType="default_016" speedFactor="1.07" vaporized=""/>
    <tripinfo id="carIn13443:1" depart="57729.00" departLane="272042143_1" departPos="5.10" departSpeed="0.00" departDelay="0.80" arrival="57893.00" arrivalLane="399835085#1_1" arrivalPos="212.23" arrivalSpeed="7.95" duration="164.00" routeLength="1757.45" waitingTime="0.00" waitingCount="0" stopTime="0.00" timeLoss="17.26" rerouteNo="1" devices="tripinfo_carIn13443:1 routing_carIn13443:1" vType="default_016" speedFactor="0.97" vaporized=""/>
    <tripinfo id="h825c2:3" depart="57690.00" departLane="315358254#0_1" departPos="5.10" departSpeed="0.00" departDelay="0.50" arrival="57897.00" arrivalLane="32978638#0_1" arrivalPos="49.29" arrivalSpeed="13.18" duration="207.00" routeLength="2207.01" waitingTime="25.00" waitingCount="1" stopTime="0.00" timeLoss="46.39" rerouteNo="1" devices="tripinfo_h825c2:3 routing_h825c2:3" vType="default_016" speedFactor="1.01" vaporized=""/>
    <tripinfo id="carIn53503:1" depart="57763.00" departLane="-306240162#1_0" departPos="5.10" departSpeed="0.00" departDelay="2.40" arrival="57897.00" arrivalLane="24634510#6_1" arrivalPos="76.64" arrivalSpeed="13.10" duration="134.00" routeLength="1440.47" waitingTime="4.00" waitingCount="2" stopTime="0.00" timeLoss="29.73" rerouteNo="1" devices="tripinfo_carIn53503:1 routing_carIn53503:1" vType="default_016" speedFactor="0.96" vaporized=""/>
    <tripinfo id="h4388c1:3" depart="57693.00" departLane="315358254#0_1" departPos="5.10" departSpeed="0.00" departDelay="1.80" arrival="57899.00" arrivalLane="32978638#0_1" arrivalPos="49.29" arrivalSpeed="14.05" duration="206.00" routeLength="2207.01" waitingTime="24.00" waitingCount="1" stopTime="0.00" timeLoss="51.06" rerouteNo="1" devices="tripinfo_h4388c1:3 routing_h4388c1:3" vType="default_016" speedFactor="1.04" vaporized=""/>
    <tripinfo id="randUni23028:1" depart="57884.00" departLane="124812856#0_1" departPos="5.10" departSpeed="0.00" departDelay="0.10" arrival="57899.00" arrivalLane="201956810_1" arrivalPos="71.65" arrivalSpeed="12.71" duration="15.00" routeLength="134.91" waitingTime="0.00" waitingCount="0" stopTime="0.00" timeLoss="3.77" rerouteNo="1" devices="tripinfo_randUni23028:1 routing_randUni23028:1" vType="random_016" speedFactor="0.96" vaporized=""/>
    <tripinfo id="h17600c1:1" depart="57662.00" departLane="272042143_1" departPos="5.10" departSpeed="0.00" departDelay="0.30" arrival="57906.00" arrivalLane="201238729#3_1" arrivalPos="431.02" arrivalSpeed="11.61" duration="244.00" routeLength="2100.26" waitingTime="48.00" waitingCount="1" stopTime="0.00" timeLoss="67.39" rerouteNo="1" devices="tripinfo_h17600c1:1 routing_h17600c1:1" vType="default_016" speedFactor="0.86" vaporized=""/>
    <tripinfo id="carIn81681:1" depart="57726.00" departLane="272042143_1" departPos="5.10" departSpeed="0.00" departDelay="0.30" arrival="57910.00" arrivalLane="306240162#0_0" arrivalPos="220.43" arrivalSpeed="14.71" duration="184.00" routeLength="2246.89" waitingTime="2.00" waitingCount="1" stopTime="0.00" timeLoss="27.37" rerouteNo="1" devices="tripinfo_carIn81681:1 routing_carIn81681:1" vType="default_016" speedFactor="0.94" vaporized=""/>
    <tripinfo id="carIn80913:1" depart="57732.00" departLane="272042143_1" departPos="5.10" departSpeed="0.00" departDelay="0.40" arrival="57912.00" arrivalLane="306240162#0_0" arrivalPos="220.43" arrivalSpeed="15.99" duration="180.00" routeLength="2246.89" waitingTime="0.00" waitingCount="0" stopTime="0.00" timeLoss="33.18" rerouteNo="1" devices="tripinfo_carIn80913:1 routing_carIn80913:1" vType="default_016" speedFactor="1.01" vaporized=""/>
    <tripinfo id="carIn106665:1" depart="57659.00" departLane="266565295#5_1" departPos="5.10" departSpeed="0.00" departDelay="1.80" arrival="57919.00" arrivalLane="201238729#3_1" arrivalPos="431.02" arrivalSpeed="14.10" duration="260.00" routeLength="2840.38" waitingTime="42.00" waitingCount="2" stopTime="0.00" timeLoss="66.72" rerouteNo="1" devices="tripinfo_carIn106665:1 routing_carIn106665:1" vType="default_016" speedFactor="1.07" vaporized=""/>
    <tripinfo id="carIn132499:1" depart="57740.00" departLane="272042143_1" departPos="5.10" departSpeed="0.00" departDelay="0.70" arrival="57922.00" arrivalLane="201238729#3_1" arrivalPos="431.02" arrivalSpeed="14.34" duration="182.00" routeLength="2100.26" waitingTime="18.00" waitingCount="1" stopTime="0.00" timeLoss="35.92" rerouteNo="1" devices="tripinfo_carIn132499:1 routing_carIn132499:1" vType="default_016" speedFactor="1.04" vaporized=""/>
    <tripinfo id="h6846c2:1" depart="57741.00" departLane="26677213#0_1" departPos="5.10" departSpeed="0.00" departDelay="0.00" arrival="57938.00" arrivalLane="386687235_1" arrivalPos="80.84" arrivalSpeed="11.99" duration="197.00" routeLength="1412.24" waitingTime="23.00" waitingCount="1" stopTime="0.00" timeLoss="50.28" rerouteNo="1" devices="tripinfo_h6846c2:1 routing_h6846c2:1" vType="default_016" speedFactor="0.94" vaporized=""/>
    <tripinfo id="carIn14532:1" depart="57743.00" departLane="272042143_1" departPos="5.10" departSpeed="0.00" departDelay="1.90" arrival="57939.00" arrivalLane="399835085#1_1" arrivalPos="212.23" arrivalSpeed="6.74" duration="196.00" routeLength="1757.45" waitingTime="5.00" waitingCount="2" stopTime="0.00" timeLoss="28.25" rerouteNo="1" devices="tripinfo_carIn14532:1 routing_carIn14532:1" vType="default_016" speedFactor="0.84" vaporized=""/>
    <tripinfo id="randUni16001:1" depart="57912.00" departLane="10425609#0_1" departPos="5.10" departSpeed="0.00" departDelay="0.30" arrival="57939.00" arrivalLane="201956810_1" arrivalPos="71.65" arrivalSpeed="12.89" duration="27.00" routeLength="255.78" waitingTime="0.00" waitingCount="0" stopTime="0.00" timeLoss="5.35" rerouteNo="1" devices="tripinfo_randUni16001:1 routing_randUni16001:1" vType="random_016" speedFactor="0.93" vaporized=""/>
    <tripinfo id="h15045c2:3" depart="57738.00" departLane="315358254#0_1" departPos="5.10" departSpeed="0.00" departDelay="0.70" arrival="57943.00" arrivalLane="32978638#0_1" arrivalPos="49.29" arrivalSpeed="13.06" duration="205.00" routeLength="2207.01" waitingTime="16.00" waitingCount="3" stopTime="0.00" timeLoss="46.10" rerouteNo="1" devices="tripinfo_h15045c2:3 routing_h15045c2:3" vType="default_016" speedFactor="1.01" vaporized=""/>
    <tripinfo id="carIn50326:1" depart="57651.00" departLane="128361102#0_1" departPos="5.10" departSpeed="0.00" departDelay="0.30" arrival="57947.00" arrivalLane="18809673#0_1" arrivalPos="473.56" arrivalSpeed="13.50" duration="296.00" routeLength="1591.07" waitingTime="139.00" waitingCount="2" stopTime="0.00" timeLoss="167.86" rerouteNo="1" devices="tripinfo_carIn50326:1 routing_carIn50326:1" vType="default_016" speedFactor="1.02" vaporized=""/>
    <tripinfo id="carIn129809:1" depart="57729.00" departLane="-447569998#1_1" departPos="5.10" departSpeed="0.00" departDelay="1.00" arrival="57953.00" arrivalLane="-315358244_2" arrivalPos="33.95" arrivalSpeed="13.15" duration="224.00" routeLength="706.49" waitingTime="144.00" waitingCount="2" stopTime="0.00" timeLoss="164.45" rerouteNo="1" devices="tripinfo_carIn129809:1 routing_carIn129809:1" vType="default_015" speedFactor="1.02" vaporized=""/>
    <tripinfo id="carIn29676:1" depart="57789.00" departLane="-160314345#5_1" departPos="5.10" departSpeed="0.00" departDelay="0.00" arrival="57953.00" arrivalLane="-24634505_1" arrivalPos="48.18" arrivalSpeed="11.41" duration="164.00" routeLength="1162.34" waitingTime="45.00" waitingCount="1" stopTime="0.00" timeLoss="62.68" rerouteNo="1" devices="tripinfo_carIn29676:1 routing_carIn29676:1" vType="default_016" speedFactor="0.89" vaporized=""/>
    <tripinfo id="carIn121703:1" depart="57647.00" departLane="386687232#0_1" departPos="5.10" departSpeed="0.00" departDelay="0.30" arrival="57954.00" arrivalLane="-315358244_1" arrivalPos="33.95" arrivalSpeed="12.71" duration="307.00" routeLength="1157.39" waitingTime="196.00" waitingCount="3" stopTime="0.00" timeLoss="220.35" rerouteNo="1" devices="tripinfo_carIn121703:1 routing_carIn121703:1" vType="default_016" speedFactor="0.97" vaporized=""/>
    <tripinfo id="carIn73855:1" depart="57743.00" departLane="386687232#0_1" departPos="5.10" departSpeed="0.00" departDelay="0.50" arrival="57955.00" arrivalLane="-315358244_2" arrivalPos="33.95" arrivalSpeed="12.53" duration="212.00" routeLength="1157.39" waitingTime="102.00" waitingCount="2" stopTime="0.00" timeLoss="120.06" rerouteNo="1" devices="tripinfo_carIn73855:1 routing_carIn73855:1" vType="default_016" speedFactor="0.91" vaporized=""/>
    <tripinfo id="h645c1:1" depart="57622.00" departLane="266565295#5_1" departPos="5.10" departSpeed="0.00" departDelay="0.40" arrival="57956.00" arrivalLane="-315358244_1" arrivalPos="33.95" arrivalSpeed="12.03" duration="334.00" routeLength="1910.83" waitingTime="165.00" waitingCount="2" stopTime="0.00" timeLoss="188.73" rerouteNo="1" devices="tripinfo_h645c1:1 routing_h645c1:1" vType="default_016" speedFactor="0.95" vaporized=""/>
    <tripinfo id="carIn101266:1" depart="57737.00" departLane="272042143_1" departPos="5.10" departSpeed="0.00" departDelay="0.50" arrival="57956.00" arrivalLane="306240162#0_0" arrivalPos="220.43" arrivalSpeed="17.51" duration="219.00" routeLength="2246.89" waitingTime="41.00" waitingCount="1" stopTime="0.00" timeLoss="80.27" rerouteNo="1" devices="tripinfo_carIn101266:1 routing_carIn101266:1" vType="default_016" speedFactor="1.06" vaporized=""/>
    <tripinfo id="carIn9695:1" depart="57822.00" departLane="272042143_1" departPos="5.10" departSpeed="0.00" departDelay="0.80" arrival="57956.00" arrivalLane="-315358254#1_1" arrivalPos="137.16" arrivalSpeed="13.63" duration="134.00" routeLength="1596.88" waitingTime="6.00" waitingCount="1" stopTime="0.00" timeLoss="24.26" rerouteNo="1" devices="tripinfo_carIn9695:1 routing_carIn9695:1" vType="default_016" speedFactor="1.06" vaporized=""/>
    <tripinfo id="carIn99509:1" depart="57720.00" departLane="-32978638#0_1" departPos="5.10" departSpeed="0.00" departDelay="0.20" arrival="57957.00" arrivalLane="-315358244_2" arrivalPos="33.95" arrivalSpeed="15.48" duration="237.00" routeLength="1785.24" waitingTime="101.00" waitingCount="2" stopTime="0.00" timeLoss="132.42" rerouteNo="1" devices="tripinfo_carIn99509:1 routing_carIn99509:1" vType="default_015" speedFactor="1.24" vaporized=""/>
    <tripinfo id="h7097c1:1" depart="57670.00" departLane="315358242#0_1" departPos="5.10" departSpeed="0.00" departDelay="0.60" arrival="57959.00" arrivalLane="306240162#0_0" arrivalPos="220.43" arrivalSpeed="16.60" duration="289.00" routeLength="2586.94" waitingTime="95.00" waitingCount="1" stopTime="0.00" timeLoss="123.32" rerouteNo="1" devices="tripinfo_h7097c1:1 routing_h7097c1:1" vType="default_016" speedFactor="1.05" vaporized=""/>
    <tripinfo id="carIn8642:1" depart="57774.00" departLane="-447569998#1_1" departPos="5.10" departSpeed="0.00" departDelay="0.90" arrival="57959.00" arrivalLane="-315358244_1" arrivalPos="33.95" arrivalSpeed="10.63" duration="185.00" routeLength="706.49" waitingTime="99.00" waitingCount="2" stopTime="0.00" timeLoss="113.74" rerouteNo="1" devices="tripinfo_carIn8642:1 routing_carIn8642:1" vType="default_016" speedFactor="0.85" vaporized=""/>
    <tripinfo id="h6541c1:3" depart="57727.00" departLane="201950247#3_1" departPos="5.10" departSpeed="0.00" departDelay="0.00" arrival="57960.00" arrivalLane="32978638#0_1" arrivalPos="49.29" arrivalSpeed="13.46" duration="233.00" routeLength="1176.17" waitingTime="107.00" waitingCount="3" stopTime="0.00" timeLoss="135.72" rerouteNo="1" devices="tripinfo_h6541c1:3 routing_h6541c1:3" vType="default_016" speedFactor="1.05" vaporized=""/>
    <tripinfo id="h3536c1:1" depart="57767.00" departLane="-24634413#2_1" departPos="5.10" departSpeed="0.00" departDelay="0.00" arrival="57964.00" arrivalLane="32978638#0_1" arrivalPos="49.29" arrivalSpeed="13.04" duration="197.00" routeLength="953.61" waitingTime="81.00" waitingCount="1" stopTime="0.00" timeLoss="102.24" rerouteNo="1" devices="tripinfo_h3536c1:1 routing_h3536c1:1" vType="default_016" speedFactor="0.96" vaporized=""/>