<?xml version="1.0" encoding="UTF-8"?>

<!-- generated on 2023-08-30 21:43:29 by Eclipse SUMO libsumo Version 1.18.0
<configuration xmlns:xsi="http://www.w3.org/2001/XMLSchema-instance" xsi:noNamespaceSchemaLocation="http://sumo.dlr.de/xsd/libsumoConfiguration.xsd">

    <input>
        <net-file value="/home/stefan/RESCO/./environments/ingolstadt21/ingolstadt21.net.xml"/>
        <route-files value="/home/stefan/RESCO/./environments/ingolstadt21/ingolstadt21.rou.xml"/>
    </input>

    <output>
        <tripinfo-output value="/home/stefan/results/RAINBOW-tr0-ingolstadt21-21-drq_norm-wait_norm/tripinfo_66.xml"/>
        <tripinfo-output.write-unfinished value="true"/>
    </output>

    <time>
        <begin value="57600"/>
        <end value="61200"/>
    </time>

    <processing>
        <time-to-teleport value="-1"/>
    </processing>

    <report>
        <no-warnings value="True"/>
        <no-step-log value="True"/>
    </report>

    <random_number>
        <random value="true"/>
    </random_number>

</configuration>
-->

<tripinfos xmlns:xsi="http://www.w3.org/2001/XMLSchema-instance" xsi:noNamespaceSchemaLocation="http://sumo.dlr.de/xsd/tripinfo_file.xsd">
    <tripinfo id="carIn53971:1" depart="57640.00" departLane="272042143_1" departPos="5.10" departSpeed="0.00" departDelay="0.80" arrival="57690.00" arrivalLane="24634414#1_1" arrivalPos="162.19" arrivalSpeed="8.52" duration="50.00" routeLength="493.04" waitingTime="0.00" waitingCount="0" stopTime="0.00" timeLoss="9.73" rerouteNo="1" devices="tripinfo_carIn53971:1 routing_carIn53971:1" vType="default_016" speedFactor="1.14" vaporized=""/>
    <tripinfo id="h15454c2:3" depart="57612.00" departLane="24608844_1" departPos="5.10" departSpeed="0.00" departDelay="0.50" arrival="57709.00" arrivalLane="32978638#0_1" arrivalPos="49.29" arrivalSpeed="11.31" duration="97.00" routeLength="354.79" waitingTime="46.00" waitingCount="1" stopTime="0.00" timeLoss="56.05" rerouteNo="1" devices="tripinfo_h15454c2:3 routing_h15454c2:3" vType="default_016" speedFactor="0.84" vaporized=""/>
    <tripinfo id="h7800c1:5" depart="57696.00" departLane="-447569998#1_1" departPos="5.10" departSpeed="0.00" departDelay="0.00" arrival="57719.00" arrivalLane="-447569998#1_1" arrivalPos="180.76" arrivalSpeed="8.58" duration="23.00" routeLength="175.66" waitingTime="0.00" waitingCount="0" stopTime="0.00" timeLoss="3.37" rerouteNo="1" devices="tripinfo_h7800c1:5 routing_h7800c1:5" vType="default_016" speedFactor="1.09" vaporized=""/>
    <tripinfo id="h3688c1:1" depart="57625.00" departLane="201201950#1_1" departPos="5.10" departSpeed="0.00" departDelay="0.00" arrival="57727.00" arrivalLane="32978638#0_1" arrivalPos="49.29" arrivalSpeed="12.16" duration="102.00" routeLength="1089.75" waitingTime="0.00" waitingCount="0" stopTime="0.00" timeLoss="12.46" rerouteNo="1" devices="tripinfo_h3688c1:1 routing_h3688c1:1" vType="default_016" speedFactor="0.89" vaporized=""/>
    <tripinfo id="h317c2:1" depart="57707.00" departLane="-32978638#0_1" departPos="5.10" departSpeed="0.00" departDelay="0.10" arrival="57738.00" arrivalLane="-266565295#5_1" arrivalPos="172.76" arrivalSpeed="14.67" duration="31.00" routeLength="370.53" waitingTime="0.00" waitingCount="0" stopTime="0.00" timeLoss="6.33" rerouteNo="1" devices="tripinfo_h317c2:1 routing_h317c2:1" vType="default_016" speedFactor="1.14" vaporized=""/>
    <tripinfo id="h4538c1:1" depart="57701.00" departLane="-10427692#1_1" departPos="5.10" departSpeed="0.00" departDelay="0.00" arrival="57743.00" arrivalLane="-128361102#1_1" arrivalPos="274.68" arrivalSpeed="12.08" duration="42.00" routeLength="440.74" waitingTime="0.00" waitingCount="0" stopTime="0.00" timeLoss="6.84" rerouteNo="1" devices="tripinfo_h4538c1:1 routing_h4538c1:1" vType="default_016" speedFactor="0.90" vaporized=""/>
    <tripinfo id="carIn27009:1" depart="57673.00" departLane="-447569998#1_1" departPos="5.10" departSpeed="0.00" departDelay="0.50" arrival="57757.00" arrivalLane="-26677539_1" arrivalPos="152.75" arrivalSpeed="8.03" duration="84.00" routeLength="699.63" waitingTime="0.00" waitingCount="0" stopTime="0.00" timeLoss="9.53" rerouteNo="1" devices="tripinfo_carIn27009:1 routing_carIn27009:1" vType="default_015" speedFactor="1.12" vaporized=""/>
    <tripinfo id="h5979c1:5" depart="57669.00" departLane="399835085#1_1" departPos="5.10" departSpeed="0.00" departDelay="0.00" arrival="57763.00" arrivalLane="-315358254#1_1" arrivalPos="137.16" arrivalSpeed="11.12" duration="94.00" routeLength="659.33" waitingTime="0.00" waitingCount="0" stopTime="0.00" timeLoss="12.01" rerouteNo="1" devices="tripinfo_h5979c1:5 routing_h5979c1:5" vType="default_016" speedFactor="0.89" vaporized=""/>
    <tripinfo id="h330c1:1" depart="57736.00" departLane="-32978638#0_1" departPos="5.10" departSpeed="0.00" departDelay="0.20" arrival="57773.00" arrivalLane="-266565295#5_1" arrivalPos="172.76" arrivalSpeed="11.34" duration="37.00" routeLength="370.53" waitingTime="0.00" waitingCount="0" stopTime="0.00" timeLoss="5.56" rerouteNo="1" devices="tripinfo_h330c1:1 routing_h330c1:1" vType="default_016" speedFactor="0.89" vaporized=""/>
    <tripinfo id="h3326c1:2" depart="57656.00" departLane="22716069#0_1" departPos="5.10" departSpeed="0.00" departDelay="0.00" arrival="57780.00" arrivalLane="24634517#13_1" arrivalPos="111.62" arrivalSpeed="12.20" duration="124.00" routeLength="1312.81" waitingTime="0.00" waitingCount="0" stopTime="0.00" timeLoss="16.59" rerouteNo="1" devices="tripinfo_h3326c1:2 routing_h3326c1:2" vType="default_016" speedFactor="0.91" vaporized=""/>
    <tripinfo id="carIn28951:1" depart="57606.00" departLane="10425609#0_1" departPos="5.10" departSpeed="0.00" departDelay="0.20" arrival="57797.00" arrivalLane="-128361102#1_1" arrivalPos="274.68" arrivalSpeed="13.01" duration="191.00" routeLength="2113.04" waitingTime="6.00" waitingCount="2" stopTime="0.00" timeLoss="33.96" rerouteNo="1" devices="tripinfo_carIn28951:1 routing_carIn28951:1" vType="default_016" speedFactor="0.98" vaporized=""/>
    <tripinfo id="carIn107282:1" depart="57749.00" departLane="-447569998#1_1" departPos="5.10" departSpeed="0.00" departDelay="0.00" arrival="57802.00" arrivalLane="315358242#0_1" arrivalPos="165.37" arrivalSpeed="12.82" duration="53.00" routeLength="448.50" waitingTime="2.00" waitingCount="1" stopTime="0.00" timeLoss="10.56" rerouteNo="1" devices="tripinfo_carIn107282:1 routing_carIn107282:1" vType="default_016" speedFactor="0.99" vaporized=""/>
    <tripinfo id="carIn60260:1" depart="57606.00" departLane="315358254#0_1" departPos="5.10" departSpeed="0.00" departDelay="0.90" arrival="57804.00" arrivalLane="399835085#1_1" arrivalPos="212.23" arrivalSpeed="8.03" duration="198.00" routeLength="430.98" waitingTime="141.00" waitingCount="1" stopTime="0.00" timeLoss="150.20" rerouteNo="1" devices="tripinfo_carIn60260:1 routing_carIn60260:1" vType="default_016" speedFactor="0.97" vaporized=""/>
    <tripinfo id="h6541c1:3" depart="57727.00" departLane="201950247#3_1" departPos="5.10" departSpeed="0.00" departDelay="0.00" arrival="57828.00" arrivalLane="32978638#0_1" arrivalPos="49.29" arrivalSpeed="16.58" duration="101.00" routeLength="1176.17" waitingTime="0.00" waitingCount="0" stopTime="0.00" timeLoss="15.98" rerouteNo="1" devices="tripinfo_h6541c1:3 routing_h6541c1:3" vType="default_016" speedFactor="1.20" vaporized=""/>
    <tripinfo id="randUni31145:1" depart="57814.00" departLane="10425609#0_1" departPos="5.10" departSpeed="0.00" departDelay="0.30" arrival="57840.00" arrivalLane="201956810_1" arrivalPos="71.65" arrivalSpeed="12.87" duration="26.00" routeLength="255.78" waitingTime="0.00" waitingCount="0" stopTime="0.00" timeLoss="5.72" rerouteNo="1" devices="tripinfo_randUni31145:1 routing_randUni31145:1" vType="random_016" speedFactor="1.00" vaporized=""/>
    <tripinfo id="h3568c1:3" depart="57656.00" departLane="266565295#5_1" departPos="5.10" departSpeed="0.00" departDelay="0.80" arrival="57841.00" arrivalLane="-24634415_1" arrivalPos="62.03" arrivalSpeed="12.00" duration="185.00" routeLength="807.40" waitingTime="84.00" waitingCount="2" stopTime="0.00" timeLoss="109.67" rerouteNo="1" devices="tripinfo_h3568c1:3 routing_h3568c1:3" vType="default_016" speedFactor="0.87" vaporized=""/>
    <tripinfo id="h7181c1:1" depart="57660.00" departLane="315358254#0_1" departPos="5.10" departSpeed="0.00" departDelay="0.10" arrival="57841.00" arrivalLane="306240162#0_0" arrivalPos="220.43" arrivalSpeed="14.43" duration="181.00" routeLength="932.35" waitingTime="101.00" waitingCount="2" stopTime="0.00" timeLoss="122.83" rerouteNo="1" devices="tripinfo_h7181c1:1 routing_h7181c1:1" vType="default_016" speedFactor="0.88" vaporized=""/>
    <tripinfo id="randUni2407:1" depart="57820.00" departLane="10425609#0_1" departPos="5.10" departSpeed="0.00" departDelay="0.80" arrival="57844.00" arrivalLane="201956810_1" arrivalPos="71.65" arrivalSpeed="15.32" duration="24.00" routeLength="255.78" waitingTime="0.00" waitingCount="0" stopTime="0.00" timeLoss="6.28" rerouteNo="1" devices="tripinfo_randUni2407:1 routing_randUni2407:1" vType="random_016" speedFactor="1.12" vaporized=""/>
    <tripinfo id="carIn129809:1" depart="57729.00" departLane="-447569998#1_1" departPos="5.10" departSpeed="0.00" departDelay="1.00" arrival="57863.00" arrivalLane="-315358244_1" arrivalPos="33.95" arrivalSpeed="14.22" duration="134.00" routeLength="706.49" waitingTime="66.00" waitingCount="1" stopTime="0.00" timeLoss="77.14" rerouteNo="1" devices="tripinfo_carIn129809:1 routing_carIn129809:1" vType="default_015" speedFactor="1.06" vaporized=""/>
    <tripinfo id="carIn121703:1" depart="57647.00" departLane="386687232#0_1" departPos="5.10" departSpeed="0.00" departDelay="0.30" arrival="57864.00" arrivalLane="-315358244_2" arrivalPos="33.95" arrivalSpeed="11.22" duration="217.00" routeLength="1157.39" waitingTime="93.00" waitingCount="3" stopTime="0.00" timeLoss="119.45" rerouteNo="1" devices="tripinfo_carIn121703:1 routing_carIn121703:1" vType="default_016" speedFactor="0.87" vaporized=""/>
    <tripinfo id="carIn8642:1" depart="57774.00" departLane="-447569998#1_1" departPos="5.10" departSpeed="0.00" departDelay="0.90" arrival="57865.00" arrivalLane="-315358244_1" arrivalPos="33.95" arrivalSpeed="13.63" duration="91.00" routeLength="706.49" waitingTime="16.00" waitingCount="2" stopTime="0.00" timeLoss="31.42" rerouteNo="1" devices="tripinfo_carIn8642:1 routing_carIn8642:1" vType="default_016" speedFactor="1.02" vaporized=""/>
    <tripinfo id="h17600c1:1" depart="57662.00" departLane="272042143_1" departPos="5.10" departSpeed="0.00" departDelay="0.30" arrival="57870.00" arrivalLane="201238729#3_1" arrivalPos="431.02" arrivalSpeed="14.70" duration="208.00" routeLength="2100.26" waitingTime="42.00" waitingCount="2" stopTime="0.00" timeLoss="64.93" rerouteNo="1" devices="tripinfo_h17600c1:1 routing_h17600c1:1" vType="default_016" speedFactor="1.06" vaporized=""/>
    <tripinfo id="h3536c1:1" depart="57767.00" departLane="-24634413#2_1" departPos="5.10" departSpeed="0.00" departDelay="0.00" arrival="57874.00" arrivalLane="32978638#0_1" arrivalPos="49.29" arrivalSpeed="13.38" duration="107.00" routeLength="953.61" waitingTime="0.00" waitingCount="0" stopTime="0.00" timeLoss="15.71" rerouteNo="1" devices="tripinfo_h3536c1:1 routing_h3536c1:1" vType="default_016" speedFactor="0.99" vaporized=""/>
    <tripinfo id="h3154c1:1" depart="57658.00" departLane="24634507_1" departPos="5.10" departSpeed="0.00" departDelay="0.00" arrival="57889.00" arrivalLane="-266565295#5_1" arrivalPos="172.76" arrivalSpeed="11.71" duration="231.00" routeLength="1206.22" waitingTime="109.00" waitingCount="2" stopTime="0.00" timeLoss="131.73" rerouteNo="1" devices="tripinfo_h3154c1:1 routing_h3154c1:1" vType="default_016" speedFactor="0.90" vaporized=""/>
    <tripinfo id="h17890c1:3" depart="57792.00" departLane="386687232#0_1" departPos="5.10" departSpeed="0.00" departDelay="0.00" arrival="57898.00" arrivalLane="32978638#0_1" arrivalPos="49.29" arrivalSpeed="16.08" duration="106.00" routeLength="792.72" waitingTime="38.00" waitingCount="2" stopTime="0.00" timeLoss="57.47" rerouteNo="1" devices="tripinfo_h17890c1:3 routing_h17890c1:3" vType="default_016" speedFactor="1.22" vaporized=""/>
    <tripinfo id="randUni23028:1" depart="57884.00" departLane="124812856#0_1" departPos="5.10" departSpeed="0.00" departDelay="0.10" arrival="57902.00" arrivalLane="201956810_1" arrivalPos="71.65" arrivalSpeed="12.21" duration="18.00" routeLength="134.91" waitingTime="0.00" waitingCount="0" stopTime="0.00" timeLoss="6.74" rerouteNo="1" devices="tripinfo_randUni23028:1 routing_randUni23028:1" vType="random_016" speedFactor="0.94" vaporized=""/>
    <tripinfo id="h11737c1:1" depart="57665.00" departLane="272042143_1" departPos="5.10" departSpeed="0.00" departDelay="1.50" arrival="57905.00" arrivalLane="-315358254#1_1" arrivalPos="137.16" arrivalSpeed="12.06" duration="240.00" routeLength="1596.88" waitingTime="88.00" waitingCount="2" stopTime="0.00" timeLoss="107.99" rerouteNo="1" devices="tripinfo_h11737c1:1 routing_h11737c1:1" vType="default_016" speedFactor="0.89" vaporized=""/>
    <tripinfo id="h6846c2:1" depart="57741.00" departLane="26677213#0_1" departPos="5.10" departSpeed="0.00" departDelay="0.00" arrival="57905.00" arrivalLane="386687235_1" arrivalPos="80.84" arrivalSpeed="12.56" duration="164.00" routeLength="1412.24" waitingTime="0.00" waitingCount="0" stopTime="0.00" timeLoss="21.94" rerouteNo="1" devices="tripinfo_h6846c2:1 routing_h6846c2:1" vType="default_016" speedFactor="0.97" vaporized=""/>
    <tripinfo id="carIn53503:1" depart="57764.00" departLane="-306240162#1_0" departPos="5.10" departSpeed="0.00" departDelay="3.40" arrival="57913.00" arrivalLane="24634510#6_1" arrivalPos="76.64" arrivalSpeed="15.42" duration="149.00" routeLength="1440.47" waitingTime="31.00" waitingCount="2" stopTime="0.00" timeLoss="62.50" rerouteNo="1" devices="tripinfo_carIn53503:1 routing_carIn53503:1" vType="default_016" speedFactor="1.14" vaporized=""/>
    <tripinfo id="randUni15030:1" depart="57735.00" departLane="386687232#0_1" departPos="5.10" departSpeed="0.00" departDelay="0.10" arrival="57924.00" arrivalLane="26677539_1" arrivalPos="151.98" arrivalSpeed="7.94" duration="189.00" routeLength="919.89" waitingTime="92.00" waitingCount="1" stopTime="0.00" timeLoss="106.16" rerouteNo="1" devices="tripinfo_randUni15030:1 routing_randUni15030:1" vType="random_016" speedFactor="1.00" vaporized=""/>
    <tripinfo id="carIn22761:1" depart="57616.00" departLane="-306240162#1_0" departPos="5.10" departSpeed="0.00" departDelay="2.10" arrival="57927.00" arrivalLane="399835085#1_1" arrivalPos="212.23" arrivalSpeed="7.71" duration="311.00" routeLength="1093.26" waitingTime="199.00" waitingCount="3" stopTime="0.00" timeLoss="227.44" rerouteNo="1" devices="tripinfo_carIn22761:1 routing_carIn22761:1" vType="default_016" speedFactor="0.93" vaporized=""/>
    <tripinfo id="carIn126288:1" depart="57674.00" departLane="272042143_1" departPos="5.10" departSpeed="0.00" departDelay="0.00" arrival="57938.00" arrivalLane="-315358254#1_1" arrivalPos="137.16" arrivalSpeed="12.34" duration="264.00" routeLength="1596.88" waitingTime="110.00" waitingCount="3" stopTime="0.00" timeLoss="138.06" rerouteNo="1" devices="tripinfo_carIn126288:1 routing_carIn126288:1" vType="default_016" speedFactor="0.92" vaporized=""/>
    <tripinfo id="carIn29676:1" depart="57789.00" departLane="-160314345#5_1" departPos="5.10" departSpeed="0.00" departDelay="0.00" arrival="57939.00" arrivalLane="-24634505_1" arrivalPos="48.18" arrivalSpeed="12.09" duration="150.00" routeLength="1162.34" waitingTime="34.00" waitingCount="1" stopTime="0.00" timeLoss="53.82" rerouteNo="1" devices="tripinfo_carIn29676:1 routing_carIn29676:1" vType="default_016" speedFactor="0.93" vaporized=""/>
    <tripinfo id="randUni16001:1" depart="57912.00" departLane="10425609#0_1" departPos="5.10" departSpeed="0.00" departDelay="0.30" arrival="57939.00" arrivalLane="201956810_1" arrivalPos="71.65" arrivalSpeed="13.21" duration="27.00" routeLength="255.78" waitingTime="0.00" waitingCount="0" stopTime="0.00" timeLoss="6.64" rerouteNo="1" devices="tripinfo_randUni16001:1 routing_randUni16001:1" vType="random_016" speedFactor="0.98" vaporized=""/>
    <tripinfo id="h3847c1:3" depart="57893.00" departLane="24634416_1" departPos="5.10" departSpeed="0.00" departDelay="0.00" arrival="57949.00" arrivalLane="32978638#0_1" arrivalPos="49.29" arrivalSpeed="11.63" duration="56.00" routeLength="547.99" waitingTime="0.00" waitingCount="0" stopTime="0.00" timeLoss="9.30" rerouteNo="1" devices="tripinfo_h3847c1:3 routing_h3847c1:3" vType="default_016" speedFactor="0.90" vaporized=""/>
    <tripinfo id="carIn80064:1" depart="57603.00" departLane="128361109#1_1" departPos="5.10" departSpeed="0.00" departDelay="0.40" arrival="57950.00" arrivalLane="-315358254#1_1" arrivalPos="137.16" arrivalSpeed="14.91" duration="347.00" routeLength="1587.97" waitingTime="232.00" waitingCount="2" stopTime="0.00" timeLoss="267.22" rerouteNo="1" devices="tripinfo_carIn80064:1 routing_carIn80064:1" vType="default_016" speedFactor="1.13" vaporized=""/>
    <tripinfo id="carIn13443:1" depart="57729.00" departLane="272042143_1" departPos="5.10" departSpeed="0.00" departDelay="0.80" arrival="57963.00" arrivalLane="399835085#1_1" arrivalPos="212.23" arrivalSpeed="8.32" duration="234.00" routeLength="1757.45" waitingTime="67.00" waitingCount="2" stopTime="0.00" timeLoss="104.72" rerouteNo="1" devices="tripinfo_carIn13443:1 routing_carIn13443:1" vType="default_016" speedFactor="1.10" vaporized=""/>
    <tripinfo id="carIn14532:1" depart="57743.00" departLane="272042143_1" departPos="5.10" departSpeed="0.00" departDelay="1.90" arrival="57965.00" arrivalLane="399835085#1_1" arrivalPos="212.23" arrivalSpeed="8.78" duration="222.00" routeLength="1757.45" waitingTime="60.00" waitingCount="3" stopTime="0.00" timeLoss="94.89" rerouteNo="1" devices="tripinfo_carIn14532:1 routing_carIn14532:1" vType="default_016" speedFactor="1.12" vaporized=""/>
    <tripinfo id="carIn115169:1" depart="57759.00" departLane="24599188#0.94_1" departPos="5.10" departSpeed="0.00" departDelay="0.50" arrival="57967.00" arrivalLane="-10427692#3_1" arrivalPos="28.64" arrivalSpeed="19.78" duration="208.00" routeLength="2183.23" waitingTime="0.00" waitingCount="0" stopTime="0.00" timeLoss="27.25" rerouteNo="1" devices="tripinfo_carIn115169:1 routing_carIn115169:1" vType="default_016" speedFactor="0.94" vaporized=""/>
    <tripinfo id="randUni11215:1" depart="57953.00" departLane="124812856#0_1" departPos="5.10" departSpeed="0.00" departDelay="0.30" arrival="57968.00" arrivalLane="201956810_1" arrivalPos="71.65" arrivalSpeed="13.05" duration="15.00" routeLength="134.91" waitingTime="0.00" waitingCount="0" stopTime="0.00" timeLoss="4.11" rerouteNo="1" devices="tripinfo_randUni11215:1 routing_randUni11215:1" vType="random_016" speedFactor="0.96" vaporized=""/>
    <tripinfo id="carIn106665:1" depart="57659.00" departLane="266565295#5_1" departPos="5.10" departSpeed="0.00" departDelay="1.80" arrival="57974.00" arrivalLane="201238729#3_1" arrivalPos="431.02" arrivalSpeed="12.63" duration="315.00" routeLength="2840.38" waitingTime="55.00" waitingCount="4" stopTime="0.00" timeLoss="94.66" rerouteNo="1" devices="tripinfo_carIn106665:1 routing_carIn106665:1" vType="default_016" speedFactor="0.94" vaporized=""/>
    <tripinfo id="carIn95912:1" depart="57825.00" departLane="272042143_1" departPos="5.10" departSpeed="0.00" departDelay="1.40" arrival="57974.00" arrivalLane="201238729#3_2" arrivalPos="431.02" arrivalSpeed="16.30" duration="149.00" routeLength="2100.26" waitingTime="0.00" waitingCount="0" stopTime="0.00" timeLoss="21.12" rerouteNo="1" devices="tripinfo_carIn95912:1 routing_carIn95912:1" vType="default_016" speedFactor="1.19" vaporized=""/>
    <tripinfo id="carIn132499:1" depart="57740.00" departLane="272042143_1" departPos="5.10" departSpeed="0.00" departDelay="0.70" arrival="57977.00" arrivalLane="201238729#3_1" arrivalPos="431.02" arrivalSpeed="11.21" duration="237.00" routeLength="2100.26" waitingTime="47.00" waitingCount="1" stopTime="0.00" timeLoss="65.08" rerouteNo="1" devices="tripinfo_carIn132499:1 routing_carIn132499:1" vType="default_016" speedFactor="0.88" vaporized=""/>
    <tripinfo id="carIn113750:1" depart="57961.00" departLane="24599188#0.94_1" departPos="5.10" departSpeed="0.00" departDelay="0.30" arrival="57988.00" arrivalLane="24599188#0.94_1" arrivalPos="186.59" arrivalSpeed="7.35" duration="27.00" routeLength="181.49" waitingTime="0.00" waitingCount="0" stopTime="0.00" timeLoss="8.62" rerouteNo="1" devices="tripinfo_carIn113750:1 routing_carIn113750:1" vType="default_016" speedFactor="1.19" vaporized=""/>
    <tripinfo id="h21699c2:1" depart="57890.00" departLane="-32978638#0_1" departPos="5.10" departSpeed="0.00" departDelay="1.90" arrival="57990.00" arrivalLane="-315358242#1_1" arrivalPos="93.35" arrivalSpeed="10.97" duration="100.00" routeLength="1000.41" waitingTime="0.00" waitingCount="0" stopTime="0.00" timeLoss="8.94" rerouteNo="1" devices="tripinfo_h21699c2:1 routing_h21699c2:1" vType="default_016" speedFactor="0.81" vaporized=""/>
    <tripinfo id="h4574c1:3" depart="57907.00" departLane="-137454133#5_1" departPos="5.10" departSpeed="0.00" departDelay="0.00" arrival="57999.00" arrivalLane="201238729#3_1" arrivalPos="431.02" arrivalSpeed="13.77" duration="92.00" routeLength="979.11" waitingTime="3.00" waitingCount="1" stopTime="0.00" timeLoss="26.22" rerouteNo="1" devices="tripinfo_h4574c1:3 routing_h4574c1:3" vType="default_016" speedFactor="1.03" vaporized=""/>
    <tripinfo id="carIn76675:1" depart="57795.00" departLane="-160314345#5_1" departPos="5.10" departSpeed="0.00" departDelay="0.60" arrival="58017.00" arrivalLane="-315358254#1_1" arrivalPos="137.16" arrivalSpeed="13.18" duration="222.00" routeLength="1744.90" waitingTime="70.00" waitingCount="1" stopTime="0.00" timeLoss="89.03" rerouteNo="1" devices="tripinfo_carIn76675:1 routing_carIn76675:1" vType="default_016" speedFactor="0.99" vaporized=""/>
    <tripinfo id="carIn9695:1" depart="57822.00" departLane="272042143_1" departPos="5.10" departSpeed="0.00" departDelay="0.80" arrival="58019.00" arrivalLane="-315358254#1_1" arrivalPos="137.16" arrivalSpeed="15.54" duration="197.00" routeLength="1596.88" waitingTime="69.00" waitingCount="1" stopTime="0.00" timeLoss="96.45" rerouteNo="1" devices="tripinfo_carIn9695:1 routing_carIn9695:1" vType="default_016" speedFactor="1.16" vaporized=""/>
    <tripinfo id="carIn99509:1" depart="57720.00" departLane="-32978638#0_1" departPos="5.10" departSpeed="0.00" departDelay="0.20" arrival="58023.00" arrivalLane="-315358244_2" arrivalPos="33.95" arrivalSpeed="13.29" duration="303.00" routeLength="1785.24" waitingTime="149.00" waitingCount="2" stopTime="0.00" timeLoss="174.69" rerouteNo="1" devices="tripinfo_carIn99509:1 routing_carIn99509:1" vType="default_015" speedFactor="1.01" vaporized=""/>
    <tripinfo id="carIn70533:1" depart="57812.00" departLane="-447569998#1_1" departPos="5.10" departSpeed="0.00" departDelay="0.10" arrival="58023.00" arrivalLane="-315358244_1" arrivalPos="33.95" arrivalSpeed="15.70" duration="211.00" routeLength="706.49" waitingTime="144.00" waitingCount="2" stopTime="0.00" timeLoss="159.04" rerouteNo="1" devices="tripinfo_carIn70533:1 routing_carIn70533:1" vType="default_016" speedFactor="1.17" vaporized=""/>
    <tripinfo id="h645c1:1" depart="57622.00" departLane="266565295#5_1" departPos="5.10" departSpeed="0.00" departDelay="0.40" arrival="58026.00" arrivalLane="-315358244_1" arrivalPos="33.95" arrivalSpeed="12.18" duration="404.00" routeLength="1910.83" waitingTime="213.00" waitingCount="4" stopTime="0.00" timeLoss="245.85" rerouteNo="1" devices="tripinfo_h645c1:1 routing_h645c1:1" vType="default_016" speedFactor="0.88" vaporized=""/>
    <tripinfo id="carIn117869:1" depart="57758.00" departLane="-32978638#0_1" departPos="5.10" departSpeed="0.00" departDelay="0.60" arrival="58026.00" arrivalLane="-315358244_2" arrivalPos="33.95" arrivalSpeed="12.71" duration="268.00" routeLength="1785.24" waitingTime="111.00" waitingCount="1" stopTime="0.00" timeLoss="129.43" rerouteNo="1" devices="tripinfo_carIn117869:1 routing_carIn117869:1" vType="default_016" speedFactor="0.94" vaporized=""/>
    <tripinfo id="carIn63848:1" depart="57841.00" departLane="-447569998#1_1" departPos="5.10" departSpeed="0.00" departDelay="0.80" arrival="58027.00" arrivalLane="-315358244_2" arrivalPos="33.95" arrivalSpeed="14.60" duration="186.00" routeLength="706.49" waitingTime="115.00" waitingCount="2" stopTime="0.00" timeLoss="132.76" rerouteNo="1" devices="tripinfo_carIn63848:1 routing_carIn63848:1" vType="default_016" speedFactor="1.14" vaporized=""/>
    <tripinfo id="carIn13353:1" depart="57838.00" departLane="-447569998#1_1" departPos="5.10" departSpeed="0.00" departDelay="0.30" arrival="58028.00" arrivalLane="-315358244_1" arrivalPos="33.95" arrivalSpeed="13.90" duration="190.00" routeLength="706.49" waitingTime="117.00" waitingCount="2" stopTime="0.00" timeLoss="133.03" rerouteNo="1" devices="tripinfo_carIn13353:1 routing_carIn13353:1" vType="default_016" speedFactor="1.07" vaporized=""/>
    <tripinfo id="h4391c1:3" depart="57997.00" departLane="-32978638#0_1" departPos="5.10" departSpeed="0.00" departDelay="0.90" arrival="58029.00" arrivalLane="-266565295#5_1" arrivalPos="172.76" arrivalSpeed="13.32" duration="32.00" routeLength="370.53" waitingTime="0.00" waitingCount="0" stopTime="0.00" timeLoss="5.71" rerouteNo="1" devices="tripinfo_h4391c1:3 routing_h4391c1:3" vType="default_016" speedFactor="1.05" vaporized=""/>
    <tripinfo id="h17549c1:1" depart="57680.00" departLane="-447569998#1_1" departPos="5.10" departSpeed="0.00" departDelay="0.00" arrival="58033.00" arrivalLane="-315358254#1_1" arrivalPos="137.16" arrivalSpeed="12.42" duration="353.00" routeLength="1746.60" waitingTime="172.00" waitingCount="5" stopTime="0.00" timeLoss="210.09" rerouteNo="1" devices="tripinfo_h17549c1:1 routing_h17549c1:1" vType="default_016" speedFactor="0.96" vaporized=""/>
    <tripinfo id="carIn48137:1" depart="57682.00" departLane="128361109#1_1" departPos="5.10" departSpeed="0.00" departDelay="4.60" arrival="58041.00" arrivalLane="32978638#0_1" arrivalPos="49.29" arrivalSpeed="15.27" duration="359.00" routeLength="2641.59" waitingTime="154.00" waitingCount="2" stopTime="0.00" timeLoss="185.18" rerouteNo="1" devices="tripinfo_carIn48137:1 routing_carIn48137:1" vType="default_016" speedFactor="1.11" vaporized=""/>
    <tripinfo id="carIn76994:1" depart="57828.00" departLane="272042143_1" departPos="5.10" departSpeed="0.00" departDelay="2.80" arrival="58043.00" arrivalLane="399835085#1_1" arrivalPos="212.23" arrivalSpeed="8.80" duration="215.00" routeLength="1757.45" waitingTime="68.00" waitingCount="1" stopTime="0.00" timeLoss="91.13" rerouteNo="1" devices="tripinfo_carIn76994:1 routing_carIn76994:1" vType="default_016" speedFactor="1.14" vaporized=""/>
    <tripinfo id="carIn86816:1" depart="57617.00" departLane="128361102#0_1" departPos="5.10" departSpeed="0.00" departDelay="0.80" arrival="58053.00" arrivalLane="201956811#0_1" arrivalPos="40.40" arrivalSpeed="11.84" duration="436.00" routeLength="2067.33" waitingTime="232.00" waitingCount="4" stopTime="0.00" timeLoss="269.20" rerouteNo="1" devices="tripinfo_carIn86816:1 routing_carIn86816:1" vType="default_016" speedFactor="0.90" vaporized=""/>
    <tripinfo id="carIn12858:1" depart="57661.00" departLane="128361109#1_1" departPos="5.10" departSpeed="0.00" departDelay="0.90" arrival="58054.00" arrivalLane="399835085#1_1" arrivalPos="212.23" arrivalSpeed="8.03" duration="393.00" routeLength="1738.12" waitingTime="242.00" waitingCount="3" stopTime="0.00" timeLoss="280.25" rerouteNo="1" devices="tripinfo_carIn12858:1 routing_carIn12858:1" vType="default_016" speedFactor="1.02" vaporized=""/>
    <tripinfo id="carIn102915:1" depart="57643.00" departLane="128361102#0_1" departPos="5.10" departSpeed="0.00" departDelay="0.40" arrival="58055.00" arrivalLane="201956811#0_1" arrivalPos="40.40" arrivalSpeed="13.08" duration="412.00" routeLength="2067.33" waitingTime="210.00" waitingCount="4" stopTime="0.00" timeLoss="258.60" rerouteNo="1" devices="tripinfo_carIn102915:1 routing_carIn102915:1" vType="default_016" speedFactor="0.99" vaporized=""/>
    <tripinfo id="carIn90140:1" depart="57783.00" departLane="128361109#1_1" departPos="5.10" departSpeed="0.00" departDelay="6.40" arrival="58056.00" arrivalLane="399835085#1_1" arrivalPos="212.23" arrivalSpeed="9.97" duration="273.00" routeLength="1738.12" waitingTime="114.00" waitingCount="4" stopTime="0.00" timeLoss="178.46" rerouteNo="1" devices="tripinfo_carIn90140:1 routing_carIn90140:1" vType="default_016" speedFactor="1.22" vaporized=""/>
    <tripinfo id="randUni33724:1" depart="57646.00" departLane="128361102#0_1" departPos="5.10" departSpeed="0.00" departDelay="1.20" arrival="58057.00" arrivalLane="201956811#0_1" arrivalPos="40.40" arrivalSpeed="13.62" duration="411.00" routeLength="2067.33" waitingTime="205.00" waitingCount="4" stopTime="0.00" timeLoss="268.76" rerouteNo="1" devices="tripinfo_randUni33724:1 routing_randUni33724:1" vType="random_016" speedFactor="1.07" vaporized=""/>
    <tripinfo id="h2859c1:1" depart="57822.00" departLane="201238726#0.117_1" departPos="5.10" departSpeed="0.00" departDelay="0.10" arrival="58059.00" arrivalLane="386687235_1" arrivalPos="80.84" arrivalSpeed="13.26" duration="237.00" routeLength="1631.78" waitingTime="110.00" waitingCount="1" stopTime="0.00" timeLoss="123.50" rerouteNo="1" devices="tripinfo_h2859c1:1 routing_h2859c1:1" vType="default_016" speedFactor="1.04" vaporized=""/>